Title
82301
    1SAPS     N    1   5.443   6.322  11.067 -0.2592 -0.1659  0.2583
    1SAPS   HN1    2   5.529   6.278  11.027  0.3871  1.6039 -0.4152
    1SAPS   HN2    3   5.417   6.393  10.995 -0.7415 -0.5658  0.0361
    1SAPS   HN3    4   5.462   6.369  11.158 -0.5862 -1.1518  0.8469
    1SAPS   C12    5   5.346   6.213  11.098 -0.2156 -0.5523  0.4808
    1SAPS  H12A    6   5.386   6.146  11.172  0.4415 -0.3496  0.3210
    1SAPS   C13    7   5.221   6.269  11.159  0.5421  0.1259 -0.1567
    1SAPS  O13A    8   5.208   6.394  11.178  0.1969  0.0099  0.1653
    1SAPS  O13B    9   5.127   6.190  11.187  0.3458 -0.0720 -0.1608
    1SAPS   C11   10   5.317   6.136  10.962  0.0231 -0.0667 -0.1080
    1SAPS  H11A   11   5.265   6.206  10.894  0.7423 -0.8818 -1.5517
    1SAPS  H11B   12   5.252   6.053  10.998  1.9641 -0.8143  1.8952
    1SAPS     P   13   5.433   5.987  10.783  0.5193  0.0433  0.1619
    1SAPS   O13   14   5.568   5.957  10.728  0.2731 -0.4715 -0.0723
    1SAPS   O14   15   5.352   5.875  10.837  0.6602 -0.4077 -0.3543
    1SAPS   O12   16   5.434   6.100  10.886 -0.2487 -0.0059  0.1915
    1SAPS   O11   17   5.350   6.054  10.674  0.1884 -0.2677  0.1223
    1SAPS    C1   18   5.389   6.175  10.609  0.2544  0.7047 -0.0837
    1SAPS    HA   19   5.298   6.237  10.603 -2.2414 -2.7397 -1.4773
    1SAPS    HB   20   5.465   6.232  10.666  0.6720 -0.4143  0.5275
    1SAPS    C2   21   5.452   6.149  10.466 -0.6493 -0.4784 -0.4382
    1SAPS    HS   22   5.545   6.090  10.482 -1.8195 -1.7932  2.1708
    1SAPS   O21   23   5.470   6.289  10.412  0.0089  0.5904 -0.3626
    1SAPS   C21   24   5.578   6.299  10.336  0.0573 -0.0839  0.3768
    1SAPS   O22   25   5.666   6.215  10.324 -0.0268  0.6703 -0.4471
    1SAPS   C22   26   5.573   6.428  10.250 -0.1029 -0.5114 -0.1349
    1SAPS   H2R   27   5.469   6.463  10.235  0.7470  0.9686 -3.7981
    1SAPS   H2S   28   5.630   6.506  10.306 -0.7617  0.4898 -0.8134
    1SAPS    C3   29   5.351   6.074  10.381  0.7078 -1.0784 -0.5535
    1SAPS    HX   30   5.280   6.153  10.348  2.3689  1.2804  1.1218
    1SAPS    HY   31   5.293   6.000  10.440 -1.0666  0.1947 -0.6130
    1SAPS   O31   32   5.411   6.021  10.262 -0.2675  0.3119 -0.3719
    1SAPS   C31   33   5.449   5.896  10.273 -0.1863  0.4021  0.0210
    1SAPS   O32   34   5.434   5.823  10.366  0.1737  0.1118  0.7151
    1SAPS   C32   35   5.544   5.859  10.153  0.2266 -0.2224 -0.4306
    1SAPS   H2X   36   5.570   5.752  10.160  1.1676 -0.0747 -1.4337
    1SAPS   H2Y   37   5.638   5.915  10.172  2.1819 -2.9674 -1.4500
    1SAPS   C23   38   5.644   6.413  10.103 -0.9323 -0.5071 -0.2799
    1SAPS   H3R   39   5.754   6.399  10.118 -1.1792 -1.8596  0.3304
    1SAPS   H3S   40   5.632   6.514  10.058  1.2123  0.8979  1.9899
    1SAPS   C24   41   5.579   6.302  10.019 -0.2444 -0.6461  0.5707
    1SAPS   H4R   42   5.618   6.200  10.039 -1.9013 -1.5806 -0.6307
    1SAPS   H4S   43   5.613   6.322   9.915 -1.6556  1.9703  0.5272
    1SAPS   C25   44   5.425   6.293  10.011 -0.2121  0.1103 -0.7879
    1SAPS   H5R   45   5.392   6.224  10.089  0.4680 -1.4324 -1.8096
    1SAPS   C26   46   5.325   6.338   9.929  0.0392  0.4544  0.1901
    1SAPS   H6R   47   5.223   6.302   9.951 -1.2140  2.9625 -1.0306
    1SAPS   C27   48   5.335   6.411   9.795 -0.1790 -0.3365 -0.0665
    1SAPS   H7R   49   5.235   6.438   9.754 -0.5775 -1.4757  0.1151
    1SAPS   H7S   50   5.386   6.346   9.720 -1.0804 -0.4642 -0.5814
    1SAPS   C28   51   5.420   6.533   9.802 -0.6854 -0.9838  0.0968
    1SAPS   H8R   52   5.460   6.560   9.901 -1.1116  2.6102 -0.5448
    1SAPS   C29   53   5.453   6.619   9.706  1.0308  0.0380  0.4073
    1SAPS   H9R   54   5.521   6.702   9.732  2.1526 -1.1532  1.4436
    1SAPS  C210   55   5.405   6.615   9.561 -0.6291  0.1320 -0.4618
    1SAPS  H10R   56   5.442   6.710   9.518  0.3626  0.9835  2.1063
    1SAPS  H10S   57   5.294   6.617   9.556 -0.6243  0.6126 -0.3915
    1SAPS  C211   58   5.455   6.503   9.476 -0.2431 -0.8693 -0.2482
    1SAPS  H11R   59   5.533   6.441   9.522  2.1761  2.3370  0.3313
    1SAPS  C212   60   5.431   6.486   9.345  0.2395  0.2400 -0.1227
    1SAPS  H12R   61   5.501   6.420   9.292  2.2326  0.6208  1.8887
    1SAPS  C213   62   5.353   6.574   9.251 -0.6829  0.3115 -0.3845
    1SAPS  H13R   63   5.416   6.591   9.161  0.7017  4.0757  1.0910
    1SAPS  H13S   64   5.338   6.678   9.287 -0.1232  1.3639 -2.9819
    1SAPS  C214   65   5.217   6.513   9.214  0.2868 -0.3186  0.4144
    1SAPS  H14R   66   5.140   6.536   9.289  0.0602  1.1728 -0.2394
    1SAPS  C215   67   5.192   6.442   9.101 -0.0287 -0.3552  0.4537
    1SAPS  H15R   68   5.088   6.410   9.085 -0.3219 -0.5110  2.4156
    1SAPS  C216   69   5.277   6.405   8.986  0.3755 -0.2470  0.0597
    1SAPS  H16R   70   5.290   6.295   8.982 -0.8171 -0.3936 -0.2723
    1SAPS  H16S   71   5.379   6.449   8.975  0.6455 -1.1960 -1.5778
    1SAPS  C217   72   5.198   6.432   8.851  0.1906  0.3208 -0.1491
    1SAPS  H17R   73   5.164   6.538   8.859  0.2298  0.4797 -1.8481
    1SAPS  H17S   74   5.104   6.374   8.846 -1.2025  2.5500 -1.0483
    1SAPS  C218   75   5.277   6.398   8.727  0.1354  0.2856  0.6872
    1SAPS  H18R   76   5.313   6.293   8.738  0.2151  0.4080  1.7626
    1SAPS  H18S   77   5.372   6.454   8.711  0.9302 -0.5344  2.2131
    1SAPS  C219   78   5.198   6.429   8.602  0.0748 -0.1210 -0.1256
    1SAPS  H19R   79   5.089   6.409   8.616 -0.3882  3.3214  2.4093
    1SAPS  H19S   80   5.230   6.359   8.522 -1.7193 -0.6602 -0.4281
    1SAPS  C220   81   5.232   6.568   8.541  0.5959  0.3468 -0.0027
    1SAPS  H20R   82   5.201   6.645   8.614  0.3074  0.8771 -0.6707
    1SAPS  H20S   83   5.178   6.567   8.444 -1.4716 -2.7929  1.0398
    1SAPS  H20T   84   5.340   6.592   8.527  0.3782  1.6526  0.4132
    1SAPS   C33   85   5.488   5.888  10.010  0.7173 -0.2716  0.3995
    1SAPS   H3X   86   5.562   5.895   9.928  1.5999  0.4264  1.2338
    1SAPS   H3Y   87   5.431   5.984  10.008  1.7878  0.3758 -0.4035
    1SAPS   C34   88   5.392   5.780   9.953  0.4873  0.1230 -0.1799
    1SAPS   H4X   89   5.289   5.801   9.990  0.6923 -0.6344  0.8780
    1SAPS   H4Y   90   5.423   5.678   9.983  0.8533  0.3078  0.0835
    1SAPS   C35   91   5.384   5.761   9.799  0.5311 -0.0921  0.0545
    1SAPS   H5X   92   5.320   5.672   9.782  1.0417 -0.0795 -2.2618
    1SAPS   H5Y   93   5.485   5.736   9.760  0.4809  1.4409 -1.1282
    1SAPS   C36   94   5.344   5.886   9.723 -0.7400 -0.4343 -1.4013
    1SAPS   H6X   95   5.428   5.959   9.724 -0.9277 -0.1479  1.4797
    1SAPS   H6Y   96   5.251   5.937   9.758  0.2807  1.2494 -0.9839
    1SAPS   C37   97   5.317   5.863   9.576 -0.6699 -0.0937 -0.0602
    1SAPS   H7X   98   5.232   5.792   9.576  1.0516 -2.2697  0.4174
    1SAPS   H7Y   99   5.396   5.804   9.524 -1.5492 -0.5936 -0.8603
    1SAPS   C38  100   5.281   5.988   9.503 -0.0220  0.4067  0.0102
    1SAPS   H8X  101   5.376   6.043   9.489 -2.5430  4.5554 -3.1314
    1SAPS   H8Y  102   5.214   6.045   9.571 -3.0687 -1.5331 -1.1314
    1SAPS   C39  103   5.233   5.966   9.355 -0.2439 -0.0664  0.4914
    1SAPS   H9X  104   5.144   5.901   9.366  0.6518 -1.2834  0.7950
    1SAPS   H9Y  105   5.317   5.922   9.296  0.3823  1.1364  0.4510
    1SAPS  C310  106   5.188   6.092   9.290 -0.0348 -0.2111 -0.7568
    1SAPS  H10X  107   5.282   6.150   9.279  1.1877 -2.1335 -0.7087
    1SAPS  H10Y  108   5.124   6.156   9.356  2.4444  1.3399  0.2721
    1SAPS  C311  109   5.106   6.063   9.161  0.3304  0.2198  0.1872
    1SAPS  H11X  110   5.091   6.166   9.122 -0.1787  0.7958  1.8294
    1SAPS  H11Y  111   5.005   6.020   9.178 -1.0228  2.8025 -0.7454
    1SAPS  C312  112   5.173   5.991   9.046 -0.4942 -0.1497  0.2552
    1SAPS  H12X  113   5.189   5.884   9.071  0.7992 -0.3384 -1.1746
    1SAPS  H12Y  114   5.273   6.032   9.019 -0.7443  1.6556  1.8627
    1SAPS  C313  115   5.100   5.986   8.910 -0.1502  0.0149 -0.1038
    1SAPS  H13X  116   5.070   6.089   8.880  1.6848 -0.3413 -3.7067
    1SAPS  H13Y  117   5.016   5.914   8.923 -0.1759  0.0688  0.0285
    1SAPS  C314  118   5.204   5.918   8.815  0.3805 -0.8539 -0.0394
    1SAPS  H14X  119   5.246   5.824   8.856  0.6154 -1.0510 -0.7179
    1SAPS  H14Y  120   5.293   5.984   8.806 -0.4115  0.3068  0.3559
    1SAPS  C315  121   5.155   5.884   8.669  0.2920  0.1874 -0.0167
    1SAPS  H15X  122   5.068   5.816   8.676  0.6680 -0.2675  0.3470
    1SAPS  H15Y  123   5.236   5.835   8.611 -0.7651  0.5067 -1.8270
    1SAPS  C316  124   5.121   5.999   8.585  0.6820 -0.5907 -0.1993
    1SAPS  H16X  125   5.212   6.064   8.582  0.7288 -0.3190  3.2340
    1SAPS  H16Y  126   5.035   6.053   8.632  0.0278 -0.7932 -1.1442
    1SAPS  C317  127   5.097   5.972   8.435  0.3456 -0.3877  0.4964
    1SAPS  H17X  128   5.026   5.893   8.405 -1.5019  2.1498 -2.4359
    1SAPS  H17Y  129   5.194   5.944   8.387 -0.2051 -3.5469  0.9979
    1SAPS  C318  130   5.049   6.090   8.355  0.1375 -0.0001  0.4677
    1SAPS  H18X  131   5.109   6.182   8.373  0.6800 -0.0298 -1.0391
    1SAPS  H18Y  132   4.947   6.116   8.389 -0.3614  1.2272 -1.7441
    1SAPS  H18Z  133   5.055   6.070   8.246  1.4884 -1.0586  0.7013
    2SAPS     N  134   0.052   6.705  11.028 -0.5566  0.0054 -0.3276
    2SAPS   HN1  135   0.111   6.626  10.996 -1.3123 -1.2276  1.2101
    2SAPS   HN2  136   0.116   6.787  11.018  2.2607 -2.0234 -0.0248
    2SAPS   HN3  137   0.025   6.694  11.128 -2.2572 -0.4125 -0.8092
    2SAPS   C12  138  -0.062   6.730  10.940  1.0324 -0.3176  0.3457
    2SAPS  H12A  139  -0.122   6.641  10.942 -0.1036  0.4533  1.8405
    2SAPS   C13  140  -0.145   6.860  10.973 -0.9445  0.4078 -0.2100
    2SAPS  O13A  141  -0.102   6.937  11.067  0.8090 -0.3857  0.3771
    2SAPS  O13B  142  -0.258   6.887  10.925 -0.2174  0.3356 -0.0946
    2SAPS   C11  143  -0.017   6.728  10.794  0.5627 -0.2751  0.3443
    2SAPS  H11A  144   0.077   6.784  10.774 -0.1013  0.2555 -1.4312
    2SAPS  H11B  145  -0.093   6.779  10.732  2.4620  1.8053 -0.4219
    2SAPS     P  146   0.129   6.520  10.739  0.2966 -0.0966  0.1735
    2SAPS   O13  147   0.174   6.501  10.884 -0.8473 -0.2818  0.4496
    2SAPS   O14  148   0.096   6.398  10.668  0.3014  0.1415  0.6392
    2SAPS   O12  149  -0.013   6.590  10.759 -0.4513 -0.0016 -0.1324
    2SAPS   O11  150   0.229   6.612  10.672  0.1229 -0.3276  0.1355
    2SAPS    C1  151   0.238   6.608  10.528 -0.4787  0.2599 -0.1740
    2SAPS    HA  152   0.337   6.651  10.501 -0.3747 -0.1855 -0.4993
    2SAPS    HB  153   0.224   6.506  10.486  2.1351 -0.3512  0.2941
    2SAPS    C2  154   0.132   6.701  10.468 -0.9149  0.6243 -0.6524
    2SAPS    HS  155   0.147   6.802  10.512 -1.1827  1.0468 -1.4979
    2SAPS   O21  156  -0.003   6.654  10.482  0.3496  0.2456 -0.0976
    2SAPS   C21  157  -0.100   6.737  10.446  0.3441  0.4802 -0.3574
    2SAPS   O22  158  -0.087   6.857  10.415  0.2386 -0.2954 -0.0335
    2SAPS   C22  159  -0.231   6.666  10.437  0.5017  0.2415  0.2466
    2SAPS   H2R  160  -0.228   6.557  10.462 -4.0102 -0.3273 -0.7273
    2SAPS   H2S  161  -0.301   6.719  10.505 -0.1688 -0.7213  0.3379
    2SAPS    C3  162   0.172   6.732  10.318 -0.4034  0.8072 -0.5699
    2SAPS    HX  163   0.276   6.772  10.315  0.0364 -0.2443  0.1239
    2SAPS    HY  164   0.103   6.812  10.284  0.7940  1.5987 -1.2183
    2SAPS   O31  165   0.166   6.610  10.238 -0.0178 -0.6186 -0.0961
    2SAPS   C31  166   0.190   6.623  10.111 -0.7197  0.7112  0.1197
    2SAPS   O32  167   0.208   6.721  10.043 -0.3847 -0.4220 -0.0072
    2SAPS   C32  168   0.194   6.472  10.058  0.1194  0.3472 -0.2534
    2SAPS   H2X  169   0.127   6.405  10.116  0.3512  0.4036  0.0852
    2SAPS   H2Y  170   0.298   6.442  10.083 -0.4309 -0.5138  1.1261
    2SAPS   C23  171  -0.279   6.680  10.285  0.7629 -0.3654 -0.3431
    2SAPS   H3R  172  -0.276   6.787  10.254 -0.7674 -0.7107 -1.8191
    2SAPS   H3S  173  -0.385   6.648  10.281  1.1581 -2.3882  2.4546
    2SAPS   C24  174  -0.200   6.593  10.188  0.2703  0.4743  0.7832
    2SAPS   H4R  175  -0.096   6.583  10.226  0.0399 -0.2164  1.2444
    2SAPS   H4S  176  -0.190   6.637  10.086  0.7849  1.9809  1.4526
    2SAPS   C25  177  -0.253   6.456  10.176 -0.5475  0.3567 -0.3823
    2SAPS   H5R  178  -0.214   6.389  10.254  0.6424  1.0835 -0.3240
    2SAPS   C26  179  -0.332   6.417  10.076  0.5246  0.0824 -0.2723
    2SAPS   H6R  180  -0.370   6.314  10.069  0.0185  0.1071  1.6183
    2SAPS   C27  181  -0.385   6.506   9.963 -0.0996  0.2693 -0.3910
    2SAPS   H7R  182  -0.304   6.511   9.887 -2.3505 -0.0288 -2.9698
    2SAPS   H7S  183  -0.393   6.612   9.993  3.1822  0.6241 -0.4342
    2SAPS   C28  184  -0.511   6.461   9.898 -0.1314 -0.2670  0.6671
    2SAPS   H8R  185  -0.587   6.423   9.968  0.3585 -1.7922  0.4147
    2SAPS   C29  186  -0.529   6.436   9.767  0.5192 -0.3393 -0.1475
    2SAPS   H9R  187  -0.627   6.410   9.725  0.2835 -1.1193  0.8404
    2SAPS  C210  188  -0.426   6.437   9.657  0.0404  0.4498 -0.6812
    2SAPS  H10R  189  -0.447   6.353   9.588 -0.1710 -0.8707  0.9179
    2SAPS  H10S  190  -0.324   6.419   9.697 -0.7138 -1.7412  0.4502
    2SAPS  C211  191  -0.416   6.566   9.584  0.1685  0.6403  0.3486
    2SAPS  H11R  192  -0.357   6.634   9.647  1.2650 -2.1196  2.5057
    2SAPS  C212  193  -0.465   6.590   9.461  1.4146 -0.2060 -0.5999
    2SAPS  H12R  194  -0.446   6.691   9.421  1.4592  1.5297  3.3948
    2SAPS  C213  195  -0.551   6.494   9.383 -0.2675 -0.1639  0.1113
    2SAPS  H13R  196  -0.593   6.410   9.442 -1.1649  0.0547 -0.1951
    2SAPS  H13S  197  -0.490   6.440   9.307 -1.0274  0.4523 -0.9743
    2SAPS  C214  198  -0.672   6.574   9.317 -0.3256 -0.1479 -0.2241
    2SAPS  H14R  199  -0.729   6.636   9.388 -0.7832 -2.9010  1.9819
    2SAPS  C215  200  -0.714   6.574   9.189 -0.2870 -0.2415 -0.1826
    2SAPS  H15R  201  -0.808   6.629   9.170  0.3885  0.9851 -0.0424
    2SAPS  C216  202  -0.657   6.498   9.067  0.2222  0.1149 -0.2964
    2SAPS  H16R  203  -0.743   6.443   9.024 -0.8197 -0.8536  2.7564
    2SAPS  H16S  204  -0.575   6.433   9.104  1.5586  2.0698  0.3113
    2SAPS  C217  205  -0.583   6.586   8.962  0.2617  0.3482 -0.6132
    2SAPS  H17R  206  -0.522   6.510   8.908 -0.8161 -1.1332  0.1936
    2SAPS  H17S  207  -0.522   6.660   9.018  2.0795 -2.7024  1.7704
    2SAPS  C218  208  -0.672   6.640   8.859 -0.5288  0.1706  0.8742
    2SAPS  H18R  209  -0.741   6.710   8.911 -0.9143  1.8613 -1.6883
    2SAPS  H18S  210  -0.719   6.555   8.806 -1.1200  1.2560 -0.4155
    2SAPS  C219  211  -0.606   6.724   8.752  0.3913  0.6661  0.3849
    2SAPS  H19R  212  -0.568   6.813   8.807  2.0201 -0.2330  0.8112
    2SAPS  H19S  213  -0.687   6.753   8.682  2.2049  0.7390 -1.7990
    2SAPS  C220  214  -0.496   6.645   8.674 -0.5190  0.8314 -0.4128
    2SAPS  H20R  215  -0.448   6.695   8.588 -0.9653 -3.3101 -3.4142
    2SAPS  H20S  216  -0.540   6.552   8.631  1.3575 -0.3726  0.1451
    2SAPS  H20T  217  -0.419   6.605   8.744  0.4622 -0.0154 -1.9319
    2SAPS   C33  218   0.157   6.453   9.907 -0.1779 -0.2939  0.2676
    2SAPS   H3X  219   0.234   6.380   9.873 -0.6229 -0.6474  0.0056
    2SAPS   H3Y  220   0.173   6.545   9.848 -0.7756 -0.0790  0.4390
    2SAPS   C34  221   0.018   6.403   9.881  0.1075 -0.2221  0.3524
    2SAPS   H4X  222  -0.058   6.484   9.876 -2.2775 -2.2967  0.6377
    2SAPS   H4Y  223  -0.033   6.348   9.963 -2.0761  0.7096 -0.2891
    2SAPS   C35  224  -0.011   6.327   9.749 -0.2664  0.2412  0.4023
    2SAPS   H5X  225  -0.100   6.262   9.746 -0.5422  0.6056 -2.8284
    2SAPS   H5Y  226   0.074   6.255   9.747 -0.6501 -0.2036 -0.0626
    2SAPS   C36  227  -0.019   6.422   9.638 -0.6142 -0.2469 -0.1314
    2SAPS   H6X  228   0.062   6.497   9.649 -0.6614 -0.3662  1.2180
    2SAPS   H6Y  229  -0.113   6.481   9.648 -0.8535 -0.7322  0.5850
    2SAPS   C37  230  -0.012   6.357   9.494 -0.0897 -0.2211 -0.5901
    2SAPS   H7X  231  -0.087   6.274   9.496  0.4176 -0.6793  0.7194
    2SAPS   H7Y  232   0.086   6.304   9.488  0.3377  0.7036 -2.0891
    2SAPS   C38  233  -0.050   6.452   9.377  0.4536  0.1888 -0.3750
    2SAPS   H8X  234   0.010   6.543   9.355 -2.7334  2.6984  0.4882
    2SAPS   H8Y  235  -0.148   6.504   9.389  0.1136 -0.4750 -0.2328
    2SAPS   C39  236  -0.069   6.365   9.248 -0.2430 -0.9701 -0.1232
    2SAPS   H9X  237  -0.152   6.296   9.274 -0.6109 -0.8144 -0.8562
    2SAPS   H9Y  238   0.020   6.303   9.223 -1.1363 -2.3514  0.0159
    2SAPS  C310  239  -0.121   6.456   9.137 -0.8320 -0.2732  0.7146
    2SAPS  H10X  240  -0.033   6.521   9.117 -0.0879 -1.2741  0.6563
    2SAPS  H10Y  241  -0.207   6.521   9.164 -3.2858 -1.7826 -2.6906
    2SAPS  C311  242  -0.146   6.375   9.007  0.1891  0.2027  0.9953
    2SAPS  H11X  243  -0.244   6.324   9.018  0.6109 -0.7317  0.5369
    2SAPS  H11Y  244  -0.061   6.304   9.004 -0.8226 -1.2169  2.8775
    2SAPS  C312  245  -0.140   6.458   8.878  0.1937 -0.1038 -0.8452
    2SAPS  H12X  246  -0.048   6.520   8.883  0.9262 -0.9088 -3.0107
    2SAPS  H12Y  247  -0.224   6.530   8.871 -0.8237 -1.0905  0.5853
    2SAPS  C313  248  -0.120   6.360   8.765  0.5476 -0.0843  0.1757
    2SAPS  H13X  249  -0.188   6.274   8.783  1.7204 -0.8501  1.1210
    2SAPS  H13Y  250  -0.018   6.317   8.772  0.7582  0.2814 -0.5431
    2SAPS  C314  251  -0.150   6.419   8.630  0.3257  0.9942  0.1522
    2SAPS  H14X  252  -0.253   6.457   8.641  0.4383  1.2019  0.5123
    2SAPS  H14Y  253  -0.160   6.344   8.549 -0.8028  0.4272  0.7916
    2SAPS  C315  254  -0.054   6.534   8.593 -0.3619  0.2951 -0.1728
    2SAPS  H15X  255   0.048   6.498   8.618 -0.5023  1.3054  2.0054
    2SAPS  H15Y  256  -0.067   6.627   8.652 -2.6644  1.0696 -1.7554
    2SAPS  C316  257  -0.074   6.578   8.452  0.2063 -0.3760  0.7662
    2SAPS  H16X  258  -0.006   6.662   8.426 -0.3743 -0.7357 -2.2902
    2SAPS  H16Y  259  -0.176   6.604   8.416  1.2936  2.4542 -0.6164
    2SAPS  C317  260  -0.024   6.482   8.348 -0.1861  0.8505  0.1022
    2SAPS  H17X  261  -0.093   6.397   8.332  0.4929  0.6631 -2.0461
    2SAPS  H17Y  262   0.076   6.438   8.369 -0.7452 -0.4576  0.0952
    2SAPS  C318  263  -0.015   6.542   8.205  0.0924  0.7761  0.2324
    2SAPS  H18X  264  -0.119   6.573   8.180  0.9120  0.9255 -3.6081
    2SAPS  H18Y  265   0.016   6.472   8.125 -1.7493 -2.3666  2.0593
    2SAPS  H18Z  266   0.053   6.630   8.205  0.6592  0.3549 -0.6369
    3SAPS     N  267   5.534   2.955  11.077 -0.3031 -0.1514  0.6307
    3SAPS   HN1  268   5.489   2.901  11.000 -0.4583 -0.0584  0.6560
    3SAPS   HN2  269   5.633   2.971  11.052  0.0358 -3.3364 -0.6470
    3SAPS   HN3  270   5.523   2.889  11.158 -0.7575 -0.2038  0.5303
    3SAPS   C12  271   5.450   3.071  11.103 -0.3628  0.1724  0.8214
    3SAPS  H12A  272   5.448   3.088  11.210 -2.5133 -0.2961  0.8945
    3SAPS   C13  273   5.491   3.206  11.041 -0.4489  0.4388  0.6152
    3SAPS  O13A  274   5.593   3.208  10.969 -0.1365 -0.1929 -0.0827
    3SAPS  O13B  275   5.436   3.315  11.080 -0.6053 -0.6293  0.4706
    3SAPS   C11  276   5.306   3.040  11.050 -0.9290  0.6430  0.3623
    3SAPS  H11A  277   5.309   3.034  10.939  1.7375 -1.5012  0.4511
    3SAPS  H11B  278   5.252   3.133  11.079 -1.2267  0.2908  0.9402
    3SAPS     P  279   5.108   2.866  11.094 -0.1535 -0.1101 -0.0754
    3SAPS   O13  280   5.110   2.725  11.139 -0.2061 -0.6174 -0.5963
    3SAPS   O14  281   5.010   2.957  11.160  0.3795  0.3087 -0.4150
    3SAPS   O12  282   5.252   2.928  11.115  0.0303  0.4465  1.3644
    3SAPS   O11  283   5.090   2.875  10.935  0.1051 -0.9404 -0.1977
    3SAPS    C1  284   5.188   2.787  10.865 -0.4101 -0.3473  0.2978
    3SAPS    HA  285   5.293   2.797  10.898  0.1299 -0.8550 -1.2188
    3SAPS    HB  286   5.157   2.681  10.872  2.6468 -1.5415 -2.2160
    3SAPS    C2  287   5.183   2.835  10.718 -0.8522  0.2580  0.1419
    3SAPS    HS  288   5.191   2.945  10.724 -0.1078  0.1716  0.9332
    3SAPS   O21  289   5.059   2.788  10.669 -0.2915 -0.3499  0.5562
    3SAPS   C21  290   5.006   2.869  10.577 -0.7032  0.1512 -0.0870
    3SAPS   O22  291   5.066   2.970  10.537 -0.0769  0.0199 -0.4933
    3SAPS   C22  292   4.880   2.810  10.528  0.3969  0.2115 -0.2047
    3SAPS   H2R  293   4.851   2.732  10.602 -0.3816  0.8033  0.1396
    3SAPS   H2S  294   4.810   2.895  10.544  2.3170  1.3143  3.7314
    3SAPS    C3  295   5.297   2.765  10.644  0.6266 -0.0330 -0.0304
    3SAPS    HX  296   5.285   2.655  10.650 -1.2852  0.1122 -0.4414
    3SAPS    HY  297   5.388   2.794  10.700 -0.4569 -1.9559  2.9450
    3SAPS   O31  298   5.306   2.802  10.505 -0.0270  0.0389  0.0883
    3SAPS   C31  299   5.261   2.707  10.419 -0.1599  0.3248  0.0868
    3SAPS   O32  300   5.239   2.588  10.441  0.1878 -0.0309  0.4673
    3SAPS   C32  301   5.241   2.773  10.277  0.8281  0.7065 -0.2054
    3SAPS   H2X  302   5.331   2.834  10.254  0.3565  1.3415 -0.3782
    3SAPS   H2Y  303   5.142   2.824  10.278  0.8311  0.7286  1.1327
    3SAPS   C23  304   4.874   2.740  10.394  0.1708 -0.7383 -0.4835
    3SAPS   H3R  305   4.969   2.683  10.398  0.5532 -0.2774 -2.0768
    3SAPS   H3S  306   4.893   2.812  10.311  2.1064 -0.5009  0.1122
    3SAPS   C24  307   4.761   2.650  10.360  0.3650  0.5826 -0.0308
    3SAPS   H4R  308   4.665   2.707  10.365 -0.6639 -0.8148 -2.3478
    3SAPS   H4S  309   4.765   2.562  10.429 -1.0700 -0.6119 -1.3818
    3SAPS   C25  310   4.792   2.584  10.229 -0.8400  0.1980 -0.3768
    3SAPS   H5R  311   4.875   2.512  10.228  0.5576  1.6997  0.2985
    3SAPS   C26  312   4.728   2.599  10.115 -0.0834 -0.5444 -0.1906
    3SAPS   H6R  313   4.755   2.529  10.035 -0.3546  1.1932 -1.8677
    3SAPS   C27  314   4.600   2.679  10.098  0.2956 -0.4663  0.3374
    3SAPS   H7R  315   4.627   2.776  10.053  3.1336 -2.0782 -1.7321
    3SAPS   H7S  316   4.564   2.711  10.198  0.0591 -0.1618  0.1550
    3SAPS   C28  317   4.486   2.607  10.027 -0.2145 -0.4771  0.0630
    3SAPS   H8R  318   4.407   2.566  10.092 -1.0489 -0.4590 -0.9038
    3SAPS   C29  319   4.494   2.563   9.900  0.6083 -0.2778  0.4302
    3SAPS   H9R  320   4.407   2.514   9.853  0.5291  1.3633 -1.2874
    3SAPS  C210  321   4.607   2.580   9.798  0.2695  0.4423 -0.1463
    3SAPS  H10R  322   4.704   2.555   9.845 -0.4353 -1.3964  0.4170
    3SAPS  H10S  323   4.608   2.681   9.751  1.2285  0.1559 -0.7739
    3SAPS  C211  324   4.602   2.480   9.680  0.2955  0.4026  0.6050
    3SAPS  H11R  325   4.671   2.396   9.693 -2.1556 -1.6054  1.4792
    3SAPS  C212  326   4.544   2.490   9.559 -0.0157 -1.0450 -0.4018
    3SAPS  H12R  327   4.560   2.408   9.487 -1.1264 -0.0584 -1.8015
    3SAPS  C213  328   4.468   2.609   9.512 -0.2967  1.1056  0.0849
    3SAPS  H13R  329   4.450   2.687   9.589 -0.2613  0.3060  0.9191
    3SAPS  H13S  330   4.362   2.581   9.494 -0.3982  0.9012  0.9477
    3SAPS  C214  331   4.534   2.678   9.396  0.2306  0.0865  0.6530
    3SAPS  H14R  332   4.628   2.729   9.423 -0.5309  2.3222 -0.6925
    3SAPS  C215  333   4.491   2.689   9.268  0.4937  0.1669 -0.5614
    3SAPS  H15R  334   4.547   2.738   9.187 -1.5119  1.3432 -1.3216
    3SAPS  C216  335   4.354   2.650   9.218  0.0894 -0.3635 -0.5951
    3SAPS  H16R  336   4.312   2.748   9.189  1.0920  1.5087  3.4636
    3SAPS  H16S  337   4.293   2.601   9.297 -0.8807 -0.4715 -1.3946
    3SAPS  C217  338   4.372   2.535   9.110 -0.3022  0.6955 -0.0732
    3SAPS  H17R  339   4.401   2.441   9.164 -0.3997  1.5151  1.4626
    3SAPS  H17S  340   4.455   2.565   9.043  0.1959 -1.1482 -0.3573
    3SAPS  C218  341   4.258   2.516   9.014  0.0833  0.3913  0.0791
    3SAPS  H18R  342   4.226   2.616   8.977 -1.7433 -0.7801 -1.7414
    3SAPS  H18S  343   4.170   2.488   9.076 -0.8581  0.3200 -1.2457
    3SAPS  C219  344   4.274   2.418   8.892  0.4660 -0.3188 -0.9547
    3SAPS  H19R  345   4.190   2.442   8.824  0.4295  1.8812 -0.2225
    3SAPS  H19S  346   4.273   2.313   8.927  0.6750  0.7670  2.7470
    3SAPS  C220  347   4.410   2.428   8.825  0.6891 -0.7924 -0.4081
    3SAPS  H20R  348   4.491   2.428   8.901 -0.2614  0.2041  0.6537
    3SAPS  H20S  349   4.412   2.527   8.774  0.5986  1.0766  2.9129
    3SAPS  H20T  350   4.419   2.344   8.753  0.3188 -1.2700  0.0991
    3SAPS   C33  351   5.220   2.667  10.156  0.0279  0.3571  0.1170
    3SAPS   H3X  352   5.144   2.590  10.179 -0.2625  0.6522  0.1586
    3SAPS   H3Y  353   5.308   2.600  10.164 -0.7635 -0.7914 -0.4466
    3SAPS   C34  354   5.210   2.731  10.018 -0.2043 -0.4278 -0.0382
    3SAPS   H4X  355   5.303   2.787   9.992 -1.4750  0.4629 -3.1488
    3SAPS   H4Y  356   5.127   2.803  10.028 -0.7189 -0.9806 -0.2656
    3SAPS   C35  357   5.182   2.640   9.896 -0.2706 -0.0715 -0.8594
    3SAPS   H5X  358   5.229   2.542   9.919  0.3115  0.4733  0.4159
    3SAPS   H5Y  359   5.220   2.692   9.805  0.5829  1.2558  0.2143
    3SAPS   C36  360   5.034   2.613   9.876  0.0215 -0.5708 -0.4133
    3SAPS   H6X  361   4.973   2.702   9.851 -2.0033 -1.2610  1.6519
    3SAPS   H6Y  362   4.988   2.576   9.971 -0.3392  1.4686  0.2427
    3SAPS   C37  363   5.025   2.507   9.767  0.1634 -0.3850 -0.5296
    3SAPS   H7X  364   4.929   2.456   9.791 -0.4940  0.3196 -1.5787
    3SAPS   H7Y  365   5.094   2.421   9.781 -1.0964 -1.3333  0.1810
    3SAPS   C38  366   5.028   2.553   9.621 -0.3489  0.1168  0.7899
    3SAPS   H8X  367   5.134   2.576   9.598 -0.1227 -2.7779 -1.8853
    3SAPS   H8Y  368   4.964   2.640   9.596  0.3885  0.7037  0.9284
    3SAPS   C39  369   4.985   2.436   9.535 -0.4852  0.0070 -0.1015
    3SAPS   H9X  370   4.889   2.411   9.586 -1.3726  2.5503 -0.3702
    3SAPS   H9Y  371   5.059   2.354   9.547 -0.4446 -0.2025 -1.5937
    3SAPS  C310  372   4.961   2.459   9.382  0.4078  0.5798 -0.0470
    3SAPS  H10X  373   5.062   2.471   9.339  1.0216 -2.4098  0.3653
    3SAPS  H10Y  374   4.911   2.558   9.376  0.9903  1.2322  3.6737
    3SAPS  C311  375   4.879   2.347   9.310  0.3984  0.0038  0.2841
    3SAPS  H11X  376   4.774   2.353   9.346  0.7585 -1.3038  1.6551
    3SAPS  H11Y  377   4.913   2.248   9.346  1.0301  0.3353  0.6242
    3SAPS  C312  378   4.881   2.366   9.166  0.1155  0.4303  0.2873
    3SAPS  H12X  379   4.987   2.357   9.133 -0.2712 -0.6650 -0.7817
    3SAPS  H12Y  380   4.839   2.468   9.154 -2.1280 -0.2123  2.0089
    3SAPS  C313  381   4.797   2.258   9.098  0.6120 -0.5456 -0.1348
    3SAPS  H13X  382   4.689   2.280   9.105  0.7455  0.0941 -0.0309
    3SAPS  H13Y  383   4.815   2.162   9.152 -2.3116  0.0465  2.1371
    3SAPS  C314  384   4.829   2.238   8.954 -0.4494 -0.0295  0.5260
    3SAPS  H14X  385   4.930   2.195   8.933 -1.0707 -1.7689  0.8888
    3SAPS  H14Y  386   4.818   2.335   8.903 -0.0584 -1.8270 -3.3069
    3SAPS  C315  387   4.727   2.155   8.879  0.5737  0.5509 -0.3348
    3SAPS  H15X  388   4.627   2.199   8.901  0.7323 -0.0988  1.9182
    3SAPS  H15Y  389   4.734   2.054   8.925 -3.7150  0.6185  0.9382
    3SAPS  C316  390   4.747   2.159   8.722 -0.0242 -0.0349  0.1039
    3SAPS  H16X  391   4.835   2.102   8.688 -1.3363 -0.0640 -3.7380
    3SAPS  H16Y  392   4.781   2.259   8.689  2.4058 -1.0432 -0.6295
    3SAPS  C317  393   4.614   2.124   8.655  0.2616 -0.1413 -1.0150
    3SAPS  H17X  394   4.538   2.203   8.669 -1.1535 -1.3238 -1.8317
    3SAPS  H17Y  395   4.575   2.031   8.701 -0.7747  0.3212 -0.9451
    3SAPS  C318  396   4.625   2.100   8.504  0.5143  0.0656  0.1285
    3SAPS  H18X  397   4.664   2.196   8.464  0.9730 -0.0676  0.2616
    3SAPS  H18Y  398   4.524   2.078   8.462  0.1182  0.9355  0.6016
    3SAPS  H18Z  399   4.704   2.031   8.469  0.6112 -0.1442  0.7530
    4SAPS     N  400   1.169   2.196  10.983 -0.0272  0.3027 -0.0935
    4SAPS   HN1  401   1.113   2.263  10.925 -2.3680 -2.0952 -0.7979
    4SAPS   HN2  402   1.158   2.228  11.082 -1.4400 -0.9894  0.2169
    4SAPS   HN3  403   1.267   2.204  10.950  0.6969 -2.4332  1.1416
    4SAPS   C12  404   1.126   2.055  10.960  0.1732 -0.3878  0.5065
    4SAPS  H12A  405   1.151   2.036  10.857  1.7543  1.9670  0.3515
    4SAPS   C13  406   1.189   1.954  11.049 -0.7792  0.0760 -0.0979
    4SAPS  O13A  407   1.281   1.989  11.135  0.0744  0.0450  0.3422
    4SAPS  O13B  408   1.168   1.831  11.027 -0.7977 -0.4917  0.7531
    4SAPS   C11  409   0.971   2.046  10.956  1.2767 -0.1227  0.5440
    4SAPS  H11A  410   0.942   2.066  11.061  0.4244 -2.1458  0.7442
    4SAPS  H11B  411   0.934   1.943  10.938 -1.4962  0.9843 -0.6245
    4SAPS     P  412   0.854   2.103  10.730  0.1859  0.0880  0.0605
    4SAPS   O13  413   0.732   2.026  10.745 -0.2984  0.4184 -0.0921
    4SAPS   O14  414   0.838   2.230  10.654  0.4254 -0.6451 -0.0144
    4SAPS   O12  415   0.901   2.142  10.873 -0.1227 -0.1690 -0.4589
    4SAPS   O11  416   0.970   2.022  10.668 -0.2921  0.5369  0.4171
    4SAPS    C1  417   1.082   2.073  10.587  1.3854  0.2317 -0.4485
    4SAPS    HA  418   1.134   2.160  10.633  1.4438  1.2926 -2.4080
    4SAPS    HB  419   1.154   1.993  10.562  1.5928  0.2877 -0.0370
    4SAPS    C2  420   1.028   2.119  10.442  0.0266 -0.1002 -0.3875
    4SAPS    HS  421   0.967   2.210  10.464  1.6445  1.3767 -1.6701
    4SAPS   O21  422   0.953   2.012  10.382  0.1390  0.5141 -0.1776
    4SAPS   C21  423   0.863   2.052  10.292  0.3188  0.1965 -0.3607
    4SAPS   O22  424   0.828   2.164  10.284 -0.4811 -0.8504  0.2719
    4SAPS   C22  425   0.801   1.936  10.218  0.2085  0.7213 -0.0203
    4SAPS   H2R  426   0.850   1.839  10.242  1.4316  0.7739 -2.0623
    4SAPS   H2S  427   0.698   1.929  10.257  0.4992  0.7423  0.7705
    4SAPS    C3  428   1.148   2.176  10.361 -0.1434  0.2004 -0.4569
    4SAPS    HX  429   1.226   2.098  10.368  0.9627  1.4232  2.6677
    4SAPS    HY  430   1.187   2.268  10.410 -3.5257  1.0374  0.9920
    4SAPS   O31  431   1.116   2.189  10.220 -0.5997 -0.4583 -0.2197
    4SAPS   C31  432   1.096   2.317  10.168 -0.1103 -0.0216 -0.1691
    4SAPS   O32  433   1.092   2.420  10.231 -0.2462  0.2969  0.0523
    4SAPS   C32  434   1.106   2.316  10.021 -0.0991  0.2144 -0.4976
    4SAPS   H2X  435   1.098   2.208   9.995 -1.6251 -0.4287  2.3010
    4SAPS   H2Y  436   1.210   2.350  10.001 -0.0871 -0.0752 -0.9327
    4SAPS   C23  437   0.794   1.965  10.074 -0.5232  0.5474 -0.2396
    4SAPS   H3R  438   0.739   2.059  10.050 -0.3698  0.7512  0.1848
    4SAPS   H3S  439   0.749   1.872  10.034  0.6799  0.1759 -0.7746
    4SAPS   C24  440   0.929   1.965  10.002 -0.3613  0.0697  0.1918
    4SAPS   H4R  441   0.996   2.038  10.052  0.5861 -1.5870  1.4539
    4SAPS   H4S  442   0.921   1.982   9.892 -2.2695 -0.4061  0.2201
    4SAPS   C25  443   1.003   1.835  10.022 -0.4659 -0.7101 -0.2457
    4SAPS   H5R  444   1.056   1.836  10.118 -1.6237  1.8498  0.4532
    4SAPS   C26  445   0.981   1.728   9.941 -0.1117  0.0251 -0.6652
    4SAPS   H6R  446   1.031   1.631   9.953 -2.7983 -1.4953 -0.8581
    4SAPS   C27  447   0.897   1.727   9.815 -0.2678  0.1041 -0.0151
    4SAPS   H7R  448   0.910   1.813   9.745 -0.7988 -1.3042 -1.9484
    4SAPS   H7S  449   0.788   1.717   9.834 -0.4198 -0.9893 -1.2422
    4SAPS   C28  450   0.939   1.617   9.726  0.1813  0.1428 -0.0686
    4SAPS   H8R  451   1.042   1.579   9.731 -0.7366 -3.7450 -4.2513
    4SAPS   C29  452   0.856   1.561   9.633  0.5612 -0.1044  0.7939
    4SAPS   H9R  453   0.897   1.477   9.575 -0.5205 -0.2741  0.2495
    4SAPS  C210  454   0.710   1.599   9.607  0.4643  0.7163  0.4014
    4SAPS  H10R  455   0.688   1.602   9.499  1.4571 -2.7791 -0.0144
    4SAPS  H10S  456   0.692   1.705   9.637 -0.2431 -0.0175  2.8238
    4SAPS  C211  457   0.617   1.509   9.682  0.1195 -0.4525 -0.0689
    4SAPS  H11R  458   0.638   1.476   9.785 -1.3177 -1.1889  0.0152
    4SAPS  C212  459   0.504   1.461   9.643  0.0968  0.2574  0.5450
    4SAPS  H12R  460   0.449   1.398   9.714  1.9002 -2.7866 -0.5817
    4SAPS  C213  461   0.444   1.464   9.503  0.2371  0.7204 -0.2387
    4SAPS  H13R  462   0.526   1.435   9.434  0.9319 -0.9004  1.1652
    4SAPS  H13S  463   0.399   1.563   9.483 -2.9973 -0.3071  1.2475
    4SAPS  C214  464   0.333   1.361   9.498 -0.0151  1.1145 -0.4101
    4SAPS  H14R  465   0.366   1.262   9.533 -1.0324  0.7837 -0.3460
    4SAPS  C215  466   0.207   1.373   9.456 -0.1383  0.1375 -0.3576
    4SAPS  H15R  467   0.132   1.293   9.465  0.4176 -0.6013 -1.8419
    4SAPS  C216  468   0.145   1.510   9.419  0.7822 -0.4221 -0.1332
    4SAPS  H16R  469   0.214   1.594   9.444 -0.6965  1.1456 -1.0454
    4SAPS  H16S  470   0.052   1.533   9.474  1.7819  2.3915  0.5673
    4SAPS  C217  471   0.110   1.503   9.271  0.0244  0.1043  0.8199
    4SAPS  H17R  472   0.093   1.602   9.225  4.1269 -1.2418 -4.7514
    4SAPS  H17S  473   0.022   1.437   9.257 -1.3796  1.6194  2.1340
    4SAPS  C218  474   0.221   1.456   9.168  0.4418  0.4933  0.2167
    4SAPS  H18R  475   0.229   1.345   9.174  0.4103  0.4078 -1.0679
    4SAPS  H18S  476   0.316   1.501   9.201  1.1839  0.1093 -1.3140
    4SAPS  C219  477   0.188   1.490   9.020  0.2438 -0.3265  0.9428
    4SAPS  H19R  478   0.185   1.600   9.004  1.5223 -0.4279 -0.1850
    4SAPS  H19S  479   0.086   1.451   8.998  0.2586  0.8810 -1.6282
    4SAPS  C220  480   0.295   1.436   8.930 -0.2413  0.3474  0.2247
    4SAPS  H20R  481   0.338   1.343   8.972 -0.6216  1.5424  3.5976
    4SAPS  H20S  482   0.370   1.514   8.904 -0.7641  0.4743 -0.9711
    4SAPS  H20T  483   0.246   1.409   8.835 -1.8767 -1.3242  1.4568
    4SAPS   C33  484   0.992   2.396   9.950 -0.3974  0.2380 -0.2980
    4SAPS   H3X  485   0.995   2.504   9.976 -0.4999 -0.0143  0.7850
    4SAPS   H3Y  486   0.889   2.364   9.977 -0.6220  2.5950  1.9745
    4SAPS   C34  487   1.015   2.394   9.801 -0.0236 -0.0500  0.1495
    4SAPS   H4X  488   1.113   2.441   9.779  0.1283  0.0898  1.0800
    4SAPS   H4Y  489   0.934   2.453   9.752 -1.0453 -0.2750  1.5245
    4SAPS   C35  490   1.007   2.252   9.746 -0.5871  0.4823 -0.3426
    4SAPS   H5X  491   0.904   2.214   9.763 -0.3524 -0.7804 -1.5495
    4SAPS   H5Y  492   1.085   2.183   9.784 -0.3100 -0.6916 -2.7837
    4SAPS   C36  493   1.050   2.249   9.602 -0.3927  0.2769  0.1432
    4SAPS   H6X  494   1.046   2.145   9.564  0.9784  0.2638 -0.0463
    4SAPS   H6Y  495   1.153   2.293   9.595 -0.7268  1.2417  0.9483
    4SAPS   C37  496   0.959   2.313   9.505  0.4912 -0.5660  0.3439
    4SAPS   H7X  497   0.950   2.424   9.504 -2.6733 -0.7113 -2.0225
    4SAPS   H7Y  498   0.856   2.277   9.523 -0.1774  2.2304  3.0772
    4SAPS   C38  499   1.007   2.277   9.364 -0.4715 -0.0217  1.1386
    4SAPS   H8X  500   0.997   2.167   9.355 -2.7021  0.2839 -0.9424
    4SAPS   H8Y  501   1.111   2.313   9.355 -1.2006  1.6279 -2.7215
    4SAPS   C39  502   0.935   2.343   9.248 -0.0062  0.4829 -0.0723
    4SAPS   H9X  503   0.941   2.454   9.252  1.3212  0.4685 -1.0057
    4SAPS   H9Y  504   0.829   2.312   9.261 -0.1998  1.4266  0.7442
    4SAPS  C310  505   0.967   2.302   9.099  0.1943  0.4320  1.0360
    4SAPS  H10X  506   0.933   2.197   9.087 -1.2745  0.9876 -0.0810
    4SAPS  H10Y  507   1.074   2.306   9.070  0.1092  2.0535  0.8696
    4SAPS  C311  508   0.882   2.375   9.001  0.3545  0.4639  0.4529
    4SAPS  H11X  509   0.903   2.484   9.000  1.6239  0.2426 -1.1683
    4SAPS  H11Y  510   0.774   2.353   9.018 -0.0177 -0.3808 -2.4235
    4SAPS  C312  511   0.909   2.343   8.850 -0.4649 -0.5658 -0.0680
    4SAPS  H12X  512   0.885   2.237   8.828  0.5709 -0.6179 -1.0810
    4SAPS  H12Y  513   1.019   2.338   8.832 -0.4597  0.0447 -0.2394
    4SAPS  C313  514   0.836   2.445   8.765 -0.5613 -0.2883  0.0590
    4SAPS  H13X  515   0.873   2.547   8.788 -1.4223  0.1880 -0.6285
    4SAPS  H13Y  516   0.727   2.438   8.785 -1.2353  2.6987 -1.9487
    4SAPS  C314  517   0.854   2.424   8.613  0.1425  0.5989  0.5100
    4SAPS  H14X  518   0.795   2.333   8.590  0.3126  0.7817 -0.7299
    4SAPS  H14Y  519   0.961   2.418   8.583 -0.1841  3.8962 -1.9742
    4SAPS  C315  520   0.785   2.532   8.527 -0.2354  0.3815  1.1489
    4SAPS  H15X  521   0.675   2.541   8.515 -0.1862  2.8794  1.8561
    4SAPS  H15Y  522   0.815   2.520   8.421 -0.1982 -0.5374  1.2630
    4SAPS  C316  523   0.820   2.682   8.565  0.7116 -0.5681  0.2286
    4SAPS  H16X  524   0.930   2.668   8.560  1.0601  2.1135 -2.6678
    4SAPS  H16Y  525   0.780   2.713   8.664 -1.0889  0.0867 -0.6495
    4SAPS  C317  526   0.788   2.784   8.454 -0.6295 -0.7395  0.4886
    4SAPS  H17X  527   0.678   2.782   8.439 -0.7061 -1.7368  1.1007
    4SAPS  H17Y  528   0.849   2.755   8.366  0.7261  0.0259  1.1337
    4SAPS  C318  529   0.826   2.926   8.486  0.4276  0.0224 -0.2201
    4SAPS  H18X  530   0.842   2.983   8.392 -0.1098  1.8674  0.7431
    4SAPS  H18Y  531   0.921   2.938   8.543  0.0244  0.4893  0.3775
    4SAPS  H18Z  532   0.741   2.969   8.544 -0.2513 -0.3106 -0.9560
    5SAPS     N  533   3.040   2.179  11.087 -0.3661  0.2904 -0.3028
    5SAPS   HN1  534   3.097   2.097  11.058 -0.5913  0.2488 -0.6242
    5SAPS   HN2  535   3.098   2.266  11.079 -0.9495  0.5108 -2.7418
    5SAPS   HN3  536   3.014   2.160  11.186 -2.2381  3.3166 -0.0897
    5SAPS   C12  537   2.919   2.200  10.993  0.9970  0.1841 -0.5158
    5SAPS  H12A  538   2.835   2.143  11.029 -0.3358  2.4036  0.0925
    5SAPS   C13  539   2.852   2.340  10.998  0.5685  0.2821  0.2932
    5SAPS  O13A  540   2.903   2.426  11.070  0.3967 -0.0988  0.1442
    5SAPS  O13B  541   2.733   2.346  10.971  0.6753 -0.5153 -0.3818
    5SAPS   C11  542   2.961   2.176  10.841 -0.5358  0.2238 -0.1575
    5SAPS  H11A  543   3.028   2.260  10.813 -2.1531  1.3088 -0.9215
    5SAPS  H11B  544   2.873   2.183  10.774 -0.8806 -0.3861  0.2205
    5SAPS     P  545   2.915   1.930  10.803 -0.1428  0.0992 -0.2801
    5SAPS   O13  546   2.996   1.818  10.752  0.4024  0.2218 -0.2056
    5SAPS   O14  547   2.845   1.905  10.930  0.0899  0.2791  0.3342
    5SAPS   O12  548   3.024   2.050  10.820  0.3148  0.1406 -0.3032
    5SAPS   O11  549   2.815   1.988  10.693  0.4236  0.5488  0.4082
    5SAPS    C1  550   2.858   2.037  10.567 -0.1983  0.1003 -0.0696
    5SAPS    HA  551   2.773   2.096  10.527  0.8998  0.3518 -2.2090
    5SAPS    HB  552   2.939   2.113  10.572 -0.0761 -0.0564  0.4043
    5SAPS    C2  553   2.885   1.923  10.469 -0.2180  0.0475 -1.0908
    5SAPS    HS  554   2.969   1.865  10.512 -0.9147  0.2166  0.5661
    5SAPS   O21  555   2.907   1.975  10.335  0.4846  0.1907 -0.0867
    5SAPS   C21  556   2.963   1.882  10.256  0.0059 -0.3003  0.2368
    5SAPS   O22  557   3.013   1.777  10.300  0.6860 -0.6113  0.7715
    5SAPS   C22  558   2.964   1.929  10.112  0.8757  0.2547  0.3261
    5SAPS   H2R  559   2.877   1.996  10.093  0.4577 -0.5001 -0.5098
    5SAPS   H2S  560   3.054   1.992  10.098 -0.9690  2.9695 -0.2055
    5SAPS    C3  561   2.756   1.824  10.477  0.6497 -0.3155  0.9824
    5SAPS    HX  562   2.735   1.792  10.581 -2.8803  0.7044  0.7386
    5SAPS    HY  563   2.774   1.728  10.426  0.9761 -0.3767  1.2097
    5SAPS   O31  564   2.640   1.893  10.422  0.3164  0.3116  0.2591
    5SAPS   C31  565   2.627   1.894  10.289  0.4045 -0.6005 -0.3700
    5SAPS   O32  566   2.689   1.819  10.214  0.0974  0.7834  0.2059
    5SAPS   C32  567   2.540   2.022  10.257  0.5250  0.0740 -0.0238
    5SAPS   H2X  568   2.604   2.107  10.288  1.0517  0.3159 -1.6705
    5SAPS   H2Y  569   2.453   2.017  10.325  1.1554 -0.0867  0.7889
    5SAPS   C23  570   2.944   1.810  10.022  0.2217  0.3227  0.1815
    5SAPS   H3R  571   2.847   1.757  10.032  0.7302 -0.2765  2.7024
    5SAPS   H3S  572   3.027   1.739  10.045  0.2440 -0.5149 -2.1547
    5SAPS   C24  573   2.985   1.851   9.880  0.4509  0.5180  0.3571
    5SAPS   H4R  574   3.027   1.768   9.821 -0.5156 -0.1294  0.5557
    5SAPS   H4S  575   3.073   1.919   9.886  0.8738  0.4500 -3.1129
    5SAPS   C25  576   2.873   1.919   9.807  0.1216  0.8559 -0.2622
    5SAPS   H5R  577   2.815   1.991   9.867 -1.2784  0.6050 -1.2707
    5SAPS   C26  578   2.826   1.883   9.687  0.6440 -0.1601  0.3093
    5SAPS   H6R  579   2.746   1.945   9.644  0.4935 -0.3558  0.3094
    5SAPS   C27  580   2.881   1.770   9.598  0.1632 -0.0116 -0.2043
    5SAPS   H7R  581   2.813   1.753   9.512  2.7300 -3.1538 -1.8063
    5SAPS   H7S  582   2.873   1.687   9.671 -1.0676  0.1125 -0.1818
    5SAPS   C28  583   3.019   1.777   9.544 -0.6101  0.8099 -0.6411
    5SAPS   H8R  584   3.094   1.832   9.603 -0.1576  0.4296 -0.8614
    5SAPS   C29  585   3.054   1.714   9.428 -0.0698  0.4601 -0.0408
    5SAPS   H9R  586   3.160   1.711   9.400  0.4222  1.8880  1.4764
    5SAPS  C210  587   2.961   1.629   9.338  0.4793 -0.7711 -0.3739
    5SAPS  H10R  588   2.873   1.693   9.317 -0.8632 -1.2424  3.1157
    5SAPS  H10S  589   2.925   1.544   9.400  1.9510 -3.7927 -3.3670
    5SAPS  C211  590   3.039   1.582   9.215  0.2949 -0.5513 -0.8667
    5SAPS  H11R  591   3.148   1.595   9.219  0.4610 -2.0759  1.0513
    5SAPS  C212  592   2.985   1.538   9.101 -0.2752 -0.0800 -0.3665
    5SAPS  H12R  593   3.045   1.474   9.034  0.7233 -2.0608  2.2391
    5SAPS  C213  594   2.834   1.518   9.073  0.3832 -0.0905  0.4616
    5SAPS  H13R  595   2.786   1.498   9.172  0.4317 -1.5238  0.2138
    5SAPS  H13S  596   2.817   1.430   9.008 -1.1185  0.1102  0.5520
    5SAPS  C214  597   2.775   1.647   9.015 -0.0402  0.6081 -0.4989
    5SAPS  H14R  598   2.780   1.739   9.074  0.5117 -0.5817  1.4231
    5SAPS  C215  599   2.720   1.665   8.893  0.8109 -0.0691 -0.0662
    5SAPS  H15R  600   2.690   1.769   8.870  2.6194  0.0272 -2.3856
    5SAPS  C216  601   2.699   1.571   8.778  0.1228 -0.0194 -0.7858
    5SAPS  H16R  602   2.684   1.472   8.826 -0.3877  0.4311  0.0020
    5SAPS  H16S  603   2.787   1.558   8.711  0.8705  2.8123 -0.5134
    5SAPS  C217  604   2.580   1.602   8.691 -0.7354  0.2698 -0.0382
    5SAPS  H17R  605   2.586   1.530   8.606 -0.3845  0.4763 -0.1918
    5SAPS  H17S  606   2.579   1.706   8.652  0.4247 -0.1881 -1.4018
    5SAPS  C218  607   2.448   1.582   8.763 -0.0662  0.0015  0.0595
    5SAPS  H18R  608   2.452   1.478   8.799  0.5671 -0.3181 -0.9028
    5SAPS  H18S  609   2.442   1.651   8.850  0.2400  1.5386 -1.0953
    5SAPS  C219  610   2.325   1.605   8.674 -0.5819 -0.2512  0.0681
    5SAPS  H19R  611   2.239   1.554   8.722  1.4869 -3.3039  0.8117
    5SAPS  H19S  612   2.347   1.560   8.575 -1.0437 -2.8142  1.0482
    5SAPS  C220  613   2.286   1.746   8.656  0.2845 -0.6695 -0.1088
    5SAPS  H20R  614   2.352   1.796   8.583 -1.5332 -1.1147 -2.1562
    5SAPS  H20S  615   2.299   1.807   8.748  0.5800  1.1058 -1.2755
    5SAPS  H20T  616   2.195   1.770   8.597  0.7215  3.0390  0.4733
    5SAPS   C33  617   2.511   2.039  10.111  0.0615 -0.3072  0.1396
    5SAPS   H3X  618   2.597   2.049  10.040  1.1541 -1.4010  1.2529
    5SAPS   H3Y  619   2.468   2.141  10.105  0.5258  0.0584  2.2641
    5SAPS   C34  620   2.416   1.927  10.059  0.7893  0.1848 -0.5351
    5SAPS   H4X  621   2.331   1.901  10.127 -0.3695 -0.4458 -2.1643
    5SAPS   H4Y  622   2.482   1.838  10.050 -0.3328 -0.6975 -0.2880
    5SAPS   C35  623   2.352   1.965   9.923 -0.0129  0.0355 -0.2414
    5SAPS   H5X  624   2.428   1.983   9.845  0.0728  1.0607  0.0576
    5SAPS   H5Y  625   2.291   2.058   9.933  0.4664  0.1693  2.0049
    5SAPS   C36  626   2.262   1.855   9.859 -0.2582 -0.2913  0.2336
    5SAPS   H6X  627   2.164   1.847   9.912 -0.2966 -1.9384 -0.0200
    5SAPS   H6Y  628   2.316   1.758   9.854 -1.1858 -0.8020 -0.2018
    5SAPS   C37  629   2.236   1.891   9.718  0.6014 -0.0596  0.1661
    5SAPS   H7X  630   2.330   1.888   9.659 -0.6022 -2.4719 -1.8239
    5SAPS   H7Y  631   2.192   1.992   9.724  1.2235  0.1294  2.1208
    5SAPS   C38  632   2.138   1.796   9.647 -0.1563 -0.6440 -0.5312
    5SAPS   H8X  633   2.035   1.834   9.664 -0.2013 -0.1392 -1.8327
    5SAPS   H8Y  634   2.161   1.698   9.695  1.0055  0.5714  1.5491
    5SAPS   C39  635   2.169   1.783   9.499  0.0209  0.0219  0.0482
    5SAPS   H9X  636   2.090   1.718   9.456  0.8679 -0.7241 -0.4083
    5SAPS   H9Y  637   2.267   1.734   9.485  0.3121  0.5257  0.2823
    5SAPS  C310  638   2.161   1.914   9.420  0.3634 -0.3583 -0.0948
    5SAPS  H10X  639   2.226   1.996   9.457  0.1210  0.8259 -2.1453
    5SAPS  H10Y  640   2.056   1.946   9.436  0.2590 -1.1573  0.8940
    5SAPS  C311  641   2.179   1.903   9.269  0.2004  0.5700 -0.6817
    5SAPS  H11X  642   2.110   1.823   9.234 -0.3141 -0.2495  1.9717
    5SAPS  H11Y  643   2.281   1.866   9.245  0.1437 -0.3659  0.4203
    5SAPS  C312  644   2.166   2.045   9.203 -0.2111 -0.1883  0.5235
    5SAPS  H12X  645   2.244   2.108   9.251  0.4185 -0.8195  0.3496
    5SAPS  H12Y  646   2.068   2.090   9.227 -1.7013 -2.2607 -1.2556
    5SAPS  C313  647   2.193   2.054   9.058  0.0430  0.3749 -0.3318
    5SAPS  H13X  648   2.132   2.131   9.006 -0.0946  0.2557 -0.3480
    5SAPS  H13Y  649   2.172   1.961   9.001  1.9380  0.0504 -0.5755
    5SAPS  C314  650   2.341   2.090   9.032 -0.0623  0.2054 -0.1961
    5SAPS  H14X  651   2.398   2.001   9.065 -0.0017  0.3512  0.0949
    5SAPS  H14Y  652   2.384   2.177   9.086 -0.0807  0.2675 -0.2806
    5SAPS  C315  653   2.374   2.105   8.886  0.1799  0.6187  1.1569
    5SAPS  H15X  654   2.366   2.009   8.830 -0.8602  0.9711  0.6757
    5SAPS  H15Y  655   2.480   2.134   8.876  0.2356 -0.1080 -0.6230
    5SAPS  C316  656   2.288   2.205   8.809 -0.0129  0.5618  0.5467
    5SAPS  H16X  657   2.306   2.307   8.849 -0.1034 -0.0076  2.0814
    5SAPS  H16Y  658   2.178   2.194   8.813  0.1408 -0.6820  1.9840
    5SAPS  C317  659   2.343   2.225   8.670  0.4887 -0.8599  0.5373
    5SAPS  H17X  660   2.318   2.138   8.607 -1.3605  0.2791 -0.3761
    5SAPS  H17Y  661   2.454   2.230   8.671  0.4600 -0.1059  0.3381
    5SAPS  C318  662   2.287   2.355   8.601  0.7417  0.3910 -1.2340
    5SAPS  H18X  663   2.177   2.343   8.589  0.3575 -0.8652  2.3473
    5SAPS  H18Y  664   2.350   2.367   8.510  2.4324 -1.0051 -0.3113
    5SAPS  H18Z  665   2.300   2.444   8.665 -1.3992 -0.5301  0.5986
    6SAPS     N  666   3.628   1.099  10.782 -0.0808 -0.0731  1.3555
    6SAPS   HN1  667   3.542   1.116  10.727  1.2279  1.5585 -0.3166
    6SAPS   HN2  668   3.659   1.190  10.820  3.0584  0.4552 -1.9155
    6SAPS   HN3  669   3.694   1.072  10.706 -0.9263  1.1577  0.1406
    6SAPS   C12  670   3.601   1.003  10.893  0.8466  0.2866  0.6902
    6SAPS  H12A  671   3.692   0.975  10.944  0.0306 -2.0060  1.0133
    6SAPS   C13  672   3.512   1.058  11.006  0.5311 -0.1074  0.5683
    6SAPS  O13A  673   3.463   1.178  10.991 -0.0617 -0.0830 -0.4107
    6SAPS  O13B  674   3.482   0.987  11.106  0.5550 -0.0976  0.2449
    6SAPS   C11  675   3.543   0.877  10.824  0.2673 -0.0531  0.1461
    6SAPS  H11A  676   3.529   0.801  10.904 -1.3458 -0.7775 -0.7703
    6SAPS  H11B  677   3.627   0.836  10.765  2.7362  0.1604  3.2778
    6SAPS     P  678   3.319   0.796  10.710 -0.0417 -0.2353  0.0556
    6SAPS   O13  679   3.370   0.665  10.756  0.0122 -0.7056 -0.3041
    6SAPS   O14  680   3.188   0.833  10.768 -0.3927 -0.3494 -0.2788
    6SAPS   O12  681   3.425   0.907  10.754 -0.5235 -0.1804 -0.4382
    6SAPS   O11  682   3.311   0.799  10.554 -0.3856 -0.5135 -0.3003
    6SAPS    C1  683   3.424   0.846  10.482 -0.3165  0.5886 -0.3958
    6SAPS    HA  684   3.434   0.957  10.474  1.8987  0.5566  1.1672
    6SAPS    HB  685   3.521   0.830  10.532 -0.1709  1.3879 -0.4028
    6SAPS    C2  686   3.425   0.789  10.337  0.3952  0.7883 -0.4723
    6SAPS    HS  687   3.501   0.839  10.273  2.2264  0.9294  1.7022
    6SAPS   O21  688   3.291   0.793  10.294  0.1354  0.4833 -0.0365
    6SAPS   C21  689   3.244   0.913  10.255 -0.0563 -0.1756  0.0403
    6SAPS   O22  690   3.304   1.018  10.254  0.4592  0.1312  0.4504
    6SAPS   C22  691   3.100   0.906  10.198  0.1632 -0.1802  0.3156
    6SAPS   H2R  692   3.026   0.921  10.279  1.4768  1.5020  1.2826
    6SAPS   H2S  693   3.086   0.984  10.120  2.1937 -1.3931 -1.3713
    6SAPS    C3  694   3.466   0.635  10.349  1.2077  0.3670 -0.1450
    6SAPS    HX  695   3.399   0.583  10.422 -0.9449  0.4373 -1.9607
    6SAPS    HY  696   3.570   0.641  10.387  1.8628 -0.4163 -1.7261
    6SAPS   O31  697   3.454   0.562  10.222 -0.7672 -0.1867 -0.3941
    6SAPS   C31  698   3.368   0.462  10.203 -0.6139  0.1893  0.1235
    6SAPS   O32  699   3.268   0.443  10.270  0.0069  0.4447  0.5923
    6SAPS   C32  700   3.402   0.392  10.070  0.0888 -0.3447 -0.2655
    6SAPS   H2X  701   3.499   0.340  10.082 -0.6158 -1.5029  0.5807
    6SAPS   H2Y  702   3.402   0.468   9.989  0.9505 -1.8872 -1.7521
    6SAPS   C23  703   3.078   0.780  10.112  0.7577  0.4104  1.1042
    6SAPS   H3R  704   2.973   0.750  10.130  1.2499 -1.7459  0.7230
    6SAPS   H3S  705   3.148   0.697  10.137 -1.0411 -1.6388 -0.2635
    6SAPS   C24  706   3.086   0.807   9.958  0.0793 -0.2169 -0.5826
    6SAPS   H4R  707   3.190   0.847   9.955  0.1096 -0.1183  1.0658
    6SAPS   H4S  708   3.018   0.892   9.936  0.9609  0.7355  0.2803
    6SAPS   C25  709   3.073   0.677   9.881  0.4625  0.1336  0.4966
    6SAPS   H5R  710   3.117   0.591   9.934  0.1309  0.1165  0.7522
    6SAPS   C26  711   3.000   0.642   9.768  0.2202 -0.2998 -0.4386
    6SAPS   H6R  712   2.997   0.540   9.729 -0.6866 -0.4928  0.0936
    6SAPS   C27  713   2.922   0.744   9.688  0.7140  0.6593 -0.0248
    6SAPS   H7R  714   2.985   0.756   9.597  0.6596  0.4399 -0.0912
    6SAPS   H7S  715   2.925   0.841   9.743 -0.3784  0.4759  0.3643
    6SAPS   C28  716   2.786   0.705   9.640 -0.3764 -0.8523 -0.1839
    6SAPS   H8R  717   2.702   0.764   9.679  0.1510  1.4980 -2.3041
    6SAPS   C29  718   2.763   0.622   9.534  0.4192 -0.3361  0.7861
    6SAPS   H9R  719   2.660   0.606   9.501 -0.1253  2.6014  0.7527
    6SAPS  C210  720   2.875   0.564   9.454  0.2877 -0.2727  0.0624
    6SAPS  H10R  721   2.871   0.454   9.435  1.0656 -0.0456 -1.6097
    6SAPS  H10S  722   2.973   0.577   9.505  1.2139  1.2068 -1.9632
    6SAPS  C211  723   2.881   0.642   9.322  0.4307  0.5309  0.6022
    6SAPS  H11R  724   2.848   0.747   9.321 -3.3023 -0.3612 -3.7372
    6SAPS  C212  725   2.918   0.590   9.198  0.1253  0.5261  0.5544
    6SAPS  H12R  726   2.919   0.652   9.107  0.2659 -0.0969  0.1238
    6SAPS  C213  727   2.971   0.451   9.164  0.0113  0.4725  0.4330
    6SAPS  H13R  728   2.928   0.427   9.065 -1.2332 -1.0370  1.2897
    6SAPS  H13S  729   2.926   0.378   9.235  1.1685  0.5234  1.2400
    6SAPS  C214  730   3.119   0.455   9.187  0.1880  0.3188 -0.2929
    6SAPS  H14R  731   3.157   0.477   9.287  0.3670 -1.8436  0.1551
    6SAPS  C215  732   3.207   0.445   9.092 -0.4129  0.3629  0.6061
    6SAPS  H15R  733   3.312   0.448   9.124 -0.0846  0.8072 -0.4491
    6SAPS  C216  734   3.186   0.417   8.946  0.7883 -0.1928 -0.4053
    6SAPS  H16R  735   3.209   0.509   8.888  0.7324 -0.0998 -0.2807
    6SAPS  H16S  736   3.080   0.396   8.920 -0.0139  2.4684  0.3379
    6SAPS  C217  737   3.274   0.302   8.897 -0.3045 -0.2727 -0.0424
    6SAPS  H17R  738   3.226   0.203   8.912 -0.3936 -0.0927  0.9140
    6SAPS  H17S  739   3.367   0.300   8.958 -0.0235 -0.7188 -0.4802
    6SAPS  C218  740   3.308   0.300   8.747 -0.1280 -0.0502  0.4376
    6SAPS  H18R  741   3.371   0.210   8.730  0.4319  0.2669  0.7709
    6SAPS  H18S  742   3.373   0.386   8.718  1.6374 -1.8216 -1.2049
    6SAPS  C219  743   3.182   0.293   8.655  0.7418  0.1388  0.1575
    6SAPS  H19R  744   3.108   0.357   8.707  1.2815  1.3625 -0.5324
    6SAPS  H19S  745   3.130   0.194   8.655  0.9765 -0.0444  2.6023
    6SAPS  C220  746   3.203   0.325   8.507  0.1583 -0.3742  0.0229
    6SAPS  H20R  747   3.287   0.397   8.512 -0.2760  0.1078  0.4767
    6SAPS  H20S  748   3.107   0.362   8.464  0.2498 -0.9420 -0.6849
    6SAPS  H20T  749   3.244   0.235   8.456  4.1549  0.2041  1.8657
    6SAPS   C33  750   3.304   0.276  10.031 -0.1381  0.4369  0.0295
    6SAPS   H3X  751   3.231   0.253  10.111  1.2641 -3.6329  0.3605
    6SAPS   H3Y  752   3.353   0.176  10.027 -1.0623 -0.0542  0.5480
    6SAPS   C34  753   3.213   0.279   9.903 -0.7508 -0.7436  0.8206
    6SAPS   H4X  754   3.123   0.338   9.930  0.8176  1.7779  0.8605
    6SAPS   H4Y  755   3.180   0.175   9.884 -1.1356 -0.7171  1.3489
    6SAPS   C35  756   3.283   0.328   9.772 -0.2568 -0.2945 -0.1052
    6SAPS   H5X  757   3.359   0.248   9.762 -1.3537 -1.0208 -4.0289
    6SAPS   H5Y  758   3.335   0.425   9.784  0.8428 -1.0014  1.1369
    6SAPS   C36  759   3.207   0.320   9.641  0.4705 -0.0817 -0.2541
    6SAPS   H6X  760   3.268   0.351   9.554 -0.1543  0.4808 -0.5039
    6SAPS   H6Y  761   3.124   0.395   9.644  0.8950  0.4690 -1.5482
    6SAPS   C37  762   3.140   0.186   9.603 -0.2502  0.0851  1.0070
    6SAPS   H7X  763   3.056   0.152   9.667 -0.5571  0.6625  0.9175
    6SAPS   H7Y  764   3.227   0.117   9.591 -0.2502  0.5273 -3.2049
    6SAPS   C38  765   3.091   0.197   9.458  0.5305  0.1743  0.1038
    6SAPS   H8X  766   3.172   0.229   9.389 -0.2165  0.5470 -0.6231
    6SAPS   H8Y  767   3.009   0.270   9.441 -2.3995 -3.1374 -1.3627
    6SAPS   C39  768   3.032   0.062   9.406 -0.1303  0.2386  0.0375
    6SAPS   H9X  769   2.966   0.032   9.490  0.6293  1.1616  0.9838
    6SAPS   H9Y  770   3.119  -0.006   9.390 -0.7529 -0.5681  0.0014
    6SAPS  C310  771   2.949   0.060   9.278 -0.4360  0.6300  0.0825
    6SAPS  H10X  772   2.880   0.147   9.279 -0.2002  0.8670 -1.4973
    6SAPS  H10Y  773   2.900  -0.039   9.270  1.5566 -0.3807 -0.4389
    6SAPS  C311  774   3.032   0.066   9.142  0.6093 -0.1066  0.2338
    6SAPS  H11X  775   3.090  -0.028   9.136  1.6673  0.6110 -1.6792
    6SAPS  H11Y  776   3.102   0.152   9.135  1.0564 -0.3720  1.2543
    6SAPS  C312  777   2.935   0.066   9.026  0.1066  0.0963 -0.2872
    6SAPS  H12X  778   2.929   0.168   8.981 -0.4653 -0.8545 -2.5121
    6SAPS  H12Y  779   2.837   0.042   9.073 -0.2212 -2.1299 -1.9618
    6SAPS  C313  780   2.966  -0.039   8.913  0.2397  0.0025 -0.3828
    6SAPS  H13X  781   2.940  -0.140   8.953 -0.5744  0.7377  1.0256
    6SAPS  H13Y  782   3.074  -0.037   8.887  0.7108 -2.9125  0.8731
    6SAPS  C314  783   2.874  -0.025   8.785 -0.1464  0.6114 -0.1023
    6SAPS  H14X  784   2.892   0.075   8.739 -0.9116  0.4557 -0.7742
    6SAPS  H14Y  785   2.768  -0.025   8.818  0.2602 -1.3525  1.3641
    6SAPS  C315  786   2.891  -0.124   8.671  0.1983 -0.4465  0.4188
    6SAPS  H15X  787   2.998  -0.124   8.643 -0.3912  0.3552 -2.0270
    6SAPS  H15Y  788   2.842  -0.094   8.577  1.0660 -0.0701  0.0781
    6SAPS  C316  789   2.848  -0.264   8.714 -0.2136  0.4888  0.2445
    6SAPS  H16X  790   2.740  -0.267   8.740  0.0583 -0.0904  1.3588
    6SAPS  H16Y  791   2.881  -0.295   8.815 -1.0421 -2.1860 -0.2395
    6SAPS  C317  792   2.873  -0.379   8.612 -0.5400  0.2630  0.0966
    6SAPS  H17X  793   2.958  -0.428   8.665  0.4804  2.5100  0.6482
    6SAPS  H17Y  794   2.925  -0.341   8.522 -0.7538 -0.3045 -0.2725
    6SAPS  C318  795   2.762  -0.474   8.560  0.0027 -0.6154  0.1636
    6SAPS  H18X  796   2.675  -0.409   8.534  0.0791 -0.6648 -0.2223
    6SAPS  H18Y  797   2.738  -0.538   8.647  1.3048  0.0929  1.0713
    6SAPS  H18Z  798   2.787  -0.543   8.477  2.1335  1.9969 -1.5538
    7SAPS     N  799   4.674   1.620  10.865 -0.3751  0.5338 -0.1330
    7SAPS   HN1  800   4.720   1.531  10.890 -0.7668 -0.4125 -2.5898
    7SAPS   HN2  801   4.647   1.674  10.950  1.8065 -1.7254  2.1928
    7SAPS   HN3  802   4.599   1.586  10.803  1.0676 -1.1828 -1.0270
    7SAPS   C12  803   4.770   1.695  10.781 -0.0319 -0.5896  0.4306
    7SAPS  H12A  804   4.728   1.788  10.749  2.0767  1.3712  2.9010
    7SAPS   C13  805   4.910   1.714  10.838  0.1818 -0.0379 -1.0256
    7SAPS  O13A  806   4.923   1.680  10.962  0.0506  0.0210  0.0827
    7SAPS  O13B  807   5.006   1.768  10.779  0.0194 -0.3487  0.1239
    7SAPS   C11  808   4.788   1.610  10.653 -1.1068  0.4511 -0.2062
    7SAPS  H11A  809   4.858   1.657  10.581 -2.3718  0.3016 -1.5990
    7SAPS  H11B  810   4.688   1.595  10.607 -0.9250 -0.5121 -0.3065
    7SAPS     P  811   4.937   1.386  10.621  0.1697 -0.2125  0.1849
    7SAPS   O13  812   5.078   1.437  10.644 -0.5097  0.1641  0.0184
    7SAPS   O14  813   4.907   1.249  10.670  0.1145  0.4150 -0.7131
    7SAPS   O12  814   4.839   1.481  10.695  0.7985 -0.2013  0.1932
    7SAPS   O11  815   4.915   1.389  10.466  0.0458 -0.2260  0.3707
    7SAPS    C1  816   4.806   1.309  10.414 -0.1634  0.7057 -0.4394
    7SAPS    HA  817   4.851   1.215  10.376  0.1237 -0.0986  1.7376
    7SAPS    HB  818   4.727   1.280  10.487  0.6938  0.6921  0.5164
    7SAPS    C2  819   4.737   1.376  10.289 -0.7707 -0.0250 -0.4408
    7SAPS    HS  820   4.652   1.308  10.265  1.4595 -1.9345 -3.8090
    7SAPS   O21  821   4.829   1.392  10.180  0.4092  0.4778  0.1505
    7SAPS   C21  822   4.861   1.275  10.122 -0.3560 -0.7376 -1.1196
    7SAPS   O22  823   4.800   1.169  10.141 -0.1237 -0.3286  0.4076
    7SAPS   C22  824   4.970   1.296  10.019 -0.2869 -0.1975  0.4532
    7SAPS   H2R  825   4.927   1.357   9.936 -1.7936  1.6573  2.4671
    7SAPS   H2S  826   5.049   1.362  10.062 -1.6499  0.7415  1.6152
    7SAPS    C3  827   4.679   1.511  10.326  0.0881  0.5761 -0.6692
    7SAPS    HX  828   4.766   1.578  10.337  0.5743 -0.0003 -0.9561
    7SAPS    HY  829   4.627   1.507  10.424  1.6921  1.3894  0.2469
    7SAPS   O31  830   4.588   1.545  10.225 -0.3323 -0.5182 -0.3272
    7SAPS   C31  831   4.536   1.667  10.243  0.0170 -0.8307  0.3255
    7SAPS   O32  832   4.559   1.743  10.334  0.2698  0.1168  0.4116
    7SAPS   C32  833   4.435   1.699  10.130 -0.1558  0.0583 -0.3537
    7SAPS   H2X  834   4.333   1.723  10.167 -1.1496  1.1546 -3.4654
    7SAPS   H2Y  835   4.417   1.614  10.060  2.2706 -0.0859 -0.8848
    7SAPS   C23  836   5.025   1.167   9.960 -0.4512  0.4992 -1.2526
    7SAPS   H3R  837   4.942   1.096   9.939 -0.2475 -0.2048  0.2343
    7SAPS   H3S  838   5.090   1.118  10.035 -2.7450 -0.0732  0.4447
    7SAPS   C24  839   5.106   1.188   9.833 -0.0734  0.6167  0.3483
    7SAPS   H4R  840   5.174   1.272   9.856 -1.5114  1.4534  1.7893
    7SAPS   H4S  841   5.037   1.216   9.751  0.0325  0.3791  0.1783
    7SAPS   C25  842   5.183   1.066   9.801 -0.3425  0.0926  1.0140
    7SAPS   H5R  843   5.265   1.045   9.870 -0.7166 -3.3165  0.5910
    7SAPS   C26  844   5.180   0.984   9.687 -0.0904 -0.6004 -0.0066
    7SAPS   H6R  845   5.251   0.901   9.679  0.4111 -0.2513  0.7442
    7SAPS   C27  846   5.087   1.016   9.570 -0.7584  0.4358 -0.2213
    7SAPS   H7R  847   5.028   1.108   9.592  0.5619  0.7698  2.1907
    7SAPS   H7S  848   5.010   0.936   9.578  0.4444 -0.7926 -0.6625
    7SAPS   C28  849   5.155   1.019   9.433 -0.4271 -0.9846 -0.9568
    7SAPS   H8R  850   5.249   1.076   9.437 -0.1647 -1.4887  0.2099
    7SAPS   C29  851   5.113   0.980   9.313  0.2718  0.3953  0.2370
    7SAPS   H9R  852   5.181   0.989   9.227 -1.0234 -2.9742 -1.3076
    7SAPS  C210  853   4.980   0.911   9.290 -0.9731 -0.0125  0.2288
    7SAPS  H10R  854   4.917   0.911   9.382 -2.3852  1.5103 -0.6629
    7SAPS  H10S  855   5.006   0.810   9.254 -0.2738  0.2531 -0.0320
    7SAPS  C211  856   4.894   0.991   9.201 -1.1540 -0.3103  0.6471
    7SAPS  H11R  857   4.887   1.098   9.228  0.4662 -0.0617  0.2011
    7SAPS  C212  858   4.818   0.941   9.098  0.1504 -1.0406 -0.5663
    7SAPS  H12R  859   4.775   1.011   9.024 -0.8109 -0.1865  0.7626
    7SAPS  C213  860   4.822   0.793   9.076  0.2118  0.4170 -0.1679
    7SAPS  H13R  861   4.821   0.732   9.168 -1.2577 -0.5443 -0.7744
    7SAPS  H13S  862   4.920   0.763   9.032  1.2453  0.9828  1.6357
    7SAPS  C214  863   4.713   0.751   8.984  0.2522 -1.0009 -0.1183
    7SAPS  H14R  864   4.615   0.741   9.033  0.9995  0.0027  1.6349
    7SAPS  C215  865   4.727   0.721   8.859  0.4630  0.1920  0.4585
    7SAPS  H15R  866   4.638   0.691   8.801  0.0276 -0.4268  1.4204
    7SAPS  C216  867   4.858   0.729   8.782 -0.3054  0.4035 -0.0484
    7SAPS  H16R  868   4.937   0.664   8.825 -0.7513 -1.5973 -2.0503
    7SAPS  H16S  869   4.907   0.828   8.798  2.0597 -1.0316  2.5336
    7SAPS  C217  870   4.839   0.671   8.640  0.0423  0.4035  0.6118
    7SAPS  H17R  871   4.789   0.752   8.583 -1.8801  0.2000  1.8914
    7SAPS  H17S  872   4.768   0.586   8.641  0.1317  0.2578 -1.6545
    7SAPS  C218  873   4.968   0.635   8.564 -0.6245 -0.0933 -0.3908
    7SAPS  H18R  874   5.041   0.579   8.626 -2.0748  0.2569  1.7122
    7SAPS  H18S  875   5.023   0.728   8.539 -1.1994 -0.0123 -1.4442
    7SAPS  C219  876   4.956   0.583   8.425 -0.1995 -0.4479  0.1002
    7SAPS  H19R  877   4.895   0.647   8.358  0.3546 -0.7063 -0.6621
    7SAPS  H19S  878   4.906   0.484   8.433 -2.2303  0.6651  2.8353
    7SAPS  C220  879   5.088   0.576   8.343  0.9273  0.3922 -0.5780
    7SAPS  H20R  880   5.158   0.501   8.387  1.6873  1.8570  0.8292
    7SAPS  H20S  881   5.147   0.668   8.324  2.9064 -1.0942 -2.1452
    7SAPS  H20T  882   5.067   0.540   8.240  2.5390  0.4600 -0.9596
    7SAPS   C33  883   4.487   1.819  10.051  0.4705  0.7829  0.6726
    7SAPS   H3X  884   4.585   1.794  10.005 -0.1706 -0.2745 -0.1970
    7SAPS   H3Y  885   4.511   1.907  10.114  2.2172 -0.1308  1.3440
    7SAPS   C34  886   4.390   1.858   9.935 -0.7057  0.6456 -0.3766
    7SAPS   H4X  887   4.403   1.965   9.907  1.3124  1.0314  1.7101
    7SAPS   H4Y  888   4.283   1.847   9.966 -1.5710  2.8512 -2.2981
    7SAPS   C35  889   4.417   1.767   9.812  0.3913 -0.0566  0.3656
    7SAPS   H5X  890   4.420   1.659   9.836  0.5215  0.4762  3.0337
    7SAPS   H5Y  891   4.519   1.795   9.780  0.3265  0.6424  0.7356
    7SAPS   C36  892   4.313   1.789   9.706  0.9135  0.4146 -0.1848
    7SAPS   H6X  893   4.293   1.894   9.676 -2.4610  0.2842  1.1607
    7SAPS   H6Y  894   4.217   1.755   9.749  1.7667 -0.1286  1.3865
    7SAPS   C37  895   4.334   1.716   9.570  0.4251  0.0739 -0.2221
    7SAPS   H7X  896   4.359   1.608   9.580 -0.7105 -0.1620  0.2631
    7SAPS   H7Y  897   4.413   1.767   9.510  0.5044 -1.9892 -2.0025
    7SAPS   C38  898   4.201   1.724   9.495 -0.8036 -0.2679  0.5135
    7SAPS   H8X  899   4.171   1.831   9.493  0.8945  0.2219 -1.0713
    7SAPS   H8Y  900   4.133   1.665   9.560 -1.3501  1.0676  1.1823
    7SAPS   C39  901   4.201   1.673   9.346  0.5366  0.0988 -0.4320
    7SAPS   H9X  902   4.259   1.579   9.338  0.7498  0.2398 -0.5684
    7SAPS   H9Y  903   4.267   1.734   9.280  2.6204 -1.5157  0.0252
    7SAPS  C310  904   4.065   1.660   9.287  0.3770 -0.8471 -0.4517
    7SAPS  H10X  905   4.030   1.757   9.243  2.0358  0.0310  0.0990
    7SAPS  H10Y  906   3.995   1.621   9.364  0.9002  2.2901  1.8280
    7SAPS  C311  907   4.074   1.556   9.170 -0.2283  1.0436  0.3506
    7SAPS  H11X  908   3.972   1.529   9.136 -0.1086 -1.4264  1.7502
    7SAPS  H11Y  909   4.122   1.468   9.218 -2.1760  0.3216  1.0736
    7SAPS  C312  910   4.160   1.600   9.055  0.4618  0.0297 -0.3112
    7SAPS  H12X  911   4.267   1.614   9.082  1.2143  1.4815 -3.5787
    7SAPS  H12Y  912   4.116   1.699   9.032  0.1024  0.2323  1.1497
    7SAPS  C313  913   4.159   1.504   8.941 -0.0562 -0.0456  0.6479
    7SAPS  H13X  914   4.057   1.463   8.928 -0.2520  0.6850 -0.1229
    7SAPS  H13Y  915   4.227   1.417   8.959 -0.7945 -0.4362  1.6650
    7SAPS  C314  916   4.214   1.561   8.813  0.5931 -0.4798 -0.4250
    7SAPS  H14X  917   4.215   1.491   8.727  2.0914 -0.4623 -0.4368
    7SAPS  H14Y  918   4.318   1.595   8.830  0.6404  1.8789 -4.2778
    7SAPS  C315  919   4.144   1.694   8.766  0.2040 -0.8288  0.0433
    7SAPS  H15X  920   4.039   1.685   8.801 -0.3412  2.7638 -0.3218
    7SAPS  H15Y  921   4.131   1.684   8.657 -1.8406 -0.9797  0.2607
    7SAPS  C316  922   4.201   1.836   8.795  0.0370 -0.1141  0.0628
    7SAPS  H16X  923   4.307   1.847   8.763 -0.3403  1.5473 -0.7595
    7SAPS  H16Y  924   4.200   1.838   8.906  1.4735 -2.2340  0.1580
    7SAPS  C317  925   4.118   1.951   8.735 -0.5154  0.6265  0.0256
    7SAPS  H17X  926   4.027   1.980   8.792  0.0048 -1.7045  2.2132
    7SAPS  H17Y  927   4.090   1.922   8.632 -0.9235 -1.7020  0.7226
    7SAPS  C318  928   4.211   2.076   8.730 -0.3418 -0.1019  0.5767
    7SAPS  H18X  929   4.151   2.162   8.693 -0.4552 -0.5735 -0.3632
    7SAPS  H18Y  930   4.293   2.056   8.658 -0.2420  1.2656  0.2734
    7SAPS  H18Z  931   4.240   2.099   8.835 -0.9496 -1.1605  0.9906
    8SAPS     N  932   3.410   2.943  10.918  0.1024  0.1356 -0.2356
    8SAPS   HN1  933   3.403   2.993  11.010  0.5973  2.3581 -1.3411
    8SAPS   HN2  934   3.501   2.895  10.926 -0.9509 -1.8223  0.7236
    8SAPS   HN3  935   3.403   3.014  10.843 -0.3102 -1.1120 -1.4003
    8SAPS   C12  936   3.314   2.839  10.899  0.2693 -0.4293  0.0851
    8SAPS  H12A  937   3.329   2.793  10.802  0.4184 -2.0718  0.8488
    8SAPS   C13  938   3.309   2.727  11.005 -0.3261  0.3146 -0.1725
    8SAPS  O13A  939   3.360   2.747  11.120 -0.1417 -0.0196  0.5057
    8SAPS  O13B  940   3.232   2.633  10.984  0.3727  0.3782  0.5392
    8SAPS   C11  941   3.171   2.918  10.894 -0.0286 -1.0895 -0.1030
    8SAPS  H11A  942   3.142   2.943  10.998  0.0179 -0.3764 -0.2558
    8SAPS  H11B  943   3.092   2.849  10.859  0.3245 -1.7024  0.3000
    8SAPS     P  944   3.035   3.112  10.782  0.0083 -0.0173  0.2237
    8SAPS   O13  945   2.916   3.037  10.833  0.3250  0.1058  0.1001
    8SAPS   O14  946   3.053   3.251  10.832 -0.3348  0.4458  0.0819
    8SAPS   O12  947   3.167   3.040  10.817 -0.7327 -0.5432 -0.1892
    8SAPS   O11  948   3.030   3.118  10.625  0.4263 -0.4238 -0.1099
    8SAPS    C1  949   3.135   3.187  10.559 -0.4600  0.3090  0.0975
    8SAPS    HA  950   3.105   3.293  10.541  3.8483  1.5759 -0.9668
    8SAPS    HB  951   3.236   3.178  10.606 -1.2421 -0.6986  1.6483
    8SAPS    C2  952   3.154   3.136  10.417  0.2596  0.5070  0.0069
    8SAPS    HS  953   3.072   3.192  10.366  2.0397  0.6268 -2.9894
    8SAPS   O21  954   3.141   2.990  10.412 -0.1222 -0.3419  0.3346
    8SAPS   C21  955   3.016   2.947  10.383  0.6624  0.2873 -1.1737
    8SAPS   O22  956   2.935   3.015  10.327  0.3320 -0.0251 -0.1485
    8SAPS   C22  957   2.996   2.802  10.400 -0.3988  0.2208 -0.4481
    8SAPS   H2R  958   3.077   2.758  10.462 -2.1320 -2.1538  0.3134
    8SAPS   H2S  959   2.902   2.787  10.458  0.6867 -3.1764  0.6980
    8SAPS    C3  960   3.289   3.173  10.351 -0.4154  0.4926  0.0890
    8SAPS    HX  961   3.296   3.143  10.244  1.2412  0.4821  0.1665
    8SAPS    HY  962   3.366   3.106  10.393  0.9918  1.8366 -0.2403
    8SAPS   O31  963   3.321   3.315  10.355  0.2485 -0.0037 -0.3919
    8SAPS   C31  964   3.432   3.355  10.423 -0.8591 -0.1353  0.4692
    8SAPS   O32  965   3.509   3.280  10.479  0.0724 -0.5039  0.1967
    8SAPS   C32  966   3.456   3.506  10.413  0.7032 -0.3156 -0.2725
    8SAPS   H2X  967   3.516   3.533  10.502  0.9947 -1.0604 -0.2313
    8SAPS   H2Y  968   3.366   3.571  10.411  1.6850  1.1005 -0.7151
    8SAPS   C23  969   2.991   2.742  10.256 -0.2919  0.2554 -0.2149
    8SAPS   H3R  970   2.937   2.803  10.181 -1.1946 -1.2890 -0.8799
    8SAPS   H3S  971   2.924   2.655  10.273 -1.1629  0.7478 -1.0243
    8SAPS   C24  972   3.130   2.683  10.207  0.4110 -0.1571  0.0229
    8SAPS   H4R  973   3.109   2.622  10.117  3.1982 -2.5633  0.8566
    8SAPS   H4S  974   3.168   2.604  10.275  0.7973  0.2407  0.2811
    8SAPS   C25  975   3.229   2.794  10.181  0.3766  0.1090 -0.6904
    8SAPS   H5R  976   3.302   2.804  10.263 -1.6163 -1.2319  1.4014
    8SAPS   C26  977   3.234   2.873  10.073  0.2212  0.3239  0.2860
    8SAPS   H6R  978   3.314   2.948  10.066  0.0002  0.4979 -0.3985
    8SAPS   C27  979   3.138   2.859   9.954 -0.2502 -0.3504 -0.3272
    8SAPS   H7R  980   3.098   2.755   9.947  0.3433 -0.5453 -0.9307
    8SAPS   H7S  981   3.191   2.870   9.857  1.1302  1.0943  0.5453
    8SAPS   C28  982   3.024   2.954   9.967 -0.3433  0.6953 -0.6832
    8SAPS   H8R  983   3.019   3.008  10.062 -0.7682  0.1270 -0.3781
    8SAPS   C29  984   2.919   2.975   9.879  0.3147  0.0018 -0.3779
    8SAPS   H9R  985   2.840   3.042   9.916  1.3513  0.4067  1.2364
    8SAPS  C210  986   2.908   2.908   9.747  0.7148  0.9572  0.2509
    8SAPS  H10R  987   2.819   2.842   9.748  2.6913 -2.1363 -2.9544
    8SAPS  H10S  988   2.993   2.841   9.723 -0.5589 -0.1193 -1.5192
    8SAPS  C211  989   2.901   3.006   9.623  0.3795 -0.2907  0.3558
    8SAPS  H11R  990   2.935   3.109   9.641 -1.0779  0.0561  1.3402
    8SAPS  C212  991   2.873   2.962   9.501  1.0125 -1.2271  0.2865
    8SAPS  H12R  992   2.866   3.032   9.416  3.2543 -1.5616 -0.2294
    8SAPS  C213  993   2.838   2.822   9.459  0.6571 -0.1581 -0.1456
    8SAPS  H13R  994   2.742   2.806   9.404 -1.2649 -0.2702  2.9647
    8SAPS  H13S  995   2.828   2.756   9.548  1.0911  0.0446  0.0561
    8SAPS  C214  996   2.957   2.770   9.386 -0.9008 -0.0293  0.1663
    8SAPS  H14R  997   3.049   2.827   9.407 -0.9081  1.0773 -2.3583
    8SAPS  C215  998   2.964   2.697   9.276 -0.1198 -0.2968  0.3283
    8SAPS  H15R  999   3.059   2.669   9.228 -1.3042 -1.9523 -1.1709
    8SAPS  C216 1000   2.852   2.637   9.199  0.0929  0.5199  0.4023
    8SAPS  H16R 1001   2.774   2.712   9.171 -0.0980 -0.9904 -3.8796
    8SAPS  H16S 1002   2.805   2.551   9.252  2.1926  0.1554  1.8018
    8SAPS  C217 1003   2.904   2.580   9.061 -0.4880 -0.2415 -0.7966
    8SAPS  H17R 1004   2.957   2.483   9.072 -0.8959 -0.6988 -2.5654
    8SAPS  H17S 1005   2.975   2.648   9.010  0.3812  0.6972  1.5138
    8SAPS  C218 1006   2.779   2.557   8.974  0.2592  0.4955 -0.4235
    8SAPS  H18R 1007   2.710   2.643   8.983 -0.1755  0.3325 -1.9046
    8SAPS  H18S 1008   2.730   2.465   9.013  0.4467 -0.8566 -3.1057
    8SAPS  C219 1009   2.807   2.525   8.823  0.3917 -0.2542 -0.5971
    8SAPS  H19R 1010   2.879   2.441   8.818 -0.2826 -0.8436 -0.5427
    8SAPS  H19S 1011   2.840   2.616   8.768 -1.0282 -0.3141 -1.5808
    8SAPS  C220 1012   2.678   2.479   8.748  0.5429 -0.8723  0.4842
    8SAPS  H20R 1013   2.664   2.369   8.740  0.5320 -0.8091 -0.4511
    8SAPS  H20S 1014   2.661   2.524   8.648 -1.4087  1.1473  1.6371
    8SAPS  H20T 1015   2.596   2.527   8.805  0.1228 -1.5391  0.4489
    8SAPS   C33 1016   3.554   3.538  10.296  0.4726  0.2011  0.4036
    8SAPS   H3X 1017   3.646   3.477  10.304  0.0669 -0.2108  3.1279
    8SAPS   H3Y 1018   3.586   3.644  10.293 -2.9883  1.3789 -2.4736
    8SAPS   C34 1019   3.498   3.507  10.158  0.7751  0.2904  0.3205
    8SAPS   H4X 1020   3.400   3.559  10.146 -0.5697 -2.5367 -2.2959
    8SAPS   H4Y 1021   3.489   3.397  10.148 -0.2132  0.5107 -1.8438
    8SAPS   C35 1022   3.606   3.544  10.051  0.5054 -0.0042  0.0667
    8SAPS   H5X 1023   3.711   3.507  10.057 -0.0205 -2.2102 -2.4647
    8SAPS   H5Y 1024   3.614   3.654  10.036 -2.2406 -0.0033 -2.2882
    8SAPS   C36 1025   3.554   3.499   9.905  0.6345  0.8837 -0.5161
    8SAPS   H6X 1026   3.449   3.532   9.894  0.4301  0.2339 -0.5627
    8SAPS   H6Y 1027   3.567   3.389   9.889  0.2657  0.2081  2.9940
    8SAPS   C37 1028   3.628   3.563   9.785 -0.6584  0.0158  0.4007
    8SAPS   H7X 1029   3.739   3.552   9.786 -0.3073  2.5977 -1.3539
    8SAPS   H7Y 1030   3.624   3.673   9.796  2.2744  0.4699 -1.8430
    8SAPS   C38 1031   3.580   3.507   9.649  0.3821  0.1480 -0.0826
    8SAPS   H8X 1032   3.471   3.496   9.666  0.0716  3.4933  0.6384
    8SAPS   H8Y 1033   3.625   3.407   9.631 -1.4026 -0.6091 -0.4855
    8SAPS   C39 1034   3.612   3.612   9.544 -0.8264 -0.5262  0.6590
    8SAPS   H9X 1035   3.723   3.616   9.537 -0.6830 -3.1898  0.2214
    8SAPS   H9Y 1036   3.566   3.711   9.563 -0.2262 -0.6272  2.9797
    8SAPS  C310 1037   3.578   3.567   9.390 -0.2802 -0.4646 -0.2723
    8SAPS  H10X 1038   3.641   3.483   9.356 -0.4413 -0.4197 -0.6870
    8SAPS  H10Y 1039   3.620   3.651   9.331 -1.1700 -1.0942 -1.8806
    8SAPS  C311 1040   3.432   3.556   9.360 -0.3273 -0.0664  0.4842
    8SAPS  H11X 1041   3.368   3.639   9.395  0.5561  2.0783 -2.5748
    8SAPS  H11Y 1042   3.405   3.467   9.421  1.9176 -1.0746  0.1307
    8SAPS  C312 1043   3.428   3.539   9.211  1.2006  0.4851 -0.7860
    8SAPS  H12X 1044   3.470   3.438   9.187 -1.4275 -0.9557  0.2618
    8SAPS  H12Y 1045   3.496   3.605   9.154  2.5263 -0.8460 -0.8230
    8SAPS  C313 1046   3.285   3.544   9.165  0.5418  0.2568 -0.9875
    8SAPS  H13X 1047   3.253   3.648   9.183  0.8521  0.2179 -0.1630
    8SAPS  H13Y 1048   3.220   3.482   9.230  1.1517  0.7782  0.1534
    8SAPS  C314 1049   3.264   3.507   9.010  0.5952 -0.2058 -0.4471
    8SAPS  H14X 1050   3.278   3.396   9.012  1.9253 -0.0540  1.7290
    8SAPS  H14Y 1051   3.335   3.553   8.938  1.1392 -3.0537 -1.8837
    8SAPS  C315 1052   3.120   3.543   8.977 -0.0576  0.5176 -0.6464
    8SAPS  H15X 1053   3.100   3.652   8.974  2.7056  1.1119 -0.3159
    8SAPS  H15Y 1054   3.058   3.508   9.063  1.2138  0.9894  0.5053
    8SAPS  C316 1055   3.053   3.485   8.848 -0.5428 -0.0565  0.4092
    8SAPS  H16X 1056   3.099   3.523   8.755 -1.1660  0.4901  0.3151
    8SAPS  H16Y 1057   2.950   3.529   8.851 -0.5006  0.0633  0.0573
    8SAPS  C317 1058   3.029   3.335   8.849 -0.3959  0.2659 -0.2864
    8SAPS  H17X 1059   2.998   3.317   8.954  0.0879  1.5744  0.0961
    8SAPS  H17Y 1060   3.133   3.296   8.836 -0.2214 -0.2368  2.0813
    8SAPS  C318 1061   2.928   3.291   8.747  0.4212  0.7980  0.9408
    8SAPS  H18X 1062   2.834   3.346   8.768  0.5600  2.0699 -1.4606
    8SAPS  H18Y 1063   2.888   3.188   8.759 -2.3171  1.6210 -0.3440
    8SAPS  H18Z 1064   2.957   3.303   8.641  1.2096 -0.2648  1.0113
    9SAPS     N 1065   0.356   3.868   6.298  0.4571  0.1092 -0.1537
    9SAPS   HN1 1066   0.256   3.892   6.314  0.7014  1.0504 -0.0002
    9SAPS   HN2 1067   0.391   3.830   6.388  0.3658  0.9115  0.2200
    9SAPS   HN3 1068   0.415   3.951   6.281 -1.0925  1.0595 -1.1410
    9SAPS   C12 1069   0.359   3.783   6.175 -0.0983  0.5597 -0.5638
    9SAPS  H12A 1070   0.318   3.844   6.097 -0.5899  2.0888  0.8315
    9SAPS   C13 1071   0.494   3.721   6.136  0.0271 -0.4787 -0.0896
    9SAPS  O13A 1072   0.588   3.724   6.218 -0.0763 -0.3240  0.2078
    9SAPS  O13B 1073   0.504   3.645   6.035  0.1526  0.2079 -0.0565
    9SAPS   C11 1074   0.249   3.668   6.200 -0.6114 -0.2743 -0.0121
    9SAPS  H11A 1075   0.287   3.603   6.282 -0.1468  0.1176  0.0839
    9SAPS  H11B 1076   0.238   3.606   6.108  1.5460 -1.3893  0.4271
    9SAPS     P 1077  -0.011   3.715   6.161  0.4366  0.2046 -0.1147
    9SAPS   O13 1078   0.015   3.715   6.016 -0.1037  0.2633 -0.0641
    9SAPS   O14 1079  -0.083   3.597   6.204  0.4208  0.4659  0.4235
    9SAPS   O12 1080   0.129   3.724   6.244 -0.0030  0.0510 -0.4455
    9SAPS   O11 1081  -0.091   3.838   6.214 -0.3910 -0.1443  0.3061
    9SAPS    C1 1082  -0.028   3.961   6.236 -0.1425  0.1721  0.2882
    9SAPS    HA 1083   0.083   3.957   6.237 -0.1002  0.7842 -0.6005
    9SAPS    HB 1084  -0.049   4.027   6.149 -1.1595  1.2934  1.3430
    9SAPS    C2 1085  -0.077   4.025   6.368 -0.8241 -0.4200 -0.0574
    9SAPS    HS 1086  -0.017   4.118   6.384  0.2272 -1.2080  0.7683
    9SAPS   O21 1087  -0.074   3.924   6.476  0.5509 -0.5493 -0.0866
    9SAPS   C21 1088   0.045   3.879   6.506 -0.5492 -0.1124  0.3134
    9SAPS   O22 1089   0.152   3.929   6.478 -0.1938 -0.1041  0.0356
    9SAPS   C22 1090   0.021   3.755   6.591  0.0416  0.0167 -0.4135
    9SAPS   H2R 1091  -0.030   3.787   6.684  0.2812 -0.7626 -0.0027
    9SAPS   H2S 1092  -0.053   3.694   6.535 -0.2593 -0.9145  0.9467
    9SAPS    C3 1093  -0.220   4.072   6.360  1.1504  0.5881  0.2577
    9SAPS    HX 1094  -0.272   3.979   6.331  1.5206  1.3309 -3.2391
    9SAPS    HY 1095  -0.223   4.142   6.273  0.1547  1.0687  0.6596
    9SAPS   O31 1096  -0.269   4.130   6.485  0.2429  0.0635  0.2536
    9SAPS   C31 1097  -0.230   4.256   6.513  0.1992  0.4814 -0.7328
    9SAPS   O32 1098  -0.144   4.313   6.454  0.1961 -0.4030 -0.2507
    9SAPS   C32 1099  -0.306   4.296   6.642  0.3488 -0.1258 -0.5556
    9SAPS   H2X 1100  -0.259   4.234   6.722 -1.7385  0.0710  0.9155
    9SAPS   H2Y 1101  -0.414   4.272   6.632 -0.1064  0.6688  1.7323
    9SAPS   C23 1102   0.141   3.664   6.611  0.7265 -0.2040 -0.4941
    9SAPS   H3R 1103   0.226   3.710   6.666  0.3914  1.8444 -1.5724
    9SAPS   H3S 1104   0.166   3.639   6.506 -1.6521  1.6372 -1.5838
    9SAPS   C24 1105   0.088   3.536   6.689 -0.2473 -0.2769  1.2984
    9SAPS   H4R 1106   0.170   3.461   6.684  2.1176  2.1815  1.0440
    9SAPS   H4S 1107  -0.009   3.507   6.645 -0.9498  1.0462  1.9213
    9SAPS   C25 1108   0.063   3.561   6.831  0.8125 -0.6336  0.4902
    9SAPS   H5R 1109  -0.045   3.571   6.852  0.5012  1.1431 -1.6104
    9SAPS   C26 1110   0.151   3.581   6.931  0.5811 -0.0233  0.1056
    9SAPS   H6R 1111   0.101   3.597   7.028  3.3555  1.1800  1.4579
    9SAPS   C27 1112   0.301   3.584   6.945  0.1799  0.4835 -0.3627
    9SAPS   H7R 1113   0.346   3.572   6.845 -1.3496 -0.1717 -1.0114
    9SAPS   H7S 1114   0.339   3.499   7.006 -3.3409 -2.1464 -1.4678
    9SAPS   C28 1115   0.339   3.710   7.017  0.2280 -0.4374  0.6776
    9SAPS   H8R 1116   0.338   3.796   6.949  0.3701 -1.2921 -0.4262
    9SAPS   C29 1117   0.372   3.732   7.148  0.4005 -0.2411  0.1707
    9SAPS   H9R 1118   0.407   3.832   7.177  1.0649 -0.7517  1.1879
    9SAPS  C210 1119   0.363   3.631   7.252  0.7579 -0.8499 -0.2161
    9SAPS  H10R 1120   0.419   3.541   7.218 -0.0714 -0.9756 -1.3086
    9SAPS  H10S 1121   0.262   3.588   7.270  0.2024  0.4059 -0.2506
    9SAPS  C211 1122   0.405   3.677   7.388  0.4894  0.3060  0.1435
    9SAPS  H11R 1123   0.398   3.786   7.403  0.9957  0.1392  1.8606
    9SAPS  C212 1124   0.467   3.597   7.482  0.5799 -0.0248 -0.0366
    9SAPS  H12R 1125   0.495   3.626   7.585  0.4406  1.7693 -0.4812
    9SAPS  C213 1126   0.482   3.447   7.464 -0.0753 -0.5862  0.0886
    9SAPS  H13R 1127   0.588   3.418   7.478  0.1224 -0.2053 -0.5841
    9SAPS  H13S 1128   0.471   3.411   7.360  2.6235 -1.7780  0.1283
    9SAPS  C214 1129   0.392   3.354   7.552  0.0084 -0.1114  0.5317
    9SAPS  H14R 1130   0.332   3.288   7.488 -1.4169 -0.2598  1.9657
    9SAPS  C215 1131   0.386   3.338   7.680 -1.4959 -0.2420 -0.1767
    9SAPS  H15R 1132   0.320   3.262   7.724 -1.6278  0.9469  1.8291
    9SAPS  C216 1133   0.455   3.419   7.790  0.5019 -0.4666  0.3438
    9SAPS  H16R 1134   0.545   3.476   7.757  0.2510 -1.1789 -1.6556
    9SAPS  H16S 1135   0.492   3.349   7.868  0.0089 -0.3354  0.7065
    9SAPS  C217 1136   0.343   3.508   7.848  0.6638 -0.1585  0.0946
    9SAPS  H17R 1137   0.287   3.556   7.765  0.6678 -2.4122 -1.2715
    9SAPS  H17S 1138   0.397   3.594   7.895  2.2172 -0.4031 -1.1783
    9SAPS  C218 1139   0.241   3.445   7.944  0.4173  0.5453 -1.0443
    9SAPS  H18R 1140   0.301   3.409   8.030 -2.0476  1.1254  1.0262
    9SAPS  H18S 1141   0.191   3.360   7.894  0.5821  1.4682 -2.8665
    9SAPS  C219 1142   0.127   3.536   7.993 -0.1120  0.1396  0.4867
    9SAPS  H19R 1143   0.043   3.525   7.921 -0.4278 -0.7145  0.9700
    9SAPS  H19S 1144   0.164   3.640   7.991  2.2269 -0.6101  0.9349
    9SAPS  C220 1145   0.082   3.512   8.132  0.3553  0.3201  0.1908
    9SAPS  H20R 1146   0.006   3.588   8.159 -0.3245  0.2652 -1.4439
    9SAPS  H20S 1147   0.171   3.507   8.199 -0.2035 -0.9232  0.8608
    9SAPS  H20T 1148   0.022   3.419   8.142  2.3955 -1.1857 -0.6858
    9SAPS   C33 1149  -0.280   4.446   6.684  0.5468 -0.6873 -0.3137
    9SAPS   H3X 1150  -0.347   4.508   6.620  1.0654 -0.8454 -1.0290
    9SAPS   H3Y 1151  -0.176   4.479   6.665 -0.0041  1.3789  0.0950
    9SAPS   C34 1152  -0.318   4.474   6.829 -0.2238  0.1602  0.1799
    9SAPS   H4X 1153  -0.424   4.451   6.854 -0.4860  0.8547 -0.2763
    9SAPS   H4Y 1154  -0.322   4.585   6.829 -1.9845  0.1801 -2.3017
    9SAPS   C35 1155  -0.215   4.427   6.937 -0.8428 -0.9118 -0.2672
    9SAPS   H5X 1156  -0.113   4.444   6.896 -1.6784  0.4099 -1.9304
    9SAPS   H5Y 1157  -0.230   4.317   6.950 -2.1360 -0.5171  2.1753
    9SAPS   C36 1158  -0.242   4.502   7.065  0.0242 -0.6418  0.2954
    9SAPS   H6X 1159  -0.345   4.474   7.097 -0.8772  0.6408 -1.3140
    9SAPS   H6Y 1160  -0.245   4.612   7.055 -0.7455 -0.6467  0.4149
    9SAPS   C37 1161  -0.148   4.449   7.177 -0.3024 -0.0808  0.5427
    9SAPS   H7X 1162  -0.043   4.479   7.153 -0.7522  1.5806  0.5558
    9SAPS   H7Y 1163  -0.159   4.338   7.172 -0.9578 -0.0847  1.7075
    9SAPS   C38 1164  -0.187   4.480   7.320 -0.4140 -0.8420  0.4673
    9SAPS   H8X 1165  -0.279   4.422   7.345 -1.3931  0.1632 -0.6660
    9SAPS   H8Y 1166  -0.215   4.587   7.320 -2.0336 -1.2297  0.2519
    9SAPS   C39 1167  -0.068   4.455   7.411 -0.7090 -0.2919  0.0466
    9SAPS   H9X 1168   0.013   4.529   7.395  0.2736 -0.8450  2.1561
    9SAPS   H9Y 1169  -0.022   4.355   7.393 -1.9473 -0.7817 -0.4883
    9SAPS  C310 1170  -0.106   4.474   7.557 -0.5710 -0.4043 -0.0066
    9SAPS  H10X 1171  -0.180   4.392   7.570 -1.6502 -0.2617 -3.9539
    9SAPS  H10Y 1172  -0.167   4.565   7.572 -2.1189 -1.4373  0.2229
    9SAPS  C311 1173   0.015   4.453   7.653 -0.2205  1.1336 -0.5564
    9SAPS  H11X 1174   0.094   4.526   7.623  2.1349 -1.8112 -2.0836
    9SAPS  H11Y 1175   0.050   4.349   7.633  1.4323  1.8440 -1.5999
    9SAPS  C312 1176  -0.017   4.475   7.797 -0.1891  0.4619 -0.6021
    9SAPS  H12X 1177  -0.104   4.415   7.832 -1.2654  0.6354 -2.7794
    9SAPS  H12Y 1178  -0.037   4.579   7.828  0.2079 -0.2395  2.3276
    9SAPS  C313 1179   0.098   4.423   7.887 -0.1762 -0.0806 -0.3152
    9SAPS  H13X 1180   0.181   4.497   7.886 -0.8888  0.7365 -0.5932
    9SAPS  H13Y 1181   0.128   4.320   7.861  0.4316 -0.2159  0.8324
    9SAPS  C314 1182   0.065   4.421   8.039 -0.0215 -0.6785 -0.5285
    9SAPS  H14X 1183  -0.029   4.365   8.056  0.0513 -0.4236  0.7974
    9SAPS  H14Y 1184   0.029   4.525   8.055  1.2285 -0.1243 -1.1863
    9SAPS  C315 1185   0.187   4.372   8.124 -0.1655 -0.4674 -0.6324
    9SAPS  H15X 1186   0.232   4.278   8.085 -0.8445 -0.8504 -0.4959
    9SAPS  H15Y 1187   0.142   4.350   8.223 -2.9640  2.5493 -1.0625
    9SAPS  C316 1188   0.294   4.484   8.140  0.2116 -0.7534 -0.3375
    9SAPS  H16X 1189   0.248   4.584   8.151  0.7981 -0.4607 -0.5396
    9SAPS  H16Y 1190   0.353   4.504   8.047  1.6723 -1.8833  0.3101
    9SAPS  C317 1191   0.389   4.437   8.247  0.3341 -0.2848 -0.3700
    9SAPS  H17X 1192   0.340   4.442   8.346 -2.4437 -1.7105 -1.5812
    9SAPS  H17Y 1193   0.472   4.511   8.256  0.9222 -0.8908 -0.6760
    9SAPS  C318 1194   0.452   4.304   8.232 -0.1976  0.4802  0.5713
    9SAPS  H18X 1195   0.495   4.279   8.133 -0.9574 -0.1153  0.3800
    9SAPS  H18Y 1196   0.379   4.221   8.249  2.3710 -1.4785  2.9122
    9SAPS  H18Z 1197   0.523   4.282   8.315  0.6995 -0.7775 -0.4777
   10SAPS     N 1198   5.440   4.128   6.312  0.1518 -0.0546  0.9189
   10SAPS   HN1 1199   5.542   4.128   6.293 -0.4112  1.3539 -2.8666
   10SAPS   HN2 1200   5.391   4.145   6.222 -0.4995 -1.7780  0.9108
   10SAPS   HN3 1201   5.410   4.218   6.355 -1.4487  0.2117 -0.6621
   10SAPS   C12 1202   5.397   4.013   6.386  0.1306  0.4072  0.2848
   10SAPS  H12A 1203   5.436   4.032   6.485 -3.5795 -0.1465  2.0305
   10SAPS   C13 1204   5.243   4.003   6.393  0.1442  0.5778 -0.1458
   10SAPS  O13A 1205   5.170   4.094   6.351  0.5673  0.6214  0.2494
   10SAPS  O13B 1206   5.194   3.911   6.465 -0.0794  0.2499 -0.0193
   10SAPS   C11 1207   5.458   3.886   6.319  0.3579  0.5389  0.0237
   10SAPS  H11A 1208   5.384   3.866   6.238 -1.2624  2.0030  1.0547
   10SAPS  H11B 1209   5.453   3.802   6.391  0.1593 -0.0429 -0.6527
   10SAPS     P 1210   5.656   3.768   6.204 -0.1015  0.2736  0.1941
   10SAPS   O13 1211   5.572   3.648   6.211  0.5620  0.2522 -0.2011
   10SAPS   O14 1212   5.702   3.817   6.070  0.0150 -0.2351 -0.2051
   10SAPS   O12 1213   5.585   3.889   6.264  0.2817 -0.0295  0.1651
   10SAPS   O11 1214   5.781   3.759   6.305  0.5508  0.0778  0.4733
   10SAPS    C1 1215   5.839   3.880   6.351 -0.2652  0.0670 -0.0241
   10SAPS    HA 1216   5.883   3.946   6.274  0.5114  1.1975  1.3451
   10SAPS    HB 1217   5.768   3.931   6.420 -0.6401  0.5241 -0.7339
   10SAPS    C2 1218   5.962   3.847   6.438 -0.6023  0.0973 -0.3708
   10SAPS    HS 1219   6.039   3.778   6.399  0.8012  1.1989  0.3633
   10SAPS   O21 1220   5.914   3.798   6.564 -0.1795 -0.8246 -0.2253
   10SAPS   C21 1221   5.980   3.696   6.626 -0.6082 -0.0635  0.1893
   10SAPS   O22 1222   6.076   3.641   6.577 -0.0746  0.3559  0.1642
   10SAPS   C22 1223   5.938   3.674   6.767  0.5590  0.3858  0.2659
   10SAPS   H2R 1224   6.019   3.719   6.829  0.4860  0.5030  0.2768
   10SAPS   H2S 1225   5.846   3.732   6.786  1.1522  0.4876  3.1866
   10SAPS    C3 1226   6.041   3.979   6.460  0.4117  0.8409  0.4502
   10SAPS    HX 1227   5.964   4.049   6.498 -0.9479  0.2060 -1.0122
   10SAPS    HY 1228   6.074   4.019   6.362  0.3842  0.3129  0.2206
   10SAPS   O31 1229   6.143   3.961   6.560 -0.7801 -0.1168  0.2078
   10SAPS   C31 1230   6.267   3.953   6.506 -0.7262  0.0150  0.0488
   10SAPS   O32 1231   6.291   3.964   6.388 -0.3994  0.1001  0.0090
   10SAPS   C32 1232   6.370   3.930   6.616  0.0328 -1.0965  0.2346
   10SAPS   H2X 1233   6.368   4.016   6.687 -3.7587 -0.4340 -0.4617
   10SAPS   H2Y 1234   6.473   3.925   6.576 -0.1347 -0.7893 -0.2326
   10SAPS   C23 1235   5.911   3.527   6.803 -0.2791  0.7108 -0.3701
   10SAPS   H3R 1236   5.998   3.463   6.780  0.0103  1.6106 -1.8708
   10SAPS   H3S 1237   5.828   3.472   6.754 -0.4206  1.3501 -0.8644
   10SAPS   C24 1238   5.892   3.521   6.955 -0.1671  0.5697 -0.3461
   10SAPS   H4R 1239   5.869   3.415   6.976  1.3259  0.3013  0.0413
   10SAPS   H4S 1240   5.810   3.587   6.992 -0.3417 -0.2790  0.8420
   10SAPS   C25 1241   6.019   3.567   7.030  0.7098 -0.0218  0.3183
   10SAPS   H5R 1242   6.113   3.580   6.975 -0.4912 -1.5183 -2.2619
   10SAPS   C26 1243   6.009   3.587   7.164  0.2918  0.2890  0.9227
   10SAPS   H6R 1244   6.100   3.619   7.215  0.0964  1.3576  0.6375
   10SAPS   C27 1245   5.885   3.566   7.246  0.3712 -0.8266  0.7747
   10SAPS   H7R 1246   5.894   3.472   7.305  0.0257 -0.7103  1.0124
   10SAPS   H7S 1247   5.794   3.539   7.189 -0.0202 -2.3205  2.0350
   10SAPS   C28 1248   5.848   3.683   7.331 -0.3879 -0.3228 -0.1476
   10SAPS   H8R 1249   5.902   3.778   7.319  0.2250 -0.6904 -0.3346
   10SAPS   C29 1250   5.745   3.680   7.411  0.4901  0.3331  0.1695
   10SAPS   H9R 1251   5.740   3.776   7.464  0.9028  3.2270 -4.4400
   10SAPS  C210 1252   5.640   3.575   7.433  0.5541  0.5125  0.0417
   10SAPS  H10R 1253   5.642   3.539   7.538  2.5695 -0.0073 -0.1351
   10SAPS  H10S 1254   5.663   3.488   7.368  1.1603  0.6402  0.0806
   10SAPS  C211 1255   5.505   3.623   7.388 -0.3021 -0.1963  0.2116
   10SAPS  H11R 1256   5.505   3.662   7.285  2.3013 -0.1934  0.1426
   10SAPS  C212 1257   5.386   3.614   7.450  0.2191  0.1281 -0.2189
   10SAPS  H12R 1258   5.291   3.654   7.412  1.9462  4.3875 -0.6585
   10SAPS  C213 1259   5.359   3.551   7.585 -0.7311  0.2882 -0.2216
   10SAPS  H13R 1260   5.411   3.452   7.588 -1.3819 -0.0408  2.4239
   10SAPS  H13S 1261   5.251   3.527   7.593 -0.8069 -0.3482 -2.5130
   10SAPS  C214 1262   5.403   3.633   7.697  0.6377 -0.1038 -0.2180
   10SAPS  H14R 1263   5.396   3.743   7.687  1.7263  0.0725  0.7040
   10SAPS  C215 1264   5.454   3.594   7.814 -0.4008  0.1109  0.0847
   10SAPS  H15R 1265   5.479   3.675   7.883 -0.4942 -0.1036  0.3703
   10SAPS  C216 1266   5.475   3.456   7.870 -0.6883  0.1511  0.5772
   10SAPS  H16R 1267   5.471   3.380   7.789 -1.7566  1.8546 -1.0584
   10SAPS  H16S 1268   5.396   3.440   7.947 -1.4918 -1.2985 -0.5005
   10SAPS  C217 1269   5.609   3.431   7.945  0.3081  0.3297  0.0325
   10SAPS  H17R 1270   5.600   3.331   7.992  1.4567  1.0894  1.9760
   10SAPS  H17S 1271   5.616   3.509   8.024  0.6485 -1.2697  1.6270
   10SAPS  C218 1272   5.730   3.447   7.851 -0.3372  0.6944 -0.4129
   10SAPS  H18R 1273   5.722   3.533   7.780  0.8398  0.8112 -0.4207
   10SAPS  H18S 1274   5.737   3.351   7.795  0.2502  0.3255  0.2927
   10SAPS  C219 1275   5.859   3.466   7.925  0.0960 -0.2624 -0.1679
   10SAPS  H19R 1276   5.893   3.375   7.978 -0.0264 -1.3301 -1.8441
   10SAPS  H19S 1277   5.844   3.546   8.001  2.3551 -0.0588  0.1240
   10SAPS  C220 1278   5.979   3.515   7.841 -0.1949  0.0879 -0.6779
   10SAPS  H20R 1279   6.002   3.433   7.770  2.8687 -0.2395  0.5227
   10SAPS  H20S 1280   6.069   3.530   7.905  0.3848  1.7850 -1.8091
   10SAPS  H20T 1281   5.966   3.602   7.773 -1.5533 -0.1486 -0.7454
   10SAPS   C33 1282   6.339   3.813   6.717 -0.5463 -0.2133  0.1982
   10SAPS   H3X 1283   6.340   3.723   6.652 -0.2914 -0.7574  0.9423
   10SAPS   H3Y 1284   6.238   3.827   6.761  0.0725  1.0601  1.2894
   10SAPS   C34 1285   6.439   3.760   6.816 -0.7373 -0.0421  0.4030
   10SAPS   H4X 1286   6.531   3.736   6.759 -1.4248  0.9191 -1.1629
   10SAPS   H4Y 1287   6.399   3.667   6.864  1.0328 -0.7431  0.5779
   10SAPS   C35 1288   6.466   3.857   6.932  0.1438 -0.0945  0.0382
   10SAPS   H5X 1289   6.479   3.964   6.903 -0.1424  0.0928  0.5850
   10SAPS   H5Y 1290   6.555   3.824   6.989  0.2214  0.0188 -0.0152
   10SAPS   C36 1291   6.343   3.856   7.025 -0.6008 -0.6462 -0.9426
   10SAPS   H6X 1292   6.325   3.753   7.062  0.1246 -0.2911  0.4490
   10SAPS   H6Y 1293   6.255   3.902   6.976  0.3007  1.4040 -0.7368
   10SAPS   C37 1294   6.365   3.938   7.156 -0.2623  0.4727 -0.3260
   10SAPS   H7X 1295   6.338   4.042   7.129 -0.6563  0.6055  0.5473
   10SAPS   H7Y 1296   6.471   3.925   7.189 -0.2727 -0.4515 -0.6279
   10SAPS   C38 1297   6.272   3.892   7.270  0.8818  0.0648  0.4663
   10SAPS   H8X 1298   6.247   3.784   7.260 -1.4967  0.4598  1.5030
   10SAPS   H8Y 1299   6.174   3.944   7.263  1.9190  2.4341  2.2416
   10SAPS   C39 1300   6.327   3.910   7.413 -0.1028 -0.3600  0.2396
   10SAPS   H9X 1301   6.343   4.015   7.444 -0.1359 -0.3247  0.1372
   10SAPS   H9Y 1302   6.425   3.858   7.411  0.4829  0.6614 -2.2821
   10SAPS  C310 1303   6.240   3.845   7.520 -0.2608 -0.4074  0.4276
   10SAPS  H10X 1304   6.291   3.852   7.618 -1.8742  2.7813  1.1945
   10SAPS  H10Y 1305   6.222   3.739   7.493  0.3869  0.2341 -2.9673
   10SAPS  C311 1306   6.116   3.920   7.549 -0.1198 -0.0200  0.1868
   10SAPS  H11X 1307   6.064   3.940   7.453  0.1462 -2.0395 -0.4208
   10SAPS  H11Y 1308   6.145   4.011   7.605 -0.6525  1.2048 -1.4656
   10SAPS  C312 1309   6.019   3.848   7.643 -0.4065  0.1178 -0.0396
   10SAPS  H12X 1310   6.064   3.809   7.736  3.5717  0.8068 -1.4853
   10SAPS  H12Y 1311   5.986   3.760   7.584  0.6655  0.0252 -0.5139
   10SAPS  C313 1312   5.903   3.935   7.672 -0.1574  0.7404 -0.3173
   10SAPS  H13X 1313   5.851   3.963   7.577 -3.0090 -1.8362  0.3291
   10SAPS  H13Y 1314   5.947   4.028   7.714  0.0968  0.0124  1.0647
   10SAPS  C314 1315   5.792   3.877   7.761  0.1610  0.0384  1.0460
   10SAPS  H14X 1316   5.761   3.772   7.745 -1.6052  0.4635  1.4899
   10SAPS  H14Y 1317   5.700   3.936   7.742  0.9353  1.0151  0.2153
   10SAPS  C315 1318   5.831   3.865   7.908 -0.1382 -0.6113 -0.0457
   10SAPS  H15X 1319   5.866   3.962   7.950 -2.1503  0.2245 -0.1671
   10SAPS  H15Y 1320   5.915   3.793   7.907  0.6030  0.1340  2.3842
   10SAPS  C316 1321   5.718   3.826   8.001  0.3404  0.0895 -0.5891
   10SAPS  H16X 1322   5.671   3.728   7.975 -0.2188 -0.1664  1.2397
   10SAPS  H16Y 1323   5.632   3.897   8.001 -0.7280 -1.1401 -1.3400
   10SAPS  C317 1324   5.751   3.806   8.152 -0.2023  0.3026 -0.0689
   10SAPS  H17X 1325   5.779   3.905   8.194  0.4344  0.0704  0.0621
   10SAPS  H17Y 1326   5.830   3.730   8.171  0.7232  0.1892 -3.5682
   10SAPS  C318 1327   5.626   3.770   8.238 -0.5984 -0.1103 -0.0287
   10SAPS  H18X 1328   5.550   3.850   8.240 -1.3321 -0.8102  0.8735
   10SAPS  H18Y 1329   5.670   3.759   8.340  1.3883  4.0584 -0.2372
   10SAPS  H18Z 1330   5.589   3.672   8.201 -2.7932  0.5397  0.3478
   11SAPS     N 1331   0.081   6.641   5.447  0.1545  0.0160 -0.2972
   11SAPS   HN1 1332   0.020   6.687   5.376  2.3808  1.4741 -1.3848
   11SAPS   HN2 1333   0.126   6.718   5.500 -3.0642  1.7114  0.1906
   11SAPS   HN3 1334   0.158   6.588   5.401  1.3507  2.4878 -1.2999
   11SAPS   C12 1335  -0.006   6.565   5.537  0.1511 -0.1670  0.1255
   11SAPS  H12A 1336  -0.083   6.624   5.585 -1.8610 -2.0268 -0.6358
   11SAPS   C13 1337  -0.090   6.456   5.465  0.5757  0.3417  0.2765
   11SAPS  O13A 1338  -0.061   6.410   5.353 -0.3035 -0.3708 -0.1375
   11SAPS  O13B 1339  -0.172   6.391   5.545 -0.1566  0.2416 -0.2332
   11SAPS   C11 1340   0.086   6.493   5.652  0.7396 -0.4559  0.9170
   11SAPS  H11A 1341   0.149   6.419   5.599  0.4708 -0.2041  0.2349
   11SAPS  H11B 1342   0.020   6.439   5.722 -4.2591  1.7983 -1.5273
   11SAPS     P 1343   0.124   6.666   5.846 -0.1457  0.3051 -0.0217
   11SAPS   O13 1344   0.215   6.779   5.868 -0.3703 -0.2101  0.6238
   11SAPS   O14 1345  -0.015   6.694   5.830  0.4363  0.1944  0.3475
   11SAPS   O12 1346   0.172   6.587   5.716  0.1675 -0.4125  0.4133
   11SAPS   O11 1347   0.147   6.573   5.970  0.1311  0.0445  0.2149
   11SAPS    C1 1348   0.266   6.506   5.988 -0.0342  0.4549  0.6621
   11SAPS    HA 1349   0.270   6.413   5.927  0.0033  1.9958 -1.8296
   11SAPS    HB 1350   0.358   6.559   5.956  0.2388 -1.0274 -1.1497
   11SAPS    C2 1351   0.269   6.473   6.134  0.0263  0.0565  0.9753
   11SAPS    HS 1352   0.166   6.484   6.174  0.0512  0.5935  0.9060
   11SAPS   O21 1353   0.356   6.566   6.200  0.0459 -0.7211  0.1279
   11SAPS   C21 1354   0.314   6.602   6.322 -0.3518  0.2015  0.1893
   11SAPS   O22 1355   0.202   6.583   6.360 -0.0062 -0.3629 -0.5001
   11SAPS   C22 1356   0.428   6.651   6.407 -0.5879  0.3676 -0.2195
   11SAPS   H2R 1357   0.486   6.725   6.349 -0.0540  0.0478 -0.0958
   11SAPS   H2S 1358   0.376   6.705   6.488 -0.8092 -1.6139  1.0351
   11SAPS    C3 1359   0.335   6.336   6.167  0.1126 -0.0731 -0.2654
   11SAPS    HX 1360   0.443   6.341   6.140 -0.0237  3.3495 -0.6462
   11SAPS    HY 1361   0.279   6.265   6.103  2.3993  0.4019 -2.9762
   11SAPS   O31 1362   0.321   6.300   6.311  0.1092 -0.1165  0.2390
   11SAPS   C31 1363   0.233   6.212   6.345 -0.5571 -0.0568  0.2494
   11SAPS   O32 1364   0.155   6.154   6.273  0.2572  0.4366  0.0342
   11SAPS   C32 1365   0.244   6.213   6.498  0.5671  0.1510  0.1871
   11SAPS   H2X 1366   0.348   6.187   6.529  0.1763 -0.2574  1.1952
   11SAPS   H2Y 1367   0.181   6.124   6.522 -1.5710  1.6253  0.3030
   11SAPS   C23 1368   0.503   6.535   6.473  0.1643 -0.1165 -0.1811
   11SAPS   H3R 1369   0.537   6.467   6.392 -0.3261  1.1078 -1.4336
   11SAPS   H3S 1370   0.435   6.481   6.542 -1.6403  0.2455 -1.6317
   11SAPS   C24 1371   0.632   6.580   6.552 -1.0705 -0.6362 -0.8039
   11SAPS   H4R 1372   0.703   6.634   6.485 -0.9664 -2.7647 -2.5166
   11SAPS   H4S 1373   0.676   6.485   6.589  0.9895  0.0652 -1.3101
   11SAPS   C25 1374   0.591   6.673   6.659 -0.2921  0.4545  0.6941
   11SAPS   H5R 1375   0.593   6.778   6.626 -0.6373 -0.3310 -2.0001
   11SAPS   C26 1376   0.565   6.643   6.786 -0.5181  0.2028  0.0692
   11SAPS   H6R 1377   0.553   6.727   6.856  0.7522  0.3883  0.0852
   11SAPS   C27 1378   0.565   6.510   6.855  0.4944 -0.5144  0.3383
   11SAPS   H7R 1379   0.553   6.433   6.775 -1.1941 -1.3998  1.3831
   11SAPS   H7S 1380   0.471   6.497   6.913 -0.0843 -1.0408 -0.6964
   11SAPS   C28 1381   0.691   6.489   6.925  0.5328 -0.4642  0.0919
   11SAPS   H8R 1382   0.773   6.446   6.865  0.8037 -0.4216  0.4300
   11SAPS   C29 1383   0.722   6.503   7.050 -0.1533  0.2954 -0.0344
   11SAPS   H9R 1384   0.820   6.461   7.076 -0.2846 -0.1369 -0.2222
   11SAPS  C210 1385   0.633   6.569   7.152  0.2996  0.2101  0.3163
   11SAPS  H10R 1386   0.570   6.640   7.093  0.5794  0.7533  0.6596
   11SAPS  H10S 1387   0.702   6.637   7.206  0.4280  1.2134 -1.0585
   11SAPS  C211 1388   0.565   6.480   7.256  0.1634 -0.1598  1.4128
   11SAPS  H11R 1389   0.499   6.400   7.218  0.1103 -0.8575  2.8902
   11SAPS  C212 1390   0.574   6.486   7.392  0.7213 -0.8821  0.3375
   11SAPS  H12R 1391   0.514   6.414   7.450  1.5358  0.8656  3.5520
   11SAPS  C213 1392   0.650   6.580   7.476 -0.0380 -0.0541 -0.0603
   11SAPS  H13R 1393   0.643   6.680   7.428 -2.0861  0.3447  0.9476
   11SAPS  H13S 1394   0.754   6.543   7.481  0.5651  1.4163 -1.0806
   11SAPS  C214 1395   0.591   6.605   7.610 -0.1665  0.0483 -0.3935
   11SAPS  H14R 1396   0.482   6.597   7.616 -0.0422 -1.8465 -0.1208
   11SAPS  C215 1397   0.663   6.638   7.724  0.1828  0.9079 -0.1973
   11SAPS  H15R 1398   0.607   6.665   7.815  2.5853  1.3940  1.2295
   11SAPS  C216 1399   0.810   6.658   7.726  0.2620 -0.1551  0.1299
   11SAPS  H16R 1400   0.836   6.699   7.627  2.3995  1.1188  1.1403
   11SAPS  H16S 1401   0.858   6.559   7.740  0.1881  0.0033  1.7353
   11SAPS  C217 1402   0.869   6.762   7.826  0.1180 -0.0247  0.3416
   11SAPS  H17R 1403   0.867   6.716   7.927 -0.0612  1.3504  0.9867
   11SAPS  H17S 1404   0.803   6.852   7.831 -2.0622 -1.4642 -0.9035
   11SAPS  C218 1405   1.012   6.802   7.766 -0.0648 -0.1112 -0.0767
   11SAPS  H18R 1406   0.993   6.865   7.676 -0.6197 -1.3587 -0.8521
   11SAPS  H18S 1407   1.068   6.710   7.738  0.3807 -0.5861  2.2008
   11SAPS  C219 1408   1.106   6.870   7.868  0.1092  0.2153  0.2505
   11SAPS  H19R 1409   1.101   6.803   7.956 -1.3632  1.5627  1.2597
   11SAPS  H19S 1410   1.042   6.953   7.906  0.7491  0.3060  1.1694
   11SAPS  C220 1411   1.250   6.905   7.822 -0.4967  0.4397  0.1523
   11SAPS  H20R 1412   1.253   6.982   7.741 -3.0140  1.2362  0.7207
   11SAPS  H20S 1413   1.295   6.812   7.781 -0.5552  0.2257  0.5731
   11SAPS  H20T 1414   1.320   6.945   7.898  1.1204  1.8145 -1.9075
   11SAPS   C33 1415   0.183   6.334   6.576  0.3332 -0.2575  0.0285
   11SAPS   H3X 1416   0.118   6.394   6.509  3.1438  0.1532 -2.4982
   11SAPS   H3Y 1417   0.261   6.403   6.614 -0.0733 -0.0202  0.4547
   11SAPS   C34 1418   0.115   6.295   6.708 -0.3136 -0.2480 -0.3168
   11SAPS   H4X 1419   0.069   6.194   6.699  2.0587 -1.6360  1.8962
   11SAPS   H4Y 1420   0.047   6.381   6.724 -0.5777 -0.9418  3.1297
   11SAPS   C35 1421   0.222   6.296   6.819 -0.9389 -0.3853  0.4085
   11SAPS   H5X 1422   0.259   6.400   6.813 -2.2440  0.0427 -1.2575
   11SAPS   H5Y 1423   0.293   6.214   6.799 -1.2284 -0.4736 -0.3025
   11SAPS   C36 1424   0.158   6.271   6.956  0.1288  0.8696 -0.4971
   11SAPS   H6X 1425   0.107   6.174   6.941 -0.8011  0.7855  2.6368
   11SAPS   H6Y 1426   0.083   6.350   6.978 -1.8996 -1.6734  2.4098
   11SAPS   C37 1427   0.257   6.255   7.068  0.1200 -0.0949 -0.3774
   11SAPS   H7X 1428   0.308   6.353   7.066 -3.7447  2.1059 -1.2253
   11SAPS   H7Y 1429   0.322   6.166   7.050  0.1168  0.1345 -1.6229
   11SAPS   C38 1430   0.173   6.238   7.201 -0.1857  0.3194  0.8164
   11SAPS   H8X 1431   0.128   6.138   7.219  0.2366  0.2726  1.6449
   11SAPS   H8Y 1432   0.085   6.306   7.194 -0.0057  0.8208  2.7945
   11SAPS   C39 1433   0.268   6.256   7.321 -0.1189  0.8309 -0.2499
   11SAPS   H9X 1434   0.300   6.362   7.316  0.9750  0.4476 -2.1345
   11SAPS   H9Y 1435   0.357   6.188   7.327  0.2449  1.3484  0.3249
   11SAPS  C310 1436   0.195   6.238   7.453  0.1260  0.2439  0.2102
   11SAPS  H10X 1437   0.169   6.132   7.473  0.5779  0.4582  2.1304
   11SAPS  H10Y 1438   0.095   6.288   7.459 -0.2462 -0.6617  3.6840
   11SAPS  C311 1439   0.279   6.281   7.574  0.1940  0.3925  0.9248
   11SAPS  H11X 1440   0.328   6.381   7.563  0.3956  0.0713 -2.0525
   11SAPS  H11Y 1441   0.364   6.210   7.585  0.3704  0.6055  0.9620
   11SAPS  C312 1442   0.196   6.277   7.701 -0.0709 -0.1713 -0.2334
   11SAPS  H12X 1443   0.144   6.179   7.710  1.3867 -0.8203  2.0135
   11SAPS  H12Y 1444   0.115   6.353   7.692  0.2144  0.2323  0.4682
   11SAPS  C313 1445   0.284   6.272   7.827  0.4773 -0.2297 -0.6076
   11SAPS  H13X 1446   0.331   6.173   7.842  0.3224 -0.8257 -3.4232
   11SAPS  H13Y 1447   0.207   6.284   7.907 -2.1813 -2.3720 -2.6521
   11SAPS  C314 1448   0.392   6.381   7.842  0.1256 -0.7824 -0.2165
   11SAPS  H14X 1449   0.346   6.480   7.820 -0.4599 -0.4713  2.2069
   11SAPS  H14Y 1450   0.476   6.369   7.769  1.2797 -2.9442  1.3346
   11SAPS  C315 1451   0.469   6.382   7.971  0.3448  0.2974 -0.2943
   11SAPS  H15X 1452   0.561   6.443   7.958 -0.1537  1.7211  2.2384
   11SAPS  H15Y 1453   0.495   6.281   8.010  0.3444 -0.1738 -1.4541
   11SAPS  C316 1454   0.385   6.457   8.076 -0.0436  0.0709 -0.0293
   11SAPS  H16X 1455   0.291   6.401   8.093  1.3673 -3.4571 -2.6899
   11SAPS  H16Y 1456   0.345   6.550   8.029 -1.8181 -0.5016  0.2683
   11SAPS  C317 1457   0.451   6.487   8.208 -0.4675  0.3921 -0.0031
   11SAPS  H17X 1458   0.557   6.513   8.185  0.7712 -3.2850  0.7693
   11SAPS  H17Y 1459   0.461   6.385   8.251  0.6314 -0.5372 -2.2953
   11SAPS  C318 1460   0.373   6.582   8.291  0.0038 -0.0702 -0.4374
   11SAPS  H18X 1461   0.387   6.576   8.401  0.8692 -0.6264 -0.5704
   11SAPS  H18Y 1462   0.267   6.557   8.269  0.0039  0.3731 -0.9762
   11SAPS  H18Z 1463   0.393   6.688   8.266  1.8575  0.0164  1.1933
   12SAPS     N 1464   1.838   0.897   5.789 -0.4263 -0.0541  0.2549
   12SAPS   HN1 1465   1.763   0.945   5.843 -1.9500 -3.3131  1.3041
   12SAPS   HN2 1466   1.928   0.903   5.841  1.1204 -2.0785 -1.9898
   12SAPS   HN3 1467   1.858   0.931   5.693 -0.2196  0.7318  0.5688
   12SAPS   C12 1468   1.795   0.760   5.788 -0.1507  0.3984 -0.3176
   12SAPS  H12A 1469   1.692   0.768   5.753 -0.2122  0.4926 -0.1157
   12SAPS   C13 1470   1.897   0.671   5.704 -0.8495  1.3857  0.5473
   12SAPS  O13A 1471   2.001   0.727   5.652  0.3405 -0.7252 -0.1133
   12SAPS  O13B 1472   1.886   0.546   5.709 -0.0912 -0.1562 -0.3916
   12SAPS   C11 1473   1.774   0.711   5.938 -0.8673  0.7229  0.0829
   12SAPS  H11A 1474   1.874   0.714   5.986 -1.8792  0.6844  2.3438
   12SAPS  H11B 1475   1.737   0.607   5.929  0.8577  0.2356 -2.5264
   12SAPS     P 1476   1.536   0.756   6.037 -0.1089 -0.1178 -0.3976
   12SAPS   O13 1477   1.471   0.862   6.119  0.3661 -0.4085  0.1960
   12SAPS   O14 1478   1.468   0.733   5.905 -0.4899  0.7254 -0.4316
   12SAPS   O12 1479   1.689   0.793   6.016 -0.3058 -0.1672  0.1792
   12SAPS   O11 1480   1.535   0.624   6.124  0.1624  0.2134 -0.0495
   12SAPS    C1 1481   1.620   0.623   6.244  0.4577  0.1279 -0.5844
   12SAPS    HA 1482   1.715   0.678   6.223  0.0128  1.3475  0.4763
   12SAPS    HB 1483   1.562   0.673   6.324 -0.9228 -0.2743 -1.3065
   12SAPS    C2 1484   1.652   0.483   6.312 -0.8851 -0.1487  0.6295
   12SAPS    HS 1485   1.736   0.440   6.253 -1.9807 -2.4477  0.6094
   12SAPS   O21 1486   1.532   0.406   6.306 -0.0238  0.2440 -0.7084
   12SAPS   C21 1487   1.545   0.276   6.295 -0.0340  0.4404 -0.4075
   12SAPS   O22 1488   1.648   0.218   6.271  0.3696  0.0612  0.3656
   12SAPS   C22 1489   1.418   0.208   6.335 -0.5631  0.1099  0.0458
   12SAPS   H2R 1490   1.373   0.265   6.418  0.4214 -1.1302  1.4958
   12SAPS   H2S 1491   1.355   0.222   6.244 -0.2623 -2.0508 -0.5670
   12SAPS    C3 1492   1.704   0.511   6.456 -0.3755  0.0529 -0.3667
   12SAPS    HX 1493   1.617   0.555   6.507  1.6155  1.8503  1.6976
   12SAPS    HY 1494   1.778   0.594   6.459  1.0964 -1.1580 -1.4792
   12SAPS   O31 1495   1.762   0.399   6.522 -0.0902 -0.2081  0.1100
   12SAPS   C31 1496   1.881   0.371   6.476  0.7962 -0.7318 -0.6610
   12SAPS   O32 1497   1.938   0.430   6.387 -0.3348  0.2194 -0.1574
   12SAPS   C32 1498   1.931   0.237   6.544 -0.0783  0.0464  0.3087
   12SAPS   H2X 1499   1.968   0.179   6.456 -1.3791  0.5102 -0.5724
   12SAPS   H2Y 1500   1.846   0.179   6.583  0.8414 -0.7314  1.2169
   12SAPS   C23 1501   1.445   0.059   6.361  0.7671  0.8654 -0.3886
   12SAPS   H3R 1502   1.528   0.047   6.434  1.2804 -2.2758 -1.3346
   12SAPS   H3S 1503   1.488   0.012   6.270  0.7796 -1.6571  0.8348
   12SAPS   C24 1504   1.326  -0.030   6.402 -0.8979  0.0942  0.1686
   12SAPS   H4R 1505   1.375  -0.102   6.471  0.3024 -2.0401 -2.6900
   12SAPS   H4S 1506   1.285  -0.090   6.318 -0.8574 -0.2742  0.4076
   12SAPS   C25 1507   1.208   0.037   6.464  0.4072 -0.0381 -0.5353
   12SAPS   H5R 1508   1.185   0.139   6.429 -2.8628 -0.4817 -0.0141
   12SAPS   C26 1509   1.114  -0.006   6.554 -0.4483  0.0255  0.0531
   12SAPS   H6R 1510   1.031   0.059   6.585  0.0203  0.1336  1.1417
   12SAPS   C27 1511   1.115  -0.146   6.614 -0.5765 -0.4352  0.1883
   12SAPS   H7R 1512   1.200  -0.152   6.684 -0.3672 -0.7443 -0.0908
   12SAPS   H7S 1513   1.137  -0.215   6.530 -1.2078 -0.1650 -0.2049
   12SAPS   C28 1514   0.987  -0.180   6.684 -0.9375  0.4016  0.2556
   12SAPS   H8R 1515   0.930  -0.261   6.637 -0.1250  0.9349 -1.7491
   12SAPS   C29 1516   0.946  -0.145   6.807 -0.9200 -0.5077  0.5251
   12SAPS   H9R 1517   0.847  -0.178   6.843 -0.4064 -1.1897  1.3587
   12SAPS  C210 1518   1.020  -0.043   6.893 -0.1315  0.1546  0.3744
   12SAPS  H10R 1519   1.078   0.028   6.830 -1.2725 -0.5551 -1.5777
   12SAPS  H10S 1520   1.092  -0.096   6.959  1.4976  0.4577 -1.0892
   12SAPS  C211 1521   0.926   0.030   6.980  0.4374  0.1493 -1.3452
   12SAPS  H11R 1522   0.854   0.093   6.926  1.1184  0.8213 -1.4954
   12SAPS  C212 1523   0.932   0.038   7.120  1.0096 -0.4985 -0.4781
   12SAPS  H12R 1524   0.857   0.099   7.173  1.0515  1.3648 -2.4143
   12SAPS  C213 1525   1.034  -0.017   7.217 -0.6365  0.3249  0.0834
   12SAPS  H13R 1526   1.063  -0.120   7.187  0.8310  0.6694  0.2198
   12SAPS  H13S 1527   0.987  -0.013   7.317 -0.6199  0.6343  0.0784
   12SAPS  C214 1528   1.167   0.063   7.216 -0.0271  0.1887  0.2202
   12SAPS  H14R 1529   1.190   0.134   7.134  0.1833 -0.2329 -0.0897
   12SAPS  C215 1530   1.253   0.052   7.312  0.0433  0.9553 -0.3225
   12SAPS  H15R 1531   1.347   0.109   7.313  1.1753 -0.6777 -3.1255
   12SAPS  C216 1532   1.236  -0.040   7.430  0.0660 -0.9629  0.5495
   12SAPS  H16R 1533   1.153  -0.113   7.422 -0.5793 -0.3469  1.4110
   12SAPS  H16S 1534   1.221   0.004   7.531 -0.5667 -0.3519  0.1966
   12SAPS  C217 1535   1.364  -0.116   7.446 -0.5900 -0.3105 -0.1384
   12SAPS  H17R 1536   1.410  -0.165   7.358  1.0276  0.3869  0.2940
   12SAPS  H17S 1537   1.356  -0.199   7.520  0.0238 -1.3618 -1.2186
   12SAPS  C218 1538   1.480  -0.020   7.501  0.1849  0.3703  0.0502
   12SAPS  H18R 1539   1.444   0.059   7.570 -0.2167 -0.6158  0.9943
   12SAPS  H18S 1540   1.529   0.028   7.413  0.6993  0.6060  0.4597
   12SAPS  C219 1541   1.601  -0.090   7.561  0.5927  1.3200  0.1068
   12SAPS  H19R 1542   1.689  -0.024   7.550  0.8911  1.2003  1.5280
   12SAPS  H19S 1543   1.610  -0.185   7.505 -4.3277  0.3151  0.5171
   12SAPS  C220 1544   1.580  -0.119   7.712  0.0904 -0.2589  0.6914
   12SAPS  H20R 1545   1.491  -0.179   7.740 -1.0675  0.5280 -1.0558
   12SAPS  H20S 1546   1.574  -0.024   7.770  1.3009  0.1028  0.2554
   12SAPS  H20T 1547   1.667  -0.167   7.760  1.2198  2.0639  1.1197
   12SAPS   C33 1548   2.037   0.248   6.656 -0.1813 -0.2636  0.5305
   12SAPS   H3X 1549   1.998   0.317   6.734 -1.7918 -0.7202  0.1725
   12SAPS   H3Y 1550   2.132   0.296   6.623  0.1163  0.9603  2.9306
   12SAPS   C34 1551   2.077   0.109   6.693  0.2297  0.2444 -0.4327
   12SAPS   H4X 1552   2.134   0.066   6.608  0.0425  0.3357 -0.6036
   12SAPS   H4Y 1553   1.979   0.059   6.707 -1.9272  4.4965  1.5036
   12SAPS   C35 1554   2.155   0.100   6.819 -0.3597  0.0563 -0.2343
   12SAPS   H5X 1555   2.239   0.172   6.811  1.1420 -1.8049 -2.4455
   12SAPS   H5Y 1556   2.202  -0.001   6.827  1.4459  0.4937 -3.4797
   12SAPS   C36 1557   2.068   0.132   6.942 -0.1258 -0.0977  0.4544
   12SAPS   H6X 1558   1.985   0.061   6.925  0.6047 -0.4486 -2.0186
   12SAPS   H6Y 1559   2.032   0.237   6.954  0.4733 -0.0793  2.7731
   12SAPS   C37 1560   2.149   0.095   7.071 -0.1569  0.1316 -0.1547
   12SAPS   H7X 1561   2.214   0.178   7.106 -0.2817  0.1623  0.0099
   12SAPS   H7Y 1562   2.210   0.003   7.062 -0.2817 -0.1883  1.8997
   12SAPS   C38 1563   2.047   0.064   7.182  0.3306 -0.3314 -0.0563
   12SAPS   H8X 1564   2.003  -0.037   7.170  3.2824 -1.6656 -0.3971
   12SAPS   H8Y 1565   1.965   0.139   7.179  0.8973  0.3024 -0.0931
   12SAPS   C39 1566   2.106   0.076   7.319 -0.7446  0.2922 -0.1063
   12SAPS   H9X 1567   2.161   0.168   7.347 -0.6705 -0.0807  1.0464
   12SAPS   H9Y 1568   2.179  -0.007   7.332 -0.4363  0.2289 -2.0167
   12SAPS  C310 1569   2.004   0.059   7.428  0.9897  0.0081  0.5451
   12SAPS  H10X 1570   1.953  -0.034   7.397 -1.4852  1.4987 -0.1274
   12SAPS  H10Y 1571   1.925   0.137   7.422  1.0192 -0.0045 -0.0429
   12SAPS  C311 1572   2.062   0.067   7.580  0.4647 -0.1746  0.4980
   12SAPS  H11X 1573   2.124   0.159   7.588  2.2503 -1.4439  2.2227
   12SAPS  H11Y 1574   2.129  -0.019   7.600  1.9502  1.2898  2.0670
   12SAPS  C312 1575   1.945   0.080   7.680 -0.0483  0.0282  0.4823
   12SAPS  H12X 1576   1.881  -0.011   7.687 -0.0234  0.0271  0.7104
   12SAPS  H12Y 1577   1.883   0.167   7.647  0.3058 -0.5113 -1.7125
   12SAPS  C313 1578   1.990   0.117   7.827 -0.3030 -0.1472  0.4558
   12SAPS  H13X 1579   2.016   0.223   7.809 -2.3095  0.0467 -1.9724
   12SAPS  H13Y 1580   2.082   0.060   7.850  0.5935  0.0455 -2.2828
   12SAPS  C314 1581   1.898   0.105   7.941  0.6631 -0.2285 -0.0833
   12SAPS  H14X 1582   1.873  -0.003   7.946 -0.4382  0.0297  0.0519
   12SAPS  H14Y 1583   1.813   0.170   7.914  0.4503 -1.1717 -1.8172
   12SAPS  C315 1584   1.977   0.141   8.075  0.0887  0.3041 -0.5193
   12SAPS  H15X 1585   2.023   0.242   8.071  1.6443 -0.4105 -1.9128
   12SAPS  H15Y 1586   2.053   0.060   8.078  0.4410  0.6481  2.2200
   12SAPS  C316 1587   1.886   0.146   8.193  0.1664 -0.0944  0.0590
   12SAPS  H16X 1588   1.819   0.060   8.172  0.4593 -0.3167  0.0179
   12SAPS  H16Y 1589   1.838   0.246   8.189  1.5365  0.6878  1.6762
   12SAPS  C317 1590   1.964   0.108   8.320 -0.2591 -0.4640  0.2301
   12SAPS  H17X 1591   1.900   0.145   8.402  1.7259  0.7422  1.3067
   12SAPS  H17Y 1592   2.060   0.163   8.330 -0.5221 -0.1025  0.8013
   12SAPS  C318 1593   1.970  -0.041   8.333  0.4966 -0.3017 -0.9424
   12SAPS  H18X 1594   2.022  -0.074   8.426 -0.1984  3.2699  0.8628
   12SAPS  H18Y 1595   2.009  -0.088   8.240 -3.5361  0.7189 -3.3901
   12SAPS  H18Z 1596   1.867  -0.079   8.344 -0.2026  1.6836 -0.2117
   13SAPS     N 1597   0.216   0.182   5.761 -0.3441 -0.4443  1.1399
   13SAPS   HN1 1598   0.305   0.203   5.712 -2.3592 -1.2969 -3.4850
   13SAPS   HN2 1599   0.212   0.239   5.847 -1.2609 -0.5683  1.1970
   13SAPS   HN3 1600   0.219   0.085   5.799 -1.4830 -0.9863 -0.0614
   13SAPS   C12 1601   0.101   0.189   5.671  0.0057 -0.6731  0.5357
   13SAPS  H12A 1602   0.096   0.288   5.626  1.1005 -1.2879 -0.9954
   13SAPS   C13 1603   0.110   0.079   5.561 -0.1385  0.0023  0.3739
   13SAPS  O13A 1604   0.222   0.028   5.531 -0.1295  0.2304  0.7505
   13SAPS  O13B 1605   0.020   0.080   5.474 -0.3413  0.2439 -0.3693
   13SAPS   C11 1606  -0.038   0.174   5.749  1.0483 -0.4189 -0.2244
   13SAPS  H11A 1607  -0.058   0.068   5.776  2.2904  0.2075  3.8368
   13SAPS  H11B 1608  -0.127   0.205   5.689 -1.0989 -0.1807  2.8563
   13SAPS     P 1609  -0.154   0.272   5.956 -0.0360  0.0347  0.1823
   13SAPS   O13 1610  -0.209   0.409   5.939  0.1595  0.2343  0.0605
   13SAPS   O14 1611  -0.245   0.159   5.929 -0.2731  0.3056  0.3274
   13SAPS   O12 1612  -0.024   0.250   5.869  0.0781  0.0011  0.5905
   13SAPS   O11 1613  -0.084   0.271   6.100  0.3251 -0.4411  0.3075
   13SAPS    C1 1614  -0.010   0.156   6.135 -0.4778 -0.1882  0.0669
   13SAPS    HA 1615   0.040   0.107   6.049  0.1739  0.5435  0.0166
   13SAPS    HB 1616   0.072   0.190   6.202 -0.1052 -0.1946 -0.3809
   13SAPS    C2 1617  -0.093   0.057   6.227 -0.6713 -0.4174 -0.1672
   13SAPS    HS 1618  -0.189   0.033   6.176 -0.6587  1.1101 -0.9843
   13SAPS   O21 1619  -0.117   0.133   6.350 -0.1749  0.6850 -0.1063
   13SAPS   C21 1620  -0.231   0.093   6.409  0.4301 -0.1316  0.8729
   13SAPS   O22 1621  -0.314   0.016   6.367 -0.0477 -0.2388  0.2813
   13SAPS   C22 1622  -0.240   0.178   6.533 -0.4541 -0.5320  0.4144
   13SAPS   H2R 1623  -0.141   0.183   6.583  0.0958 -1.6065 -0.5297
   13SAPS   H2S 1624  -0.269   0.279   6.496 -0.6966 -1.3711 -1.8832
   13SAPS    C3 1625  -0.026  -0.083   6.264 -0.1736  0.2443  0.0429
   13SAPS    HX 1626   0.075  -0.051   6.300 -0.9250 -0.4169  3.0120
   13SAPS    HY 1627  -0.010  -0.136   6.168 -3.2547 -1.5103  0.3988
   13SAPS   O31 1628  -0.093  -0.159   6.371  0.0356 -0.7654  0.7609
   13SAPS   C31 1629  -0.140  -0.272   6.337  0.5220 -0.2332  0.3344
   13SAPS   O32 1630  -0.159  -0.307   6.218  0.0537 -0.1079 -0.0184
   13SAPS   C32 1631  -0.180  -0.351   6.465 -0.1389 -0.3041  0.2946
   13SAPS   H2X 1632  -0.101  -0.418   6.505 -0.1547 -0.4148  0.1398
   13SAPS   H2Y 1633  -0.264  -0.415   6.430 -0.0133 -1.5400  2.0880
   13SAPS   C23 1634  -0.338   0.127   6.642  0.5649  0.1138  0.3464
   13SAPS   H3R 1635  -0.293   0.029   6.669  3.2660  0.9409 -0.7973
   13SAPS   H3S 1636  -0.437   0.119   6.594  1.6961  1.4369 -2.4273
   13SAPS   C24 1637  -0.339   0.217   6.771 -1.0143  0.2538 -0.6793
   13SAPS   H4R 1638  -0.438   0.192   6.815 -1.2515  2.4349  0.1242
   13SAPS   H4S 1639  -0.353   0.324   6.747  3.3961  1.0621 -0.3305
   13SAPS   C25 1640  -0.219   0.183   6.861 -0.2375  0.0968 -0.3259
   13SAPS   H5R 1641  -0.122   0.204   6.813  0.9866 -0.1496  1.8657
   13SAPS   C26 1642  -0.210   0.144   6.990  0.5306  0.1097 -0.6013
   13SAPS   H6R 1643  -0.107   0.121   7.023  1.3660  0.2212 -2.9769
   13SAPS   C27 1644  -0.334   0.120   7.081 -0.2106 -0.3127 -0.3192
   13SAPS   H7R 1645  -0.331   0.019   7.126  1.2399 -0.6886 -1.1965
   13SAPS   H7S 1646  -0.424   0.121   7.015  0.1771 -1.0501 -0.8801
   13SAPS   C28 1647  -0.362   0.223   7.195 -0.5253  0.0638  0.4334
   13SAPS   H8R 1648  -0.373   0.327   7.161 -0.3526  0.1791  0.7231
   13SAPS   C29 1649  -0.385   0.197   7.326  0.2110  0.2472  0.3537
   13SAPS   H9R 1650  -0.387   0.278   7.400  1.7206 -0.3642  1.1132
   13SAPS  C210 1651  -0.396   0.064   7.398 -0.4978  0.2806 -0.0678
   13SAPS  H10R 1652  -0.454  -0.010   7.338  1.1213  0.2859 -1.7261
   13SAPS  H10S 1653  -0.457   0.080   7.490  3.6409 -0.1998  3.0300
   13SAPS  C211 1654  -0.272  -0.006   7.444 -0.5081  0.2985  0.1650
   13SAPS  H11R 1655  -0.188   0.019   7.378 -0.1986  2.6194  1.3553
   13SAPS  C212 1656  -0.261  -0.082   7.557 -0.1701  0.6633  0.1261
   13SAPS  H12R 1657  -0.162  -0.127   7.572  0.1208  1.1195 -0.3774
   13SAPS  C213 1658  -0.374  -0.112   7.645  1.1140  0.6645 -0.2949
   13SAPS  H13R 1659  -0.375  -0.220   7.674  1.5545 -0.0108 -2.5472
   13SAPS  H13S 1660  -0.472  -0.097   7.594  0.6141  0.0825  0.4677
   13SAPS  C214 1661  -0.378  -0.025   7.772 -0.2900  0.3927 -0.0758
   13SAPS  H14R 1662  -0.314   0.064   7.769  1.5877 -0.9188 -1.2277
   13SAPS  C215 1663  -0.456  -0.046   7.875 -0.3000 -0.1257  0.3182
   13SAPS  H15R 1664  -0.453   0.020   7.963 -0.8070  1.2176 -0.6604
   13SAPS  C216 1665  -0.559  -0.160   7.878  0.1783  0.6478 -0.5565
   13SAPS  H16R 1666  -0.510  -0.259   7.888 -0.6950  0.1427 -1.1598
   13SAPS  H16S 1667  -0.608  -0.158   7.778 -0.3968  1.6364 -0.2710
   13SAPS  C217 1668  -0.661  -0.142   7.990  0.6641  0.1831 -0.3156
   13SAPS  H17R 1669  -0.731  -0.228   7.982  0.3074  0.3071  1.2325
   13SAPS  H17S 1670  -0.714  -0.046   7.975  0.8210 -0.0805 -3.0275
   13SAPS  C218 1671  -0.601  -0.136   8.135 -0.3776 -0.1039  0.1501
   13SAPS  H18R 1672  -0.677  -0.119   8.214  0.9477 -0.8783  1.6485
   13SAPS  H18S 1673  -0.513  -0.069   8.143 -0.5002 -0.1640  3.6379
   13SAPS  C219 1674  -0.557  -0.276   8.181  0.0996 -1.0843  0.1577
   13SAPS  H19R 1675  -0.476  -0.311   8.113 -0.2500 -0.2644 -0.6947
   13SAPS  H19S 1676  -0.642  -0.347   8.170 -0.9984  0.0515  1.0788
   13SAPS  C220 1677  -0.504  -0.282   8.328 -0.6070 -0.1260  0.6983
   13SAPS  H20R 1678  -0.492  -0.387   8.362 -1.8513 -1.1578 -1.7860
   13SAPS  H20S 1679  -0.574  -0.225   8.393 -2.9055 -0.2260 -1.5454
   13SAPS  H20T 1680  -0.401  -0.240   8.327  0.2738 -2.1628 -0.8530
   13SAPS   C33 1681  -0.250  -0.264   6.573  0.7068 -0.0602 -0.7285
   13SAPS   H3X 1682  -0.299  -0.171   6.536 -1.2125 -0.8413 -0.2627
   13SAPS   H3Y 1683  -0.170  -0.235   6.644 -0.5171  0.7445  0.3549
   13SAPS   C34 1684  -0.359  -0.349   6.649  0.5696 -0.5659  0.4092
   13SAPS   H4X 1685  -0.296  -0.436   6.676  2.5899  0.5097 -0.6270
   13SAPS   H4Y 1686  -0.437  -0.373   6.573  0.9896 -0.8228  0.0540
   13SAPS   C35 1687  -0.415  -0.281   6.770 -0.0428  0.1085  0.3577
   13SAPS   H5X 1688  -0.510  -0.331   6.799 -1.1867  1.2263 -1.2801
   13SAPS   H5Y 1689  -0.437  -0.175   6.746 -0.6411 -0.1661 -0.3472
   13SAPS   C36 1690  -0.323  -0.282   6.890  0.1501 -0.3809 -0.1221
   13SAPS   H6X 1691  -0.258  -0.192   6.880 -2.2811  1.6438  1.1519
   13SAPS   H6Y 1692  -0.267  -0.378   6.888  1.1791  0.0646  2.8342
   13SAPS   C37 1693  -0.388  -0.286   7.032 -0.3980 -0.0330 -0.4042
   13SAPS   H7X 1694  -0.472  -0.358   7.022 -0.2918  0.0181 -2.0125
   13SAPS   H7Y 1695  -0.427  -0.182   7.036  0.7544  0.5102 -2.0924
   13SAPS   C38 1696  -0.293  -0.289   7.156  0.4261  0.0253 -0.1173
   13SAPS   H8X 1697  -0.349  -0.267   7.250  1.2609  1.2290  0.1204
   13SAPS   H8Y 1698  -0.213  -0.212   7.148  0.7258 -0.2989 -0.2779
   13SAPS   C39 1699  -0.231  -0.426   7.187 -0.1742  1.1332 -0.2213
   13SAPS   H9X 1700  -0.128  -0.410   7.225  0.6559 -0.5725 -1.5697
   13SAPS   H9Y 1701  -0.215  -0.477   7.090 -0.0817  0.9701 -0.1220
   13SAPS  C310 1702  -0.298  -0.515   7.292  0.3483  0.0915  0.5969
   13SAPS  H10X 1703  -0.267  -0.621   7.282 -1.0184 -0.2930  0.1506
   13SAPS  H10Y 1704  -0.409  -0.505   7.291  0.3522  0.6041  2.1025
   13SAPS  C311 1705  -0.248  -0.469   7.429 -0.7231 -0.4094  0.0660
   13SAPS  H11X 1706  -0.293  -0.368   7.440 -0.7181 -0.1776 -1.7713
   13SAPS  H11Y 1707  -0.136  -0.472   7.431 -0.7358 -2.0826  2.0373
   13SAPS  C312 1708  -0.306  -0.558   7.545 -0.0944 -0.4293 -0.4405
   13SAPS  H12X 1709  -0.287  -0.664   7.521  0.0496 -0.4064 -0.4261
   13SAPS  H12Y 1710  -0.416  -0.539   7.545 -0.0961 -0.2604 -2.2997
   13SAPS  C313 1711  -0.238  -0.528   7.680  0.3958 -0.3344  0.0933
   13SAPS  H13X 1712  -0.228  -0.423   7.713  1.3819 -0.8200  1.4440
   13SAPS  H13Y 1713  -0.139  -0.577   7.666 -0.7162 -1.9375 -3.2952
   13SAPS  C314 1714  -0.320  -0.587   7.793  0.4094  0.5370 -0.1405
   13SAPS  H14X 1715  -0.339  -0.695   7.778  0.4591  0.5263 -0.1235
   13SAPS  H14Y 1716  -0.422  -0.545   7.781  0.0824 -0.0620  0.4815
   13SAPS  C315 1717  -0.276  -0.554   7.932  0.5862  0.2775 -0.5470
   13SAPS  H15X 1718  -0.285  -0.443   7.930  1.6886  0.3947  0.0392
   13SAPS  H15Y 1719  -0.170  -0.577   7.958  1.3813  4.5547  0.7788
   13SAPS  C316 1720  -0.363  -0.626   8.033  0.5777 -0.1010 -0.0298
   13SAPS  H16X 1721  -0.337  -0.734   8.028 -0.0952 -0.3619  1.6025
   13SAPS  H16Y 1722  -0.471  -0.609   8.016  0.6171  1.6385  1.1426
   13SAPS  C317 1723  -0.326  -0.588   8.180 -0.2861  0.5327  0.4564
   13SAPS  H17X 1724  -0.352  -0.483   8.204  0.1860  0.9097 -0.6124
   13SAPS  H17Y 1725  -0.216  -0.603   8.184 -0.3929 -0.8186 -0.8433
   13SAPS  C318 1726  -0.384  -0.679   8.291  0.2699  0.0459  0.3590
   13SAPS  H18X 1727  -0.336  -0.650   8.386 -0.9420  2.1512  0.3859
   13SAPS  H18Y 1728  -0.369  -0.787   8.269 -1.5969 -0.0368 -0.7296
   13SAPS  H18Z 1729  -0.491  -0.652   8.300  0.1234 -0.9956  2.4012
   14SAPS     N 1730   2.612   6.568   5.950  0.0453  0.3689  0.6273
   14SAPS   HN1 1731   2.521   6.526   5.925 -1.1316  0.5764  3.9991
   14SAPS   HN2 1732   2.681   6.503   5.907  0.0594  1.2324 -0.6892
   14SAPS   HN3 1733   2.622   6.573   6.054  2.4231  0.6531  0.4586
   14SAPS   C12 1734   2.614   6.700   5.895  0.1790 -0.4648  0.9522
   14SAPS  H12A 1735   2.619   6.771   5.977 -1.3006  1.7705 -0.7650
   14SAPS   C13 1736   2.729   6.736   5.794 -0.7686  0.4358 -0.8224
   14SAPS  O13A 1737   2.823   6.650   5.780 -0.0144  0.3315  0.2049
   14SAPS  O13B 1738   2.741   6.859   5.766 -0.6409 -0.2927 -0.1856
   14SAPS   C11 1739   2.478   6.725   5.818  0.1651 -0.0743 -0.0341
   14SAPS  H11A 1740   2.458   6.831   5.788  1.7939  0.1115 -0.5487
   14SAPS  H11B 1741   2.383   6.717   5.876  0.4274  2.6295  0.9505
   14SAPS     P 1742   2.389   6.510   5.682 -0.1175 -0.6235 -0.1236
   14SAPS   O13 1743   2.254   6.525   5.620 -0.4939 -0.2352 -0.2975
   14SAPS   O14 1744   2.476   6.407   5.632  0.3172  0.4097 -0.1977
   14SAPS   O12 1745   2.471   6.646   5.698 -0.0058 -0.3994  0.2643
   14SAPS   O11 1746   2.369   6.478   5.838  0.3289 -0.2073  0.3555
   14SAPS    C1 1747   2.353   6.342   5.871  0.7454  0.2541 -0.5536
   14SAPS    HA 1748   2.309   6.282   5.789  0.7213 -0.3826 -0.0834
   14SAPS    HB 1749   2.451   6.294   5.893  1.5486  1.5798 -1.1654
   14SAPS    C2 1750   2.277   6.314   6.005  0.4518  0.0687 -0.2222
   14SAPS    HS 1751   2.291   6.204   6.019 -1.8271 -0.4463 -1.5397
   14SAPS   O21 1752   2.139   6.342   5.981  0.0947 -0.3183 -0.1840
   14SAPS   C21 1753   2.048   6.260   6.034 -0.0273 -0.7683 -0.7636
   14SAPS   O22 1754   2.077   6.148   6.071 -0.0217 -0.1122  0.3430
   14SAPS   C22 1755   1.907   6.318   6.000 -0.3867  0.2745 -0.5918
   14SAPS   H2R 1756   1.914   6.425   6.030 -2.7699  0.6996 -1.3218
   14SAPS   H2S 1757   1.894   6.310   5.890 -1.8531  0.8557 -0.4855
   14SAPS    C3 1758   2.331   6.393   6.132  0.2102  0.3211  0.8920
   14SAPS    HX 1759   2.323   6.504   6.124  1.6524  0.3753 -0.5319
   14SAPS    HY 1760   2.439   6.369   6.147 -0.0021 -1.0515  0.3958
   14SAPS   O31 1761   2.275   6.352   6.254 -0.5119  0.1487  0.2823
   14SAPS   C31 1762   2.299   6.427   6.361 -0.2374 -0.1499 -0.4469
   14SAPS   O32 1763   2.378   6.520   6.355 -0.0200 -0.1975 -0.3632
   14SAPS   C32 1764   2.195   6.391   6.467 -0.0491 -0.5420 -0.3346
   14SAPS   H2X 1765   2.222   6.288   6.499  1.4936 -0.5468 -1.5240
   14SAPS   H2Y 1766   2.097   6.393   6.414  0.7488 -0.0115 -1.8472
   14SAPS   C23 1767   1.791   6.254   6.080  0.1013 -0.2627 -0.6925
   14SAPS   H3R 1768   1.769   6.150   6.049  0.3640 -0.6824  0.4897
   14SAPS   H3S 1769   1.700   6.315   6.058 -0.1302 -0.3126  0.1031
   14SAPS   C24 1770   1.819   6.265   6.228  0.4026  0.1397  0.0103
   14SAPS   H4R 1771   1.858   6.367   6.252 -2.3907  1.1112  0.8617
   14SAPS   H4S 1772   1.894   6.188   6.257 -2.3106 -2.8698 -0.4622
   14SAPS   C25 1773   1.687   6.251   6.302 -0.3095 -0.2391  0.1378
   14SAPS   H5R 1774   1.595   6.272   6.246 -0.1078 -2.7055 -1.2272
   14SAPS   C26 1775   1.656   6.215   6.431  0.6311 -0.2667 -0.7646
   14SAPS   H6R 1776   1.551   6.207   6.463  1.3094  0.9274  2.0667
   14SAPS   C27 1777   1.746   6.171   6.543  0.4946 -0.3965 -0.2691
   14SAPS   H7R 1778   1.848   6.196   6.507 -0.2198  2.2359 -0.6701
   14SAPS   H7S 1779   1.739   6.062   6.564 -3.5666 -0.4826 -1.3499
   14SAPS   C28 1780   1.711   6.258   6.660  0.3674 -0.2029 -0.3472
   14SAPS   H8R 1781   1.692   6.363   6.634 -1.1676 -0.3278  0.1883
   14SAPS   C29 1782   1.689   6.225   6.793 -1.2778  0.2301 -0.0523
   14SAPS   H9R 1783   1.658   6.306   6.860 -3.0543 -0.3052 -0.1838
   14SAPS  C210 1784   1.692   6.086   6.856 -0.0133  0.1054 -0.0813
   14SAPS  H10R 1785   1.774   6.079   6.930 -0.8631 -0.3688  0.8443
   14SAPS  H10S 1786   1.714   6.020   6.770 -2.0716  3.2959 -3.3925
   14SAPS  C211 1787   1.569   6.046   6.923  0.3797 -0.6959  0.2488
   14SAPS  H11R 1788   1.480   6.093   6.880 -0.4568 -1.0730  1.5113
   14SAPS  C212 1789   1.558   5.980   7.036  0.1343  1.0789  0.2059
   14SAPS  H12R 1790   1.456   5.958   7.072  0.8891 -1.6236  0.9635
   14SAPS  C213 1791   1.666   5.918   7.125  0.2545  0.1688 -0.4811
   14SAPS  H13R 1792   1.766   5.901   7.080  1.6272  2.7427  1.2767
   14SAPS  H13S 1793   1.625   5.823   7.164 -0.5616  0.9580  0.6813
   14SAPS  C214 1794   1.688   6.011   7.247 -0.1182 -0.2970  0.6345
   14SAPS  H14R 1795   1.761   6.089   7.220 -0.7779  0.3251  0.6038
   14SAPS  C215 1796   1.630   5.999   7.367 -0.3068  0.5821  0.2902
   14SAPS  H15R 1797   1.654   6.066   7.451  0.2372  1.9645 -0.9093
   14SAPS  C216 1798   1.524   5.900   7.409 -0.7169  0.4977 -0.2103
   14SAPS  H16R 1799   1.564   5.813   7.466  0.0490  1.5901  0.9777
   14SAPS  H16S 1800   1.476   5.859   7.318 -0.6931 -0.1333  0.0571
   14SAPS  C217 1801   1.414   5.952   7.497  0.0329 -0.1288 -0.9212
   14SAPS  H17R 1802   1.375   6.044   7.448 -0.5948  0.7138  1.0476
   14SAPS  H17S 1803   1.453   5.975   7.599  0.2931 -1.0462 -0.8041
   14SAPS  C218 1804   1.286   5.857   7.503  0.0250 -1.1226 -0.2353
   14SAPS  H18R 1805   1.204   5.922   7.539  1.9768  0.7357  1.1321
   14SAPS  H18S 1806   1.298   5.789   7.590 -0.0144 -1.4438 -0.4782
   14SAPS  C219 1807   1.247   5.771   7.385  0.6848 -0.0289  0.4004
   14SAPS  H19R 1808   1.325   5.694   7.366 -2.2353 -2.7469 -1.7134
   14SAPS  H19S 1809   1.227   5.832   7.294  0.0347 -0.8976 -0.0571
   14SAPS  C220 1810   1.120   5.694   7.404 -0.5494 -1.0559 -0.1149
   14SAPS  H20R 1811   1.125   5.624   7.490 -0.3453  1.5794  2.1620
   14SAPS  H20S 1812   1.105   5.637   7.310  0.7654 -1.8246  0.1216
   14SAPS  H20T 1813   1.033   5.762   7.419  1.7488  2.3482 -1.1231
   14SAPS   C33 1814   2.177   6.504   6.577  0.2856 -0.0487 -0.2170
   14SAPS   H3X 1815   2.134   6.593   6.525 -0.3788 -0.4281 -0.3332
   14SAPS   H3Y 1816   2.278   6.532   6.613  0.6990 -0.0852 -1.3182
   14SAPS   C34 1817   2.069   6.466   6.680 -0.5823  0.3408  0.9057
   14SAPS   H4X 1818   2.099   6.363   6.710 -2.3205 -0.7842 -0.9546
   14SAPS   H4Y 1819   1.970   6.448   6.634 -0.3607  1.6791 -0.1366
   14SAPS   C35 1820   2.049   6.554   6.802  0.1115 -1.1478  0.2867
   14SAPS   H5X 1821   2.004   6.653   6.777  1.0985 -0.6003  0.5923
   14SAPS   H5Y 1822   2.144   6.568   6.858  1.2088 -1.0587 -1.5199
   14SAPS   C36 1823   1.953   6.481   6.902 -0.0382 -0.1277 -0.2482
   14SAPS   H6X 1824   2.006   6.393   6.943 -0.2256 -2.1503 -3.9790
   14SAPS   H6Y 1825   1.872   6.434   6.843  2.2705 -2.0963 -2.0831
   14SAPS   C37 1826   1.910   6.560   7.020 -0.1337  0.1447 -0.0798
   14SAPS   H7X 1827   1.827   6.622   6.979  0.4106  0.6912 -0.3694
   14SAPS   H7Y 1828   1.991   6.631   7.045  0.6926 -1.2718  1.4893
   14SAPS   C38 1829   1.859   6.476   7.141  0.4280 -0.2041 -0.4645
   14SAPS   H8X 1830   1.948   6.441   7.198  0.7128  2.8637  1.2391
   14SAPS   H8Y 1831   1.789   6.396   7.109  2.5144 -2.2261 -0.2120
   14SAPS   C39 1832   1.799   6.560   7.252  0.1122 -0.3053 -0.7869
   14SAPS   H9X 1833   1.697   6.597   7.228  1.1415  1.1349 -3.3679
   14SAPS   H9Y 1834   1.851   6.657   7.269  1.2700 -1.3281  2.0919
   14SAPS  C310 1835   1.809   6.493   7.391 -0.2287  0.6878 -1.2300
   14SAPS  H10X 1836   1.804   6.573   7.467  1.9353 -0.7799  0.5916
   14SAPS  H10Y 1837   1.899   6.430   7.408 -0.3445  0.6370 -0.7863
   14SAPS  C311 1838   1.680   6.407   7.422  0.1203 -0.0878  0.1551
   14SAPS  H11X 1839   1.699   6.325   7.350  0.2448  1.1663 -1.2819
   14SAPS  H11Y 1840   1.588   6.462   7.395 -0.0893 -0.1195  0.7776
   14SAPS  C312 1841   1.675   6.361   7.567 -0.7050 -0.1919 -0.2587
   14SAPS  H12X 1842   1.690   6.456   7.623  0.3099 -0.2968 -0.3359
   14SAPS  H12Y 1843   1.753   6.292   7.605 -0.2411  0.0264 -0.8132
   14SAPS  C313 1844   1.535   6.310   7.608  0.1163 -0.3928 -0.6385
   14SAPS  H13X 1845   1.505   6.222   7.546  0.7540 -1.4964  0.5606
   14SAPS  H13Y 1846   1.465   6.395   7.595  2.0327  1.9774  2.9058
   14SAPS  C314 1847   1.519   6.264   7.754 -0.5931  0.9679 -0.3515
   14SAPS  H14X 1848   1.546   6.352   7.816  1.6253  0.7146 -0.8654
   14SAPS  H14Y 1849   1.596   6.189   7.781 -0.6984  0.8092 -0.4965
   14SAPS  C315 1850   1.380   6.210   7.799  0.0264 -0.0411  0.0192
   14SAPS  H15X 1851   1.362   6.110   7.754  1.5289  0.1755 -1.1551
   14SAPS  H15Y 1852   1.298   6.280   7.771 -1.1038 -1.2645  0.1411
   14SAPS  C316 1853   1.374   6.190   7.953  0.5328  0.2878 -0.4219
   14SAPS  H16X 1854   1.377   6.285   8.011 -0.7744  0.9575 -1.4004
   14SAPS  H16Y 1855   1.453   6.117   7.983 -0.0882 -0.1259  0.2621
   14SAPS  C317 1856   1.235   6.135   7.994 -0.1094  0.1767  0.7695
   14SAPS  H17X 1857   1.209   6.047   7.932  1.9222 -0.3801  0.6506
   14SAPS  H17Y 1858   1.161   6.215   7.972  0.4686  0.5255  0.0509
   14SAPS  C318 1859   1.239   6.083   8.133 -0.0046 -0.8577  0.7952
   14SAPS  H18X 1860   1.293   6.147   8.205 -1.8793  2.5304 -0.5905
   14SAPS  H18Y 1861   1.277   5.978   8.139 -0.9921 -1.2007  1.1908
   14SAPS  H18Z 1862   1.135   6.075   8.171  0.2596 -2.4844  1.2417
   15SAPS     N 1863   2.474   5.961   6.309 -0.3416  0.0593  0.8742
   15SAPS   HN1 1864   2.501   5.912   6.396  0.1846 -2.3179 -0.5321
   15SAPS   HN2 1865   2.507   6.060   6.306 -1.1928  0.3530  0.9234
   15SAPS   HN3 1866   2.371   5.966   6.295 -0.2731 -2.0971 -1.2097
   15SAPS   C12 1867   2.521   5.884   6.183  0.0609 -0.1767  0.4533
   15SAPS  H12A 1868   2.622   5.850   6.196  0.2572 -0.2676 -1.1682
   15SAPS   C13 1869   2.450   5.753   6.157  0.4634 -0.2668 -1.2955
   15SAPS  O13A 1870   2.357   5.713   6.229  0.6315 -0.8842  0.4030
   15SAPS  O13B 1871   2.493   5.677   6.071  0.5373  0.2099  0.7742
   15SAPS   C11 1872   2.500   5.980   6.064  0.2370  0.2423 -0.5400
   15SAPS  H11A 1873   2.391   5.971   6.049  0.2836  1.4803 -2.0038
   15SAPS  H11B 1874   2.553   5.930   5.979  0.6610  0.0896 -0.1884
   15SAPS     P 1875   2.684   6.172   6.089  0.2748  0.2444 -0.2869
   15SAPS   O13 1876   2.747   6.153   5.960 -0.1046 -0.1386 -0.2354
   15SAPS   O14 1877   2.682   6.307   6.145 -0.3781  0.0411  0.2073
   15SAPS   O12 1878   2.531   6.120   6.082  0.0026 -0.3999  0.3389
   15SAPS   O11 1879   2.746   6.070   6.189  0.1373 -0.1683  0.4514
   15SAPS    C1 1880   2.871   6.093   6.261 -0.1701 -0.2995  0.7361
   15SAPS    HA 1881   2.943   6.021   6.216 -0.7352 -0.0988 -0.5484
   15SAPS    HB 1882   2.922   6.190   6.242  0.7809 -0.9036  0.0662
   15SAPS    C2 1883   2.862   6.083   6.415  0.0218  0.2380 -0.0314
   15SAPS    HS 1884   2.792   6.006   6.456 -1.6288  2.9229  2.6345
   15SAPS   O21 1885   2.821   6.204   6.481 -0.0790 -0.1115 -0.0691
   15SAPS   C21 1886   2.693   6.232   6.475 -0.2652 -0.2441  0.2962
   15SAPS   O22 1887   2.609   6.169   6.412  0.1266  0.0258  0.8239
   15SAPS   C22 1888   2.668   6.355   6.561 -0.3794 -0.3868 -0.2057
   15SAPS   H2R 1889   2.768   6.396   6.584 -1.2908  0.1402  3.4165
   15SAPS   H2S 1890   2.615   6.424   6.492 -0.0550 -0.8628 -0.9527
   15SAPS    C3 1891   2.994   6.054   6.486 -0.8240 -0.1682  0.4886
   15SAPS    HX 1892   3.079   6.111   6.443  1.5298 -3.3499  0.5723
   15SAPS    HY 1893   3.018   5.948   6.461 -0.7771 -0.3393  1.2248
   15SAPS   O31 1894   2.982   6.059   6.625  0.1065 -0.5678 -0.0530
   15SAPS   C31 1895   3.014   6.180   6.682 -0.4525  0.4116  0.3423
   15SAPS   O32 1896   3.082   6.263   6.631 -0.6755 -0.8840 -0.3665
   15SAPS   C32 1897   2.969   6.184   6.826 -0.1194 -0.0694  0.7303
   15SAPS   H2X 1898   3.033   6.107   6.875 -0.8695  0.1921  2.1967
   15SAPS   H2Y 1899   2.859   6.164   6.825 -0.3298  0.9616  1.6654
   15SAPS   C23 1900   2.593   6.316   6.691  0.2903  0.0852 -0.0142
   15SAPS   H3R 1901   2.657   6.265   6.766  0.2137 -2.1631 -1.3627
   15SAPS   H3S 1902   2.518   6.243   6.653 -0.6442  2.2372 -2.6761
   15SAPS   C24 1903   2.520   6.442   6.754  0.0807  0.4514  0.1457
   15SAPS   H4R 1904   2.494   6.517   6.676 -1.2869  2.4665  2.3786
   15SAPS   H4S 1905   2.590   6.499   6.818 -1.1295  2.4862 -0.2561
   15SAPS   C25 1906   2.395   6.412   6.844 -0.2121  0.7180 -0.1302
   15SAPS   H5R 1907   2.318   6.352   6.794 -2.6702  3.2960  0.2846
   15SAPS   C26 1908   2.368   6.453   6.970 -0.0325 -0.5105  0.7199
   15SAPS   H6R 1909   2.278   6.407   7.013 -1.9952  1.1760 -1.2762
   15SAPS   C27 1910   2.450   6.531   7.067 -0.6239 -0.4189 -0.8583
   15SAPS   H7R 1911   2.391   6.624   7.079 -0.8759 -0.8070  1.5469
   15SAPS   H7S 1912   2.545   6.546   7.011 -0.6972  1.5211 -0.5429
   15SAPS   C28 1913   2.476   6.468   7.200  0.3432  0.1812  0.1787
   15SAPS   H8R 1914   2.564   6.403   7.207 -0.1045 -0.3711  0.8295
   15SAPS   C29 1915   2.401   6.478   7.314  0.2959  0.4137 -0.0681
   15SAPS   H9R 1916   2.446   6.435   7.404 -0.6433  1.2272  0.8067
   15SAPS  C210 1917   2.286   6.573   7.323  0.3653 -0.4210 -0.2185
   15SAPS  H10R 1918   2.230   6.567   7.227  0.9913 -1.1786 -0.5514
   15SAPS  H10S 1919   2.317   6.679   7.323 -0.8300 -0.0348 -1.6530
   15SAPS  C211 1920   2.181   6.532   7.424  0.2348 -0.4124 -0.3723
   15SAPS  H11R 1921   2.087   6.507   7.374  0.2681  1.8650 -1.7536
   15SAPS  C212 1922   2.180   6.538   7.561 -0.3518  0.4536 -0.7642
   15SAPS  H12R 1923   2.094   6.508   7.622  0.4481  0.7050  0.5339
   15SAPS  C213 1924   2.289   6.591   7.646 -0.6862  1.0366 -1.1405
   15SAPS  H13R 1925   2.232   6.664   7.707 -0.9233  0.4831 -0.6876
   15SAPS  H13S 1926   2.373   6.644   7.597  1.8862  0.1106  1.9232
   15SAPS  C214 1927   2.352   6.490   7.735  0.2212 -0.6544  0.2861
   15SAPS  H14R 1928   2.440   6.439   7.693 -1.0530 -0.9241 -2.2443
   15SAPS  C215 1929   2.328   6.462   7.867  1.1489  0.6231  0.2938
   15SAPS  H15R 1930   2.400   6.395   7.916  3.0400  3.0708  1.0890
   15SAPS  C216 1931   2.214   6.512   7.951  0.0759 -0.0380  0.1150
   15SAPS  H16R 1932   2.155   6.587   7.895 -0.9915 -0.1109  1.0910
   15SAPS  H16S 1933   2.247   6.574   8.037 -4.2716  1.3382  1.0535
   15SAPS  C217 1934   2.128   6.393   7.993  0.6108 -0.1685 -0.4216
   15SAPS  H17R 1935   2.184   6.306   8.032 -0.1308 -0.4362  0.0554
   15SAPS  H17S 1936   2.079   6.353   7.902 -2.4211 -4.2081  2.6127
   15SAPS  C218 1937   2.027   6.437   8.104  0.2784 -0.2519 -0.2619
   15SAPS  H18R 1938   2.092   6.467   8.190  0.4267  2.0920 -1.1157
   15SAPS  H18S 1939   1.971   6.352   8.149  0.0640  0.1471  0.2300
   15SAPS  C219 1940   1.933   6.552   8.061 -0.1216  0.4533 -0.4556
   15SAPS  H19R 1941   1.996   6.640   8.036  1.6470 -0.9815 -1.2845
   15SAPS  H19S 1942   1.867   6.575   8.147  0.0136 -0.9555  0.0551
   15SAPS  C220 1943   1.843   6.516   7.945  0.2074 -0.3824  1.2542
   15SAPS  H20R 1944   1.781   6.427   7.970  0.0112  0.3342  3.6247
   15SAPS  H20S 1945   1.905   6.497   7.855 -0.3752  2.5615  0.1461
   15SAPS  H20T 1946   1.774   6.598   7.918 -0.1014 -1.3193 -0.9896
   15SAPS   C33 1947   2.991   6.319   6.891 -0.8186  0.0610  0.3557
   15SAPS   H3X 1948   2.946   6.400   6.829  0.5267 -1.0433 -2.2405
   15SAPS   H3Y 1949   3.101   6.330   6.890 -0.8415  0.4177  1.1628
   15SAPS   C34 1950   2.914   6.320   7.025 -0.4119 -0.0834 -0.7142
   15SAPS   H4X 1951   2.948   6.230   7.081 -1.7393  0.4864  1.0913
   15SAPS   H4Y 1952   2.805   6.305   7.012 -0.7244  1.8795 -0.6959
   15SAPS   C35 1953   2.916   6.456   7.097  0.4416  0.0935 -0.2691
   15SAPS   H5X 1954   2.859   6.534   7.043  2.2288  1.0539 -0.8602
   15SAPS   H5Y 1955   3.025   6.476   7.087  0.2733  0.0734 -2.9382
   15SAPS   C36 1956   2.872   6.433   7.241  0.3556  0.3983  0.1551
   15SAPS   H6X 1957   2.943   6.367   7.295 -0.2024 -0.7998 -0.5298
   15SAPS   H6Y 1958   2.774   6.380   7.232  0.5324 -0.2585  1.7355
   15SAPS   C37 1959   2.845   6.563   7.313  0.2066  0.4042 -0.1101
   15SAPS   H7X 1960   2.745   6.608   7.293  0.0671  0.6481  1.0554
   15SAPS   H7Y 1961   2.918   6.640   7.279 -0.2706  1.0478  0.2792
   15SAPS   C38 1962   2.857   6.551   7.465  0.4832  0.3592  0.0842
   15SAPS   H8X 1963   2.819   6.644   7.512 -0.2706 -0.4223  1.0571
   15SAPS   H8Y 1964   2.962   6.543   7.500  0.9648 -1.7069 -1.6426
   15SAPS   C39 1965   2.763   6.439   7.517 -0.0100  0.0710  0.4070
   15SAPS   H9X 1966   2.782   6.336   7.480 -0.2927 -0.7688  2.4500
   15SAPS   H9Y 1967   2.665   6.468   7.472 -0.1978 -1.5756 -0.3241
   15SAPS  C310 1968   2.741   6.432   7.669  0.3172  0.0765 -0.3066
   15SAPS  H10X 1969   2.837   6.396   7.714  1.0132  2.0738 -0.1107
   15SAPS  H10Y 1970   2.656   6.364   7.692 -0.8198  1.9550  1.3431
   15SAPS  C311 1971   2.707   6.565   7.741 -0.0521  0.3624 -0.3630
   15SAPS  H11X 1972   2.606   6.589   7.701 -0.2878  1.3361  0.7594
   15SAPS  H11Y 1973   2.779   6.645   7.712 -0.9869  1.0546 -0.8299
   15SAPS  C312 1974   2.703   6.558   7.900  0.5923  0.1854  1.4328
   15SAPS  H12X 1975   2.632   6.482   7.940  0.9645 -0.2080  1.3569
   15SAPS  H12Y 1976   2.665   6.657   7.932  2.9757  1.2371  1.1913
   15SAPS  C313 1977   2.835   6.564   7.973  0.2317  0.5889  0.4221
   15SAPS  H13X 1978   2.901   6.632   7.916  2.2442 -0.5405  1.3092
   15SAPS  H13Y 1979   2.891   6.468   7.969 -0.2918  0.3231 -1.3697
   15SAPS  C314 1980   2.849   6.612   8.122  1.0957  0.0661  1.1330
   15SAPS  H14X 1981   2.954   6.592   8.149  1.3066 -1.9070 -0.9270
   15SAPS  H14Y 1982   2.788   6.560   8.199 -2.7805 -1.2318 -2.4017
   15SAPS  C315 1983   2.832   6.765   8.138 -0.4043 -0.7047  0.2405
   15SAPS  H15X 1984   2.724   6.790   8.129 -1.0081 -3.2368 -0.3860
   15SAPS  H15Y 1985   2.881   6.814   8.051  1.9160 -2.5739  0.3852
   15SAPS  C316 1986   2.886   6.824   8.269 -0.2599  0.6119  0.2993
   15SAPS  H16X 1987   2.995   6.842   8.277 -0.2833  1.4436 -1.0242
   15SAPS  H16Y 1988   2.862   6.750   8.349 -2.5006  0.6306 -0.3022
   15SAPS  C317 1989   2.823   6.961   8.291  0.1075 -0.0208  0.6981
   15SAPS  H17X 1990   2.713   6.960   8.279  0.1341  1.6966  0.0306
   15SAPS  H17Y 1991   2.856   7.034   8.214 -2.2046 -0.1775 -0.5171
   15SAPS  C318 1992   2.862   7.030   8.422  0.1322 -0.3708 -0.4362
   15SAPS  H18X 1993   2.806   7.125   8.426 -2.1445 -1.6649  0.1060
   15SAPS  H18Y 1994   2.973   7.030   8.431  0.1457 -4.0222  1.2255
   15SAPS  H18Z 1995   2.816   6.968   8.502 -0.2934 -1.4061 -1.4546
   16SAPS     N 1996   4.492   4.042   6.470 -0.0051 -0.1634 -0.1511
   16SAPS   HN1 1997   4.389   4.030   6.456 -0.1676  1.8554 -1.1224
   16SAPS   HN2 1998   4.529   4.031   6.566 -0.6274 -1.4366 -0.0418
   16SAPS   HN3 1999   4.508   4.142   6.447  0.7196 -0.6662 -2.0116
   16SAPS   C12 2000   4.562   3.956   6.376 -0.2175  0.8305 -0.4529
   16SAPS  H12A 2001   4.539   3.982   6.274  0.1422  1.4190 -0.3852
   16SAPS   C13 2002   4.720   3.954   6.378  0.1749  0.5786 -0.2941
   16SAPS  O13A 2003   4.787   4.029   6.457  0.4950  0.2825  0.0467
   16SAPS  O13B 2004   4.777   3.867   6.304 -0.1724 -0.0079 -0.1048
   16SAPS   C11 2005   4.516   3.810   6.396  0.1043 -0.2448  0.0399
   16SAPS  H11A 2006   4.561   3.769   6.489  0.7287  0.8511  0.2350
   16SAPS  H11B 2007   4.549   3.757   6.304  0.2422  0.2734 -0.2171
   16SAPS     P 2008   4.313   3.652   6.443 -0.1900  0.0375 -0.0485
   16SAPS   O13 2009   4.212   3.615   6.347 -0.0294  0.4179 -0.0246
   16SAPS   O14 2010   4.426   3.563   6.464 -0.3850  0.3887 -0.1639
   16SAPS   O12 2011   4.375   3.794   6.402  0.0426 -0.0010 -0.4530
   16SAPS   O11 2012   4.240   3.668   6.586  0.1368 -0.0271 -0.3622
   16SAPS    C1 2013   4.243   3.788   6.665 -1.0375  0.0113  0.9386
   16SAPS    HA 2014   4.233   3.872   6.594  0.3626  0.8703  1.7245
   16SAPS    HB 2015   4.148   3.795   6.722 -0.5377  1.4439  1.6215
   16SAPS    C2 2016   4.363   3.799   6.755 -0.4404 -0.7067  0.4153
   16SAPS    HS 2017   4.453   3.773   6.696 -0.2550  0.5000  0.1339
   16SAPS   O21 2018   4.369   3.703   6.865 -0.0500  0.0914 -0.4671
   16SAPS   C21 2019   4.279   3.684   6.954  0.0613 -0.4540  0.4161
   16SAPS   O22 2020   4.174   3.745   6.955  0.0047 -0.2144 -0.0560
   16SAPS   C22 2021   4.339   3.596   7.061 -0.3625  0.0836 -0.2087
   16SAPS   H2R 2022   4.260   3.593   7.139 -0.5230  0.2726 -0.3618
   16SAPS   H2S 2023   4.358   3.497   7.015 -0.2021 -0.0323  0.1048
   16SAPS    C3 2024   4.377   3.946   6.805  0.3769 -0.0907  0.5330
   16SAPS    HX 2025   4.288   3.971   6.866  0.0009  0.9331 -0.3908
   16SAPS    HY 2026   4.353   4.025   6.730 -0.8936  0.1089  1.1196
   16SAPS   O31 2027   4.489   3.969   6.892 -0.0806 -0.3718  0.4271
   16SAPS   C31 2028   4.600   3.996   6.824 -0.9874  0.8122  0.4127
   16SAPS   O32 2029   4.605   4.000   6.701 -0.2647  0.4033 -0.2461
   16SAPS   C32 2030   4.713   4.012   6.929 -0.0714  0.1040 -0.1404
   16SAPS   H2X 2031   4.810   4.007   6.876  0.2946 -1.7213  0.6326
   16SAPS   H2Y 2032   4.714   3.922   6.993  1.6665 -0.3436 -0.7598
   16SAPS   C23 2033   4.470   3.648   7.113 -0.4518  0.9932 -0.5039
   16SAPS   H3R 2034   4.551   3.640   7.038  0.8625 -2.3251  1.0447
   16SAPS   H3S 2035   4.507   3.567   7.180 -2.2082 -1.7667 -2.6586
   16SAPS   C24 2036   4.473   3.777   7.192  0.6919 -0.3628 -0.9122
   16SAPS   H4R 2037   4.494   3.867   7.132 -1.1624 -0.0971 -1.2335
   16SAPS   H4S 2038   4.558   3.765   7.263  1.0888  0.3829 -1.2597
   16SAPS   C25 2039   4.349   3.815   7.270 -0.8352  1.1769  0.6114
   16SAPS   H5R 2040   4.288   3.888   7.216 -2.8430 -0.8547 -0.0246
   16SAPS   C26 2041   4.310   3.775   7.390  1.0387 -0.2823 -0.9641
   16SAPS   H6R 2042   4.224   3.821   7.440  1.4384 -0.7832  0.2191
   16SAPS   C27 2043   4.360   3.668   7.481  0.2592 -0.6258 -0.4225
   16SAPS   H7R 2044   4.451   3.621   7.437  1.4073  0.5048  0.6341
   16SAPS   H7S 2045   4.276   3.598   7.500  0.5272 -0.4020  1.8940
   16SAPS   C28 2046   4.414   3.734   7.607 -0.0580  0.0585 -0.4225
   16SAPS   H8R 2047   4.491   3.811   7.588  0.6598 -1.1825 -2.9392
   16SAPS   C29 2048   4.389   3.705   7.732 -0.0613 -0.6154  0.4696
   16SAPS   H9R 2049   4.438   3.774   7.802  0.1400  1.0557 -1.2514
   16SAPS  C210 2050   4.297   3.599   7.775 -0.0648  0.0488 -0.4295
   16SAPS  H10R 2051   4.311   3.512   7.707 -1.0949 -0.3655 -0.1376
   16SAPS  H10S 2052   4.189   3.616   7.755  0.1154  0.7315 -0.8415
   16SAPS  C211 2053   4.312   3.536   7.911  0.2057 -0.0767  0.4908
   16SAPS  H11R 2054   4.311   3.426   7.912 -2.8263 -0.1417  0.1200
   16SAPS  C212 2055   4.297   3.590   8.036 -0.2524  1.0342  0.5033
   16SAPS  H12R 2056   4.323   3.530   8.125 -1.5335 -0.2485  0.0511
   16SAPS  C213 2057   4.267   3.734   8.065  0.3720  0.5970 -0.2369
   16SAPS  H13R 2058   4.357   3.790   8.032  0.4535  0.8986  0.4761
   16SAPS  H13S 2059   4.274   3.746   8.176 -0.8633 -0.9963  0.0584
   16SAPS  C214 2060   4.140   3.801   8.016  0.5027 -0.4998  0.7439
   16SAPS  H14R 2061   4.126   3.785   7.908 -1.1000 -2.0634  1.1329
   16SAPS  C215 2062   4.049   3.871   8.089  0.1553  0.0446  0.2149
   16SAPS  H15R 2063   3.961   3.910   8.036 -0.3158 -2.5010 -1.0063
   16SAPS  C216 2064   4.053   3.899   8.239 -0.6687 -0.2358 -0.2537
   16SAPS  H16R 2065   4.109   3.995   8.251 -2.5915  0.9500 -0.2669
   16SAPS  H16S 2066   4.116   3.823   8.290 -0.0835 -0.9811 -2.0085
   16SAPS  C217 2067   3.924   3.920   8.302  0.1183 -0.2567  0.3345
   16SAPS  H17R 2068   3.854   3.837   8.280 -0.8310  0.1913  1.5246
   16SAPS  H17S 2069   3.867   4.001   8.252  1.9275  0.4827 -0.6191
   16SAPS  C218 2070   3.924   3.940   8.456  0.4868  0.0664  0.8180
   16SAPS  H18R 2071   3.975   3.855   8.507  1.4975  0.9907  1.3695
   16SAPS  H18S 2072   3.824   3.938   8.506  2.0770 -2.6118  4.3241
   16SAPS  C219 2073   3.992   4.068   8.501 -0.4661  0.4221 -0.0965
   16SAPS  H19R 2074   3.983   4.142   8.419  0.7864  0.5560 -0.1337
   16SAPS  H19S 2075   4.099   4.048   8.522 -1.4381 -2.1257  3.3261
   16SAPS  C220 2076   3.933   4.122   8.633 -0.0888  0.0359 -0.0228
   16SAPS  H20R 2077   3.934   4.042   8.710  0.0793  2.0427  2.1702
   16SAPS  H20S 2078   3.828   4.148   8.607 -0.1003 -0.5760 -0.5930
   16SAPS  H20T 2079   3.989   4.208   8.675 -0.0614  0.8249 -1.6064
   16SAPS   C33 2080   4.715   4.148   7.002 -0.2129 -0.7913  0.1476
   16SAPS   H3X 2081   4.721   4.224   6.922 -0.8080 -0.4770  0.4010
   16SAPS   H3Y 2082   4.812   4.145   7.057  1.3867 -0.2069 -2.5043
   16SAPS   C34 2083   4.599   4.158   7.103  0.0992 -0.7340  0.1993
   16SAPS   H4X 2084   4.593   4.060   7.154 -1.4044 -0.8273 -0.1126
   16SAPS   H4Y 2085   4.508   4.176   7.042  0.2194 -1.7029 -0.2881
   16SAPS   C35 2086   4.622   4.265   7.210  0.0024 -0.0948 -0.2485
   16SAPS   H5X 2087   4.626   4.362   7.157 -2.6061 -0.0801 -0.5367
   16SAPS   H5Y 2088   4.722   4.249   7.256  0.0820  0.0449 -0.3732
   16SAPS   C36 2089   4.513   4.282   7.315 -0.3858 -0.3366 -0.9274
   16SAPS   H6X 2090   4.520   4.204   7.395 -0.8116  1.4642  0.9634
   16SAPS   H6Y 2091   4.410   4.288   7.274 -1.5560 -3.7713  1.0599
   16SAPS   C37 2092   4.538   4.409   7.395  0.2480  0.0373  0.1396
   16SAPS   H7X 2093   4.533   4.489   7.319 -3.2989 -1.0293 -0.9879
   16SAPS   H7Y 2094   4.639   4.409   7.441  1.4206  0.1664 -2.3223
   16SAPS   C38 2095   4.445   4.424   7.509  0.0143 -0.1008  0.0881
   16SAPS   H8X 2096   4.441   4.326   7.560 -2.9098 -0.2004 -0.1901
   16SAPS   H8Y 2097   4.342   4.446   7.475  0.2992  2.3731  0.6169
   16SAPS   C39 2098   4.487   4.536   7.611 -0.4664  0.5628 -0.3117
   16SAPS   H9X 2099   4.473   4.634   7.560 -0.6942 -0.2028 -1.7911
   16SAPS   H9Y 2100   4.595   4.536   7.637 -0.4296 -1.1967 -0.3327
   16SAPS  C310 2101   4.404   4.541   7.740 -0.4511 -0.1758 -0.2976
   16SAPS  H10X 2102   4.401   4.438   7.782 -0.6689  0.1900  0.6130
   16SAPS  H10Y 2103   4.298   4.567   7.722 -0.6429 -2.0817 -2.2461
   16SAPS  C311 2104   4.480   4.626   7.847  0.1352  0.6569  0.4795
   16SAPS  H11X 2105   4.483   4.733   7.815 -0.0626 -0.2941 -3.1581
   16SAPS  H11Y 2106   4.587   4.594   7.848  0.3938  1.4828  0.0252
   16SAPS  C312 2107   4.410   4.621   7.986  0.3506  0.1806  0.0151
   16SAPS  H12X 2108   4.404   4.511   8.001 -2.0513  0.3650  0.7885
   16SAPS  H12Y 2109   4.307   4.660   7.975  0.8604  1.2376 -1.1905
   16SAPS  C313 2110   4.490   4.697   8.093 -0.0889 -0.2812  0.9207
   16SAPS  H13X 2111   4.500   4.807   8.081 -0.7364 -0.2888  0.2135
   16SAPS  H13Y 2112   4.598   4.669   8.091  0.1383  0.4564  2.0476
   16SAPS  C314 2113   4.428   4.670   8.233  0.1229  0.0763  0.1822
   16SAPS  H14X 2114   4.458   4.567   8.263 -0.5545  0.3066  1.7682
   16SAPS  H14Y 2115   4.318   4.670   8.218  0.1742 -0.0145 -0.1929
   16SAPS  C315 2116   4.472   4.771   8.338  0.2740  0.4077  0.4773
   16SAPS  H15X 2117   4.457   4.879   8.316 -1.6221  0.0658 -0.0895
   16SAPS  H15Y 2118   4.581   4.761   8.361  0.6877 -0.2852 -1.5254
   16SAPS  C316 2119   4.400   4.745   8.478 -0.6541  0.7872  0.2559
   16SAPS  H16X 2120   4.453   4.819   8.542  0.9351  0.2579 -0.4035
   16SAPS  H16Y 2121   4.429   4.642   8.507  0.3016  1.4715  1.9097
   16SAPS  C317 2122   4.247   4.765   8.481 -0.4244  0.2659 -0.6926
   16SAPS  H17X 2123   4.195   4.733   8.388 -0.3725 -1.8193 -0.0466
   16SAPS  H17Y 2124   4.237   4.875   8.497  0.3096  0.1890  0.3804
   16SAPS  C318 2125   4.191   4.683   8.601  0.4934  0.0039 -0.3959
   16SAPS  H18X 2126   4.219   4.577   8.590  0.7923 -0.2783  2.3655
   16SAPS  H18Y 2127   4.080   4.694   8.608  0.7733  3.3543  0.9488
   16SAPS  H18Z 2128   4.235   4.711   8.699  0.0945 -1.9714  0.3929
   17SAPC     N 2129   1.824   0.179  10.716 -0.0729  0.0815  0.2918
   17SAPC   C12 2130   1.758   0.171  10.577 -0.0294 -0.1484 -0.3609
   17SAPC  H12A 2131   1.783   0.253  10.512 -1.3081 -0.9059 -1.8698
   17SAPC  H12B 2132   1.651   0.180  10.583 -0.0649  0.5889 -1.6913
   17SAPC   C13 2133   1.771   0.303  10.787 -0.8406  0.2402 -0.1049
   17SAPC  H13A 2134   1.812   0.315  10.885  2.0862  0.4295 -1.2637
   17SAPC  H13B 2135   1.798   0.388  10.725  0.2338  0.2936  0.4183
   17SAPC  H13C 2136   1.664   0.312  10.800 -1.0923  2.5781 -2.6689
   17SAPC   C14 2137   1.798   0.060  10.802 -0.2691  0.6392 -0.8933
   17SAPC  H14A 2138   1.867   0.042  10.883 -0.4799 -2.6117 -1.2768
   17SAPC  H14B 2139   1.702   0.075  10.848 -0.0782  0.9821 -0.5996
   17SAPC  H14C 2140   1.815  -0.033  10.748  0.0820 -0.0245  0.3079
   17SAPC   C15 2141   1.971   0.190  10.707 -0.1117  0.2392  0.2066
   17SAPC  H15A 2142   2.015   0.219  10.802 -0.9025 -3.2156  1.7978
   17SAPC  H15B 2143   2.015   0.101  10.666 -0.9814 -0.4297  0.7127
   17SAPC  H15C 2144   1.992   0.267  10.634 -2.1443  0.7507  0.1021
   17SAPC   C11 2145   1.784   0.038  10.498 -0.2804 -0.5259  0.1866
   17SAPC  H11A 2146   1.713   0.028  10.413  0.1053 -1.5424 -0.0266
   17SAPC  H11B 2147   1.760  -0.045  10.567  3.0697 -1.6455  0.1740
   17SAPC     P 2148   1.980   0.123  10.348  0.1577  0.4169 -0.2018
   17SAPC   O13 2149   1.942   0.262  10.369 -0.2862  0.2210  0.3502
   17SAPC   O14 2150   2.124   0.098  10.321  0.4153  0.4572 -0.7405
   17SAPC   O12 2151   1.920   0.030  10.458 -0.1190  0.5681  0.2029
   17SAPC   O11 2152   1.903   0.063  10.226 -0.2711 -0.1786 -0.0197
   17SAPC    C1 2153   1.925  -0.078  10.185  0.2290  0.2977 -0.4203
   17SAPC    HA 2154   1.968  -0.149  10.258 -1.4806 -2.6000 -2.0501
   17SAPC    HB 2155   1.828  -0.126  10.159 -0.0614  0.6198  0.0612
   17SAPC    C2 2156   2.018  -0.095  10.063 -0.5251  0.1453  0.2314
   17SAPC    HS 2157   2.117  -0.080  10.110 -0.9268 -1.2932  1.6099
   17SAPC   O21 2158   1.974   0.001   9.963 -0.3998 -0.3294 -0.1170
   17SAPC   C21 2159   2.077   0.056   9.899  0.3964  0.8479  0.0026
   17SAPC   O22 2160   2.196   0.051   9.935 -0.0571 -0.0704  0.0525
   17SAPC   C22 2161   2.024   0.133   9.772  0.4295  0.1839 -0.0082
   17SAPC   H2R 2162   1.945   0.061   9.742 -0.5288  0.4805  1.6789
   17SAPC   H2S 2163   1.992   0.235   9.801 -0.3845  0.2219 -0.9929
   17SAPC    C3 2164   2.005  -0.236   9.994 -0.2980 -0.3118  0.2666
   17SAPC    HX 2165   1.912  -0.236   9.934 -0.8881  2.4982  1.0531
   17SAPC    HY 2166   1.996  -0.316  10.070 -0.9558  1.2146  1.8704
   17SAPC   O31 2167   2.119  -0.251   9.915 -0.3768  0.5890  0.5028
   17SAPC   C31 2168   2.122  -0.370   9.857  0.1242  0.1017 -0.0186
   17SAPC   O32 2169   2.033  -0.453   9.848  0.4067 -0.0535  0.9162
   17SAPC   C32 2170   2.257  -0.393   9.803  0.4370  0.0296 -0.2333
   17SAPC   H2X 2171   2.326  -0.393   9.890  1.1802  3.1405 -0.7006
   17SAPC   H2Y 2172   2.287  -0.308   9.738 -0.9527  2.0661  1.6303
   17SAPC   C23 2173   2.137   0.148   9.665 -0.4012  0.0583  0.1807
   17SAPC   H3R 2174   2.228   0.194   9.708 -0.0389 -0.6214  0.1540
   17SAPC   H3S 2175   2.100   0.214   9.584  0.6461  1.4055  0.7659
   17SAPC   C24 2176   2.168   0.006   9.597 -0.1217 -1.2698  0.0952
   17SAPC   H4R 2177   2.080  -0.021   9.535  0.5782 -0.5780 -1.2512
   17SAPC   H4S 2178   2.183  -0.077   9.669 -0.7883 -0.2434  1.4723
   17SAPC   C25 2179   2.284   0.027   9.500  0.1714 -0.0788  0.8352
   17SAPC   H5R 2180   2.380   0.043   9.551 -0.3528  0.1476  1.7711
   17SAPC   C26 2181   2.274   0.003   9.370 -0.4630 -1.0366  0.0819
   17SAPC   H6R 2182   2.359   0.016   9.302 -2.9265 -0.3997 -3.1626
   17SAPC   C27 2183   2.151  -0.030   9.287 -0.1925 -0.1626  0.5532
   17SAPC   H7R 2184   2.057   0.004   9.336  0.1713  1.4820  0.1774
   17SAPC   H7S 2185   2.138  -0.140   9.282 -1.7060 -0.0663  1.5252
   17SAPC   C28 2186   2.162   0.039   9.153  0.5222 -0.1209  0.2187
   17SAPC   H8R 2187   2.174   0.148   9.156  0.1978 -0.0920  2.8659
   17SAPC   C29 2188   2.142  -0.014   9.031 -0.2322 -0.5641 -0.1990
   17SAPC   H9R 2189   2.161   0.055   8.948  2.6872  0.1145  0.8929
   17SAPC  C210 2190   2.114  -0.150   8.985  0.4455 -0.3650  0.4527
   17SAPC  H10R 2191   2.168  -0.226   9.045 -2.6444 -2.7673  0.4572
   17SAPC  H10S 2192   2.153  -0.164   8.882 -1.3904  0.6520 -0.4293
   17SAPC  C211 2193   1.973  -0.203   8.993  0.3817  0.1949  0.8029
   17SAPC  H11R 2194   1.927  -0.219   9.092 -0.5330 -2.2821  0.0548
   17SAPC  C212 2195   1.899  -0.218   8.878 -0.4603  0.3823  0.2566
   17SAPC  H12R 2196   1.793  -0.249   8.883 -0.4688  0.4865  0.7026
   17SAPC  C213 2197   1.946  -0.191   8.736  0.2621 -0.2383  0.3930
   17SAPC  H13R 2198   1.979  -0.285   8.687 -0.2880  0.4849 -1.4494
   17SAPC  H13S 2199   2.033  -0.122   8.732  0.5802 -0.6853 -1.3760
   17SAPC  C214 2200   1.841  -0.122   8.653 -0.1607  0.6784 -0.4393
   17SAPC  H14R 2201   1.857  -0.013   8.648 -0.1938  0.7576  0.8516
   17SAPC  C215 2202   1.733  -0.179   8.599 -0.0017 -0.4790  0.6783
   17SAPC  H15R 2203   1.677  -0.111   8.532  2.7372  1.4705  0.1864
   17SAPC  C216 2204   1.695  -0.325   8.604  0.0469 -0.5190 -0.1254
   17SAPC  H16R 2205   1.591  -0.326   8.643  1.0607  0.4951  2.8756
   17SAPC  H16S 2206   1.748  -0.391   8.677  1.5889 -0.9092 -1.5468
   17SAPC  C217 2207   1.704  -0.388   8.460 -0.3289  0.3516  0.0088
   17SAPC  H17R 2208   1.740  -0.493   8.467 -0.4047  0.3329  0.1184
   17SAPC  H17S 2209   1.776  -0.323   8.407 -1.1886  0.9539 -0.4622
   17SAPC  C218 2210   1.570  -0.389   8.389  0.2181 -0.3050  1.1524
   17SAPC  H18R 2211   1.512  -0.296   8.406  0.3194 -0.6427  3.9437
   17SAPC  H18S 2212   1.506  -0.467   8.437 -1.7582 -0.5813 -1.7086
   17SAPC  C219 2213   1.578  -0.416   8.239  0.5916  0.1331 -0.5066
   17SAPC  H19R 2214   1.628  -0.326   8.196  1.3792 -0.0329  0.0287
   17SAPC  H19S 2215   1.474  -0.407   8.200  0.4187  0.2522 -0.0254
   17SAPC  C220 2216   1.651  -0.545   8.200 -0.2808 -0.1392  0.5028
   17SAPC  H20R 2217   1.750  -0.556   8.248 -0.5317 -0.8080  0.8788
   17SAPC  H20S 2218   1.660  -0.543   8.089  1.6673 -1.9521  0.5833
   17SAPC  H20T 2219   1.607  -0.643   8.225  2.3490 -1.4743  0.2482
   17SAPC   C33 2220   2.274  -0.531   9.728 -0.4494 -0.5068 -0.0618
   17SAPC   H3X 2221   2.189  -0.596   9.760 -2.1989  0.7489 -1.9328
   17SAPC   H3Y 2222   2.372  -0.574   9.758 -0.6119  0.4428  1.9749
   17SAPC   C34 2223   2.273  -0.521   9.576  0.0743  0.3386 -0.3885
   17SAPC   H4X 2224   2.241  -0.622   9.544  0.9482  0.4892 -1.7996
   17SAPC   H4Y 2225   2.381  -0.512   9.552  0.6217 -2.0383  0.8645
   17SAPC   C35 2226   2.165  -0.431   9.518 -0.7046  0.1974 -0.7060
   17SAPC   H5X 2227   2.171  -0.332   9.568  0.4201 -0.3448  0.2623
   17SAPC   H5Y 2228   2.070  -0.473   9.556  0.1374  0.2416  1.5980
   17SAPC   C36 2229   2.172  -0.414   9.365 -0.4110 -0.0966 -0.6150
   17SAPC   H6X 2230   2.272  -0.369   9.346  2.2600 -3.8363  2.9810
   17SAPC   H6Y 2231   2.102  -0.332   9.336  0.6016  1.0470  0.0850
   17SAPC   C37 2232   2.148  -0.541   9.282 -0.1936 -0.1883 -0.1420
   17SAPC   H7X 2233   2.049  -0.584   9.310  0.4301 -1.4750  0.1412
   17SAPC   H7Y 2234   2.217  -0.627   9.297 -0.0336 -0.2440 -1.1767
   17SAPC   C38 2235   2.130  -0.495   9.137 -0.2208  0.6145 -0.4520
   17SAPC   H8X 2236   2.220  -0.451   9.090  1.1750 -2.7753 -1.2105
   17SAPC   H8Y 2237   2.054  -0.414   9.131 -2.1589 -1.1444 -0.7346
   17SAPC   C39 2238   2.082  -0.609   9.053  0.5833 -0.0086  0.6598
   17SAPC   H9X 2239   2.007  -0.669   9.108  1.5308 -2.0487 -0.1469
   17SAPC   H9Y 2240   2.162  -0.680   9.021 -2.0754 -1.9410 -2.2850
   17SAPC  C310 2241   2.024  -0.577   8.914  1.2698  0.0949 -0.2164
   17SAPC  H10X 2242   2.099  -0.512   8.863  0.0689  0.6890 -1.2683
   17SAPC  H10Y 2243   1.923  -0.534   8.927  0.2255 -2.6074  1.4389
   17SAPC  C311 2244   2.002  -0.713   8.849  0.1517 -0.7511 -0.4035
   17SAPC  H11X 2245   1.961  -0.781   8.926  3.3837 -0.1037  2.0859
   17SAPC  H11Y 2246   2.098  -0.756   8.814  0.7302  1.0176 -1.0947
   17SAPC  C312 2247   1.906  -0.699   8.734  0.8437  0.5417  0.3229
   17SAPC  H12X 2248   1.953  -0.640   8.653  0.6328 -0.8707 -0.8751
   17SAPC  H12Y 2249   1.813  -0.656   8.778 -2.2957 -2.9563 -2.2076
   17SAPC  C313 2250   1.863  -0.822   8.655  0.2797  0.0411  0.1740
   17SAPC  H13X 2251   1.818  -0.911   8.704  1.5782  0.3033  1.9132
   17SAPC  H13Y 2252   1.957  -0.867   8.614 -1.3081 -2.3523 -1.0645
   17SAPC  C314 2253   1.782  -0.792   8.530 -0.0170 -0.2380  0.1675
   17SAPC  H14X 2254   1.820  -0.703   8.474  1.0925 -2.5682 -3.1069
   17SAPC  H14Y 2255   1.674  -0.774   8.548 -0.3040 -1.5924 -0.1112
   17SAPC  C315 2256   1.781  -0.916   8.436 -0.0110  0.1059 -0.2786
   17SAPC  H15X 2257   1.742  -0.997   8.502 -1.5951  1.6122  0.7581
   17SAPC  H15Y 2258   1.884  -0.947   8.409  0.7746  0.9328  1.5872
   17SAPC  C316 2259   1.705  -0.894   8.306 -0.3050  0.0927 -0.3011
   17SAPC  H16X 2260   1.748  -0.810   8.248  1.2688 -0.8031 -0.4642
   17SAPC  H16Y 2261   1.599  -0.870   8.332  0.0982 -2.0118  4.3320
   17SAPC  C317 2262   1.690  -1.021   8.218  0.2125  0.4501 -0.7363
   17SAPC  H17X 2263   1.647  -1.110   8.268  1.0391  1.3241  1.7139
   17SAPC  H17Y 2264   1.784  -1.054   8.168  1.1642  0.9303  0.6455
   17SAPC  C318 2265   1.591  -0.992   8.104 -0.6674 -0.6377 -0.3434
   17SAPC  H18X 2266   1.604  -0.887   8.071 -1.6764 -0.5925 -0.6348
   17SAPC  H18Y 2267   1.592  -1.070   8.024  0.5391 -1.8318  0.7783
   17SAPC  H18Z 2268   1.488  -1.001   8.145 -0.9233  3.2336  0.2288
   18SAPC     N 2269   1.559   5.823  10.478  0.0105  0.0960 -0.0453
   18SAPC   C12 2270   1.550   5.717  10.372  0.1902  0.4723  0.1230
   18SAPC  H12A 2271   1.553   5.764  10.275  1.1674 -4.3544 -2.5228
   18SAPC  H12B 2272   1.462   5.656  10.384 -0.7325  1.6906 -0.2449
   18SAPC   C13 2273   1.440   5.908  10.478 -0.5874 -0.6328  0.4994
   18SAPC  H13A 2274   1.450   5.989  10.408 -0.8965 -1.1114 -0.1047
   18SAPC  H13B 2275   1.343   5.866  10.456 -1.3251  0.5051  1.4884
   18SAPC  H13C 2276   1.436   5.962  10.572  2.6906 -0.1470  0.4696
   18SAPC   C14 2277   1.563   5.764  10.612 -0.2157 -0.1068 -0.4982
   18SAPC  H14A 2278   1.472   5.709  10.631  0.3718 -1.2788 -1.0125
   18SAPC  H14B 2279   1.630   5.680  10.607  0.2262  0.1737  0.4386
   18SAPC  H14C 2280   1.571   5.836  10.692 -3.4046  1.2460 -1.2288
   18SAPC   C15 2281   1.687   5.906  10.461  0.3344 -0.0014  0.1665
   18SAPC  H15A 2282   1.775   5.845  10.474  0.5442  0.4140  0.7186
   18SAPC  H15B 2283   1.684   5.949  10.362  2.5893  1.0135  0.4933
   18SAPC  H15C 2284   1.689   5.984  10.535 -0.9291  1.0191 -0.8410
   18SAPC   C11 2285   1.657   5.606  10.367 -1.1893  0.1025 -1.1586
   18SAPC  H11A 2286   1.755   5.657  10.374 -1.6145  1.0622 -1.9821
   18SAPC  H11B 2287   1.659   5.556  10.268 -2.1951 -1.0126 -0.6546
   18SAPC     P 2288   1.599   5.366  10.443  0.2386  0.4042 -0.3716
   18SAPC   O13 2289   1.634   5.293  10.568  0.0053 -0.0587  0.8133
   18SAPC   O14 2290   1.456   5.378  10.404  0.0715  0.1575  0.0213
   18SAPC   O12 2291   1.654   5.512  10.472  0.2439 -0.2622  0.3354
   18SAPC   O11 2292   1.689   5.314  10.325  0.1029  0.5838  0.2173
   18SAPC    C1 2293   1.638   5.208  10.238  0.0824 -0.0409 -1.0368
   18SAPC    HA 2294   1.700   5.118  10.257  0.6323  0.4317 -0.5883
   18SAPC    HB 2295   1.530   5.182  10.249 -0.5099  0.5698 -4.4213
   18SAPC    C2 2296   1.654   5.232  10.081  0.4567 -0.2101  0.2734
   18SAPC    HS 2297   1.735   5.160  10.058  2.7705  1.7289  1.7431
   18SAPC   O21 2298   1.681   5.362  10.046  0.1791 -0.2154 -0.3787
   18SAPC   C21 2299   1.805   5.408  10.050 -0.0318  0.1464 -0.2922
   18SAPC   O22 2300   1.908   5.354  10.089  0.5955 -0.5911 -0.9252
   18SAPC   C22 2301   1.805   5.550  10.002  0.2208  0.5658  0.0231
   18SAPC   H2R 2302   1.704   5.589   9.977  1.0069  1.1628 -2.5514
   18SAPC   H2S 2303   1.856   5.602  10.085  1.5701 -1.1714  0.3406
   18SAPC    C3 2304   1.520   5.188  10.016 -0.1065  0.6064  0.5800
   18SAPC    HX 2305   1.445   5.267  10.037  0.0169  0.8902  0.0001
   18SAPC    HY 2306   1.491   5.098  10.073 -0.4718  0.8706  0.8184
   18SAPC   O31 2307   1.524   5.162   9.868 -0.5581  0.1949  0.1758
   18SAPC   C31 2308   1.408   5.122   9.814 -0.4710  0.2230 -0.2196
   18SAPC   O32 2309   1.303   5.129   9.872 -0.2664  0.4340  0.2962
   18SAPC   C32 2310   1.430   5.084   9.667  0.1504  0.1733 -0.1602
   18SAPC   H2X 2311   1.506   5.004   9.667  0.0517  0.0677 -1.0382
   18SAPC   H2Y 2312   1.476   5.176   9.623 -1.9616  0.2291 -2.4964
   18SAPC   C23 2313   1.894   5.567   9.878  0.5430  1.1378  0.1594
   18SAPC   H3R 2314   1.944   5.469   9.862 -2.3100 -0.3565 -0.3823
   18SAPC   H3S 2315   1.979   5.637   9.895 -1.1739  3.2453  0.5213
   18SAPC   C24 2316   1.809   5.608   9.752  0.1217 -0.6680 -0.5387
   18SAPC   H4R 2317   1.785   5.717   9.754 -0.8761 -0.8633  1.4695
   18SAPC   H4S 2318   1.711   5.557   9.765  1.0414 -2.3469  0.1554
   18SAPC   C25 2319   1.875   5.585   9.620  0.1456  0.2091  0.4950
   18SAPC   H5R 2320   1.958   5.655   9.602 -0.5145  0.5794 -1.4052
   18SAPC   C26 2321   1.835   5.501   9.514 -0.1244 -0.2327  0.2874
   18SAPC   H6R 2322   1.897   5.503   9.424  0.7571 -0.8067  0.8616
   18SAPC   C27 2323   1.718   5.412   9.509 -0.3586  0.0330 -0.0963
   18SAPC   H7R 2324   1.662   5.430   9.604  0.1504 -1.1811  0.4460
   18SAPC   H7S 2325   1.748   5.305   9.508 -1.2657 -0.2379  0.4770
   18SAPC   C28 2326   1.614   5.444   9.398 -0.7323 -0.4127 -0.4289
   18SAPC   H8R 2327   1.542   5.522   9.426  1.3607  1.2974  0.5548
   18SAPC   C29 2328   1.603   5.387   9.280  0.0664 -0.8179  0.7800
   18SAPC   H9R 2329   1.518   5.417   9.218  0.6489 -0.4320  0.1502
   18SAPC  C210 2330   1.681   5.274   9.221 -0.2070  0.2017  0.2703
   18SAPC  H10R 2331   1.725   5.215   9.305  0.0326  2.5138  1.8773
   18SAPC  H10S 2332   1.769   5.313   9.166 -2.4180  0.8532 -3.0440
   18SAPC  C211 2333   1.609   5.196   9.119 -0.0440  0.8821 -0.3620
   18SAPC  H11R 2334   1.507   5.225   9.089 -0.9384 -2.3803 -0.8763
   18SAPC  C212 2335   1.651   5.088   9.055 -0.9396  0.1723 -0.5698
   18SAPC  H12R 2336   1.583   5.047   8.979 -1.5495 -0.8297  0.4758
   18SAPC  C213 2337   1.784   5.024   9.062 -0.1052 -0.7892  0.0392
   18SAPC  H13R 2338   1.818   5.030   9.168  0.4604 -0.4261 -0.1611
   18SAPC  H13S 2339   1.865   5.082   9.014 -0.5845 -1.0678 -1.1471
   18SAPC  C214 2340   1.790   4.881   9.017 -0.4901 -0.3366  0.1064
   18SAPC  H14R 2341   1.735   4.807   9.077  0.2714  0.0180  1.2719
   18SAPC  C215 2342   1.840   4.840   8.898  0.8519 -0.8980  0.7264
   18SAPC  H15R 2343   1.852   4.732   8.880 -1.1628 -0.9722 -0.3801
   18SAPC  C216 2344   1.898   4.926   8.783 -0.7192 -0.5914 -0.3577
   18SAPC  H16R 2345   2.008   4.913   8.771 -0.2572  1.1871  1.3295
   18SAPC  H16S 2346   1.877   5.032   8.808 -0.2737 -0.7322  0.6878
   18SAPC  C217 2347   1.828   4.890   8.650 -0.2909 -0.0740 -1.3049
   18SAPC  H17R 2348   1.725   4.931   8.645 -0.1019  0.5797 -0.3263
   18SAPC  H17S 2349   1.822   4.780   8.638 -0.4835 -0.4094  1.2813
   18SAPC  C218 2350   1.916   4.948   8.539  1.0352  1.1853  0.2967
   18SAPC  H18R 2351   2.018   4.903   8.542  0.8265  0.7142  0.5564
   18SAPC  H18S 2352   1.913   5.058   8.553 -1.0611  1.2300 -0.0605
   18SAPC  C219 2353   1.870   4.922   8.395  0.4224 -0.1159  0.1608
   18SAPC  H19R 2354   1.768   4.967   8.394  1.6977  3.1057 -1.7266
   18SAPC  H19S 2355   1.860   4.812   8.395  1.1758 -0.1992  1.5297
   18SAPC  C220 2356   1.967   4.972   8.287 -0.3483 -0.0367 -0.6413
   18SAPC  H20R 2357   2.073   4.938   8.300 -0.6116 -0.6280  0.0207
   18SAPC  H20S 2358   1.979   5.082   8.283 -1.2257  0.2107  1.5973
   18SAPC  H20T 2359   1.925   4.936   8.191 -1.2651  0.2731 -0.3614
   18SAPC   C33 2360   1.296   5.060   9.600 -0.1845 -0.4781  0.4252
   18SAPC   H3X 2361   1.225   5.141   9.627  0.7319  0.0816  1.2189
   18SAPC   H3Y 2362   1.252   4.961   9.624 -0.9879 -0.4632 -0.8705
   18SAPC   C34 2363   1.305   5.068   9.444 -0.3531 -0.2582 -0.9463
   18SAPC   H4X 2364   1.364   5.159   9.419 -2.3248  2.1463  2.4433
   18SAPC   H4Y 2365   1.202   5.074   9.402 -1.2504 -1.3205  0.9955
   18SAPC   C35 2366   1.387   4.958   9.377 -0.0937  0.2033  0.0811
   18SAPC   H5X 2367   1.365   4.859   9.422 -0.8971 -1.1487 -3.0389
   18SAPC   H5Y 2368   1.493   4.985   9.394  0.1204  0.5712 -1.6590
   18SAPC   C36 2369   1.359   4.949   9.229  0.8510 -0.0099  0.7384
   18SAPC   H6X 2370   1.404   4.851   9.201  0.4216  0.3086 -1.2766
   18SAPC   H6Y 2371   1.415   5.024   9.169 -0.4710  0.1632 -0.3274
   18SAPC   C37 2372   1.215   4.943   9.179  1.5268 -0.0139  0.3349
   18SAPC   H7X 2373   1.154   5.036   9.177 -0.1828 -1.0566  1.6270
   18SAPC   H7Y 2374   1.153   4.881   9.247  1.3738 -0.5481 -0.2887
   18SAPC   C38 2375   1.187   4.876   9.038  0.9711 -0.0963  0.6316
   18SAPC   H8X 2376   1.249   4.784   9.028  0.9615  0.0509 -1.2961
   18SAPC   H8Y 2377   1.220   4.951   8.962  0.6558 -0.3650  0.2270
   18SAPC   C39 2378   1.037   4.844   9.030 -0.2341 -0.3307 -0.2543
   18SAPC   H9X 2379   0.990   4.944   9.021  2.7921  1.0506 -2.3050
   18SAPC   H9Y 2380   1.012   4.800   9.129  0.9816  1.1695  0.7708
   18SAPC  C310 2381   0.992   4.756   8.916  0.0404 -0.5291  0.5755
   18SAPC  H10X 2382   1.047   4.659   8.914  1.3806  0.2054  0.0887
   18SAPC  H10Y 2383   1.027   4.812   8.827 -1.1022  2.0865  1.6921
   18SAPC  C311 2384   0.840   4.732   8.896  0.1491 -0.7043 -0.5215
   18SAPC  H11X 2385   0.789   4.827   8.869  0.6818 -0.4886 -0.7706
   18SAPC  H11Y 2386   0.789   4.701   8.990  2.1948  0.8231  1.1990
   18SAPC  C312 2387   0.798   4.626   8.789  0.0081  0.3950 -0.0537
   18SAPC  H12X 2388   0.878   4.550   8.777  0.7993  0.6981  2.5577
   18SAPC  H12Y 2389   0.798   4.679   8.692 -2.0104  1.2228  0.3508
   18SAPC  C313 2390   0.657   4.563   8.830 -0.5559 -0.0718 -0.3667
   18SAPC  H13X 2391   0.583   4.645   8.841 -0.8235 -0.5497  2.1089
   18SAPC  H13Y 2392   0.642   4.515   8.929 -3.4061 -1.3123 -1.2924
   18SAPC  C314 2393   0.597   4.465   8.730 -0.9188  0.5022 -0.1952
   18SAPC  H14X 2394   0.670   4.383   8.717 -1.5439 -0.3403  1.3212
   18SAPC  H14Y 2395   0.578   4.504   8.628 -0.7573 -2.2502 -1.3470
   18SAPC  C315 2396   0.473   4.397   8.789  0.7047 -0.3277  0.0768
   18SAPC  H15X 2397   0.403   4.479   8.815  2.2993  2.4546 -3.6180
   18SAPC  H15Y 2398   0.491   4.344   8.885  0.9562  1.3500  0.9835
   18SAPC  C316 2399   0.403   4.308   8.687 -0.0698 -0.6276  0.1854
   18SAPC  H16X 2400   0.463   4.218   8.662  0.4920 -0.2902  0.2990
   18SAPC  H16Y 2401   0.410   4.369   8.595 -0.5083 -1.0372 -0.1247
   18SAPC  C317 2402   0.262   4.286   8.723  0.4444  0.2272  0.3131
   18SAPC  H17X 2403   0.217   4.218   8.648 -1.8137 -0.3703  2.0944
   18SAPC  H17Y 2404   0.205   4.380   8.709 -0.9313 -0.4940  0.9077
   18SAPC  C318 2405   0.234   4.223   8.858  0.3664 -0.0454 -0.6473
   18SAPC  H18X 2406   0.271   4.119   8.871 -0.2438 -0.0644  1.4647
   18SAPC  H18Y 2407   0.126   4.237   8.881  0.1246 -0.8180 -1.2654
   18SAPC  H18Z 2408   0.288   4.284   8.933  1.0265  0.1698 -1.2867
   19SAPC     N 2409   5.425   0.764  10.684  0.3782 -0.2619  0.1335
   19SAPC   C12 2410   5.556   0.675  10.675  0.2819 -0.1180 -0.4956
   19SAPC  H12A 2411   5.528   0.572  10.692 -1.1222  0.0089 -1.8652
   19SAPC  H12B 2412   5.613   0.695  10.765 -1.0841 -2.7962  1.0891
   19SAPC   C13 2413   5.332   0.726  10.578 -0.3570  0.0515  0.3953
   19SAPC  H13A 2414   5.365   0.763  10.482 -2.5677  0.4632 -0.2622
   19SAPC  H13B 2415   5.330   0.621  10.554  0.1135  0.7648 -3.3069
   19SAPC  H13C 2416   5.231   0.765  10.584 -0.9000 -1.2869  0.1837
   19SAPC   C14 2417   5.363   0.737  10.828 -0.0715 -0.2586  0.4704
   19SAPC  H14A 2418   5.287   0.812  10.843 -0.8929 -0.4399 -2.3074
   19SAPC  H14B 2419   5.312   0.642  10.823 -2.2942  0.7407  2.0024
   19SAPC  H14C 2420   5.437   0.734  10.907  0.4036  0.0647  0.0430
   19SAPC   C15 2421   5.462   0.907  10.672 -0.3274 -0.4029 -1.0149
   19SAPC  H15A 2422   5.541   0.917  10.599 -0.5410  1.6630 -1.0233
   19SAPC  H15B 2423   5.375   0.967  10.652 -0.5682 -0.2365  0.3919
   19SAPC  H15C 2424   5.503   0.940  10.767 -3.9747  0.1136  0.5467
   19SAPC   C11 2425   5.640   0.669  10.544  0.2565 -0.5286 -0.3482
   19SAPC  H11A 2426   5.561   0.638  10.473  0.3427  2.7878 -2.0922
   19SAPC  H11B 2427   5.726   0.599  10.559  0.3363 -0.2579  0.5107
   19SAPC     P 2428   5.737   0.841  10.370 -0.0687 -0.4439  0.1154
   19SAPC   O13 2429   5.713   0.985  10.343 -1.0604  0.3042 -0.8740
   19SAPC   O14 2430   5.876   0.805  10.350 -0.7156 -0.1785  0.4139
   19SAPC   O12 2431   5.689   0.800  10.511 -0.2689  0.1168 -0.3193
   19SAPC   O11 2432   5.652   0.751  10.271 -0.3551 -0.5991 -0.5988
   19SAPC    C1 2433   5.688   0.648  10.189 -0.4098  0.2850  0.3055
   19SAPC    HA 2434   5.786   0.606  10.220  0.3039  1.6274 -0.0359
   19SAPC    HB 2435   5.603   0.576  10.185 -0.9262  0.9093 -0.2307
   19SAPC    C2 2436   5.701   0.693  10.035  0.8450 -0.1894  0.6998
   19SAPC    HS 2437   5.676   0.605   9.972 -1.1831 -0.4166  1.7027
   19SAPC   O21 2438   5.830   0.758  10.010  0.4261  0.5939 -0.2442
   19SAPC   C21 2439   5.922   0.668   9.989  0.3606  0.4517  0.0250
   19SAPC   O22 2440   5.908   0.547   9.996 -0.4244 -0.6073  0.3361
   19SAPC   C22 2441   6.055   0.749   9.967 -0.7042  0.1479 -0.2132
   19SAPC   H2R 2442   6.051   0.835  10.037  0.5923  1.8529 -2.1131
   19SAPC   H2S 2443   6.144   0.685   9.984 -0.8944 -0.1803 -0.4368
   19SAPC    C3 2444   5.589   0.803  10.004 -0.8284 -0.8463  0.7740
   19SAPC    HX 2445   5.610   0.883  10.078  1.4582 -0.6806  0.0247
   19SAPC    HY 2446   5.485   0.773  10.030 -1.4679 -1.0473 -1.7468
   19SAPC   O31 2447   5.599   0.865   9.872  0.7477 -0.7404 -0.0575
   19SAPC   C31 2448   5.512   0.827   9.782  0.5944  0.3531  1.0169
   19SAPC   O32 2449   5.409   0.765   9.799  0.6646 -0.7056  0.1152
   19SAPC   C32 2450   5.560   0.893   9.643 -0.6890 -0.2893 -0.7536
   19SAPC   H2X 2451   5.671   0.886   9.643 -0.6566  0.1731  0.0485
   19SAPC   H2Y 2452   5.547   1.002   9.656 -1.1456 -0.4195 -0.1052
   19SAPC   C23 2453   6.062   0.800   9.817  0.4239 -0.3672 -0.2132
   19SAPC   H3R 2454   5.969   0.850   9.784  0.7334 -0.6016 -1.4856
   19SAPC   H3S 2455   6.063   0.711   9.750 -2.3006 -0.7390  0.1026
   19SAPC   C24 2456   6.172   0.900   9.787 -0.4086 -0.4378  0.0078
   19SAPC   H4R 2457   6.182   0.960   9.881 -0.6307 -2.1700  1.1770
   19SAPC   H4S 2458   6.134   0.973   9.712 -0.6606  0.8486  1.3389
   19SAPC   C25 2459   6.299   0.831   9.766 -0.0292 -0.3803  0.2395
   19SAPC   H5R 2460   6.315   0.729   9.806  0.5386  0.1696  1.4844
   19SAPC   C26 2461   6.415   0.896   9.714  0.3324  0.0897 -0.2995
   19SAPC   H6R 2462   6.510   0.842   9.703  0.6845  0.8402 -1.0906
   19SAPC   C27 2463   6.416   1.036   9.664  0.3648 -0.4907 -0.0985
   19SAPC   H7R 2464   6.331   1.098   9.700  1.0680  0.4099  0.0542
   19SAPC   H7S 2465   6.404   1.049   9.554  0.0119 -1.7048 -0.2162
   19SAPC   C28 2466   6.552   1.099   9.690 -0.1965 -0.5623 -0.8059
   19SAPC   H8R 2467   6.617   1.059   9.769  1.0890  0.2949 -1.3966
   19SAPC   C29 2468   6.584   1.222   9.648  0.8888  0.3537  0.2451
   19SAPC   H9R 2469   6.689   1.251   9.665  0.3147  2.8726 -0.0302
   19SAPC  C210 2470   6.495   1.316   9.562 -0.6031 -0.1209  0.2811
   19SAPC  H10R 2471   6.411   1.263   9.513  0.3662 -0.4407 -1.0825
   19SAPC  H10S 2472   6.552   1.349   9.473 -1.4435  2.3088  0.5587
   19SAPC  C211 2473   6.435   1.433   9.637  0.4828 -0.7356 -0.2272
   19SAPC  H11R 2474   6.361   1.400   9.712 -1.0542  1.0018 -0.9224
   19SAPC  C212 2475   6.469   1.565   9.628 -0.1692 -0.2132  0.2760
   19SAPC  H12R 2476   6.427   1.633   9.704  0.9482 -0.5257  1.2078
   19SAPC  C213 2477   6.577   1.627   9.539 -0.0058  1.0705 -0.0971
   19SAPC  H13R 2478   6.571   1.563   9.448 -2.1182  3.5690 -1.8384
   19SAPC  H13S 2479   6.677   1.610   9.584  0.0973  0.0691 -0.6636
   19SAPC  C214 2480   6.566   1.769   9.507  0.0877  0.2623  0.2142
   19SAPC  H14R 2481   6.575   1.835   9.595  0.8264 -1.7212  1.6972
   19SAPC  C215 2482   6.538   1.818   9.388 -0.2041 -0.0498 -0.4859
   19SAPC  H15R 2483   6.536   1.928   9.382 -0.7459 -0.0443 -0.2417
   19SAPC  C216 2484   6.514   1.761   9.252 -0.4394 -1.0006 -0.8037
   19SAPC  H16R 2485   6.403   1.758   9.248 -0.4444 -2.5476 -0.3391
   19SAPC  H16S 2486   6.552   1.656   9.253  0.0271 -0.8348  0.6038
   19SAPC  C217 2487   6.595   1.836   9.134 -0.1525 -0.0130 -0.1153
   19SAPC  H17R 2488   6.577   1.943   9.156 -0.9040 -0.3794  1.1439
   19SAPC  H17S 2489   6.551   1.806   9.037 -0.6129  1.0466 -0.2385
   19SAPC  C218 2490   6.747   1.797   9.160  0.0862  0.1819 -0.0362
   19SAPC  H18R 2491   6.757   1.687   9.152  2.5695  0.4643 -1.9736
   19SAPC  H18S 2492   6.777   1.829   9.262 -2.9317  2.1195  0.3774
   19SAPC  C219 2493   6.845   1.847   9.048 -0.8244  0.3476  0.2359
   19SAPC  H19R 2494   6.944   1.806   9.078 -0.8470 -1.6510 -2.1268
   19SAPC  H19S 2495   6.848   1.957   9.034  0.7536  0.1212 -1.6136
   19SAPC  C220 2496   6.810   1.800   8.913 -0.3480 -0.4817 -0.5427
   19SAPC  H20R 2497   6.713   1.842   8.879  0.6633  2.8447  0.2320
   19SAPC  H20S 2498   6.813   1.689   8.911  1.9644 -0.4538 -1.7258
   19SAPC  H20T 2499   6.872   1.834   8.827  1.5156  1.4523  1.4340
   19SAPC   C33 2500   5.498   0.844   9.509 -0.1132 -0.9015  0.6028
   19SAPC   H3X 2501   5.388   0.830   9.515 -0.1952  0.1308  1.7978
   19SAPC   H3Y 2502   5.545   0.748   9.478 -1.9750 -1.9071  0.7586
   19SAPC   C34 2503   5.527   0.940   9.391  0.2413  0.0296  0.2591
   19SAPC   H4X 2504   5.492   1.044   9.411 -1.4076 -0.7348  1.5803
   19SAPC   H4Y 2505   5.458   0.911   9.309  0.1515  1.6468 -0.2910
   19SAPC   C35 2506   5.673   0.944   9.352  0.2551  0.1615  0.4679
   19SAPC   H5X 2507   5.688   0.848   9.298 -4.0991 -0.3396 -0.2691
   19SAPC   H5Y 2508   5.739   0.954   9.441  2.3572  1.7676 -1.1813
   19SAPC   C36 2509   5.703   1.059   9.264 -0.4066 -0.2512  0.6038
   19SAPC   H6X 2510   5.812   1.063   9.247 -0.5759  0.8280 -0.3178
   19SAPC   H6Y 2511   5.673   1.158   9.305 -2.3328  0.2890 -1.8332
   19SAPC   C37 2512   5.648   1.042   9.121 -0.0545  0.8601  0.5470
   19SAPC   H7X 2513   5.537   1.039   9.127  0.0005  0.2757  1.4638
   19SAPC   H7Y 2514   5.685   0.946   9.078  2.4057  3.4547 -3.9011
   19SAPC   C38 2515   5.683   1.159   9.030 -0.2815  0.8055 -1.7829
   19SAPC   H8X 2516   5.791   1.168   9.004  0.8298 -1.8563  1.2053
   19SAPC   H8Y 2517   5.654   1.253   9.082  0.3674 -0.4078  0.9767
   19SAPC   C39 2518   5.618   1.142   8.889  0.0030  0.0382  0.3630
   19SAPC   H9X 2519   5.508   1.136   8.899 -0.6047 -0.6529 -4.2514
   19SAPC   H9Y 2520   5.645   1.048   8.835 -2.9559  0.4399 -2.0943
   19SAPC  C310 2521   5.669   1.257   8.789 -0.0907 -0.0463 -0.5194
   19SAPC  H10X 2522   5.675   1.211   8.688 -1.2075 -1.8327  0.1903
   19SAPC  H10Y 2523   5.769   1.287   8.827 -1.4854  1.5029  2.2688
   19SAPC  C311 2524   5.575   1.374   8.789  0.0450 -0.4657  0.4416
   19SAPC  H11X 2525   5.622   1.451   8.723 -1.6265 -1.3800 -1.9392
   19SAPC  H11Y 2526   5.562   1.417   8.891 -0.8065 -0.5200  0.3579
   19SAPC  C312 2527   5.439   1.341   8.724  0.0543 -0.2898 -0.0721
   19SAPC  H12X 2528   5.391   1.439   8.701 -2.6149 -1.8122 -1.5225
   19SAPC  H12Y 2529   5.367   1.287   8.790 -0.1321  0.9477  0.7748
   19SAPC  C313 2530   5.441   1.253   8.595 -0.0178  0.6877  0.4154
   19SAPC  H13X 2531   5.487   1.154   8.615 -0.8614  0.6133  2.1975
   19SAPC  H13Y 2532   5.509   1.292   8.516  0.1189 -0.7254 -0.2034
   19SAPC  C314 2533   5.303   1.220   8.558  0.2740  0.1473  0.0606
   19SAPC  H14X 2534   5.251   1.317   8.575 -1.4423 -0.6277 -0.4855
   19SAPC  H14Y 2535   5.282   1.135   8.627  1.3551  0.1062  0.3572
   19SAPC  C315 2536   5.284   1.176   8.413 -0.3118  0.3439  0.3787
   19SAPC  H15X 2537   5.350   1.091   8.385  0.4864  2.1232 -3.8470
   19SAPC  H15Y 2538   5.327   1.256   8.349  0.5961  0.7027  1.4102
   19SAPC  C316 2539   5.140   1.149   8.365  0.9029  0.4208 -0.5767
   19SAPC  H16X 2540   5.143   1.118   8.258  0.6817  1.0732 -0.7730
   19SAPC  H16Y 2541   5.076   1.238   8.380  1.5895  0.7224  0.7291
   19SAPC  C317 2542   5.081   1.025   8.440 -0.4463  0.4651  0.2869
   19SAPC  H17X 2543   5.083   1.047   8.549  0.2302  0.7631  0.2212
   19SAPC  H17Y 2544   5.150   0.940   8.422 -1.2485  0.1885 -1.7425
   19SAPC  C318 2545   4.938   1.004   8.390 -0.7310 -0.1379  0.0748
   19SAPC  H18X 2546   4.938   0.979   8.282  1.7221 -2.3731  0.5047
   19SAPC  H18Y 2547   4.875   1.095   8.400  0.6251  1.0498 -1.5904
   19SAPC  H18Z 2548   4.900   0.923   8.456  2.2239 -1.7214 -0.0159
   20SAPC     N 2549   0.552   6.446  11.039  0.3086 -0.5576 -0.2067
   20SAPC   C12 2550   0.464   6.402  10.921  0.1688  0.0354  0.5899
   20SAPC  H12A 2551   0.368   6.449  10.937  0.4890  0.9099  0.0296
   20SAPC  H12B 2552   0.456   6.295  10.919  1.5135 -0.0764 -1.0625
   20SAPC   C13 2553   0.475   6.403  11.157  0.2384 -0.4655 -0.8324
   20SAPC  H13A 2554   0.441   6.301  11.165 -2.7873  0.5249  0.1699
   20SAPC  H13B 2555   0.531   6.421  11.247 -0.3675  1.0490 -0.7365
   20SAPC  H13C 2556   0.389   6.466  11.171  2.5879  2.4235  2.1539
   20SAPC   C14 2557   0.679   6.376  11.024 -0.1781  0.4819 -0.0644
   20SAPC  H14A 2558   0.729   6.407  10.934  2.7436 -0.9422  0.9641
   20SAPC  H14B 2559   0.741   6.400  11.108 -1.5916  0.2668  1.0723
   20SAPC  H14C 2560   0.660   6.269  11.027  0.6730  0.3412  3.1549
   20SAPC   C15 2561   0.570   6.595  11.030  0.6116  0.1313 -0.5282
   20SAPC  H15A 2562   0.611   6.612  10.932  0.5360 -0.9333 -0.7521
   20SAPC  H15B 2563   0.478   6.651  11.026  0.2031 -0.4547  0.3680
   20SAPC  H15C 2564   0.639   6.625  11.107  0.8455 -2.4153  0.3603
   20SAPC   C11 2565   0.503   6.446  10.777 -0.0383 -0.7038 -0.4380
   20SAPC  H11A 2566   0.511   6.557  10.773 -0.8583 -0.6692 -2.6815
   20SAPC  H11B 2567   0.419   6.431  10.706 -0.0354 -0.0494 -0.5884
   20SAPC     P 2568   0.624   6.239  10.688  0.0758  0.3824 -0.4807
   20SAPC   O13 2569   0.764   6.207  10.651  0.2890 -0.2371  0.2290
   20SAPC   O14 2570   0.564   6.155  10.793 -0.0839 -0.5449 -0.0469
   20SAPC   O12 2571   0.619   6.390  10.726 -0.1963 -0.2752 -0.4896
   20SAPC   O11 2572   0.534   6.241  10.553  0.0926  0.2474  0.0897
   20SAPC    C1 2573   0.552   6.348  10.461 -0.0135 -0.0957  0.0392
   20SAPC    HA 2574   0.496   6.436  10.501 -0.8339  0.4734 -2.2069
   20SAPC    HB 2575   0.657   6.382  10.449 -0.5364  1.5309 -0.3036
   20SAPC    C2 2576   0.524   6.317  10.314 -0.1579 -0.3757 -0.1371
   20SAPC    HS 2577   0.590   6.238  10.272 -2.7549 -2.4259 -0.6662
   20SAPC   O21 2578   0.506   6.424  10.225  0.0084  0.3074  0.0477
   20SAPC   C21 2579   0.598   6.517  10.227 -0.2950  0.4746 -0.5052
   20SAPC   O22 2580   0.704   6.518  10.284  0.1281  0.3625 -0.9221
   20SAPC   C22 2581   0.543   6.637  10.156  0.3599 -0.1206  0.3151
   20SAPC   H2R 2582   0.487   6.601  10.067  3.5168 -2.1525 -1.0293
   20SAPC   H2S 2583   0.462   6.691  10.210  1.5729  0.6940  1.3876
   20SAPC    C3 2584   0.395   6.227  10.311  1.2695  0.4303 -0.1428
   20SAPC    HX 2585   0.311   6.291  10.346 -0.8466  0.3770 -4.4333
   20SAPC    HY 2586   0.414   6.141  10.378 -2.1119 -1.2055 -1.0666
   20SAPC   O31 2587   0.366   6.187  10.171 -0.5327  0.0592 -0.3562
   20SAPC   C31 2588   0.248   6.110  10.168 -0.5653  0.1998  0.1680
   20SAPC   O32 2589   0.187   6.082  10.269  0.0604  0.1703  0.7288
   20SAPC   C32 2590   0.206   6.067  10.026 -0.5501 -0.1819 -0.1150
   20SAPC   H2X 2591   0.289   6.003   9.990 -0.8096 -1.3958  1.3404
   20SAPC   H2Y 2592   0.189   6.157   9.963 -1.8269 -0.6561 -0.4789
   20SAPC   C23 2593   0.654   6.736  10.098 -0.0329 -0.8132  0.3775
   20SAPC   H3R 2594   0.732   6.697  10.030  0.6376  1.2828 -0.1277
   20SAPC   H3S 2595   0.695   6.781  10.191 -0.8024  1.4477 -0.3122
   20SAPC   C24 2596   0.586   6.859  10.026 -0.1413 -0.3047 -0.8378
   20SAPC   H4R 2597   0.549   6.932  10.101 -2.0071 -1.4075 -0.6323
   20SAPC   H4S 2598   0.495   6.808   9.987  0.2424 -1.6734 -0.0033
   20SAPC   C25 2599   0.669   6.920   9.920  0.2049 -0.0694 -0.2426
   20SAPC   H5R 2600   0.768   6.963   9.937  1.5799 -1.7805 -3.1782
   20SAPC   C26 2601   0.627   6.915   9.794 -0.4874 -0.6071  0.1987
   20SAPC   H6R 2602   0.698   6.953   9.719  0.6944 -0.9127  1.1228
   20SAPC   C27 2603   0.494   6.873   9.751  0.1149  1.0332 -0.4673
   20SAPC   H7R 2604   0.453   6.938   9.671 -2.1969 -2.1895 -2.1168
   20SAPC   H7S 2605   0.410   6.892   9.820  0.9745 -0.2765  1.0218
   20SAPC   C28 2606   0.489   6.728   9.703  0.6025 -0.7272 -0.1463
   20SAPC   H8R 2607   0.488   6.636   9.764  0.7313 -0.8775 -0.3656
   20SAPC   C29 2608   0.495   6.694   9.576  0.1259  0.0086 -0.3181
   20SAPC   H9R 2609   0.476   6.589   9.546  0.5900 -0.0514 -0.4120
   20SAPC  C210 2610   0.507   6.788   9.456  0.1218 -0.1099  0.4483
   20SAPC  H10R 2611   0.588   6.746   9.392  1.2322  1.3683  0.8345
   20SAPC  H10S 2612   0.544   6.888   9.485 -0.5308  0.0538  0.7384
   20SAPC  C211 2613   0.379   6.798   9.382 -0.1760  0.4401  0.0754
   20SAPC  H11R 2614   0.313   6.876   9.422  0.4213  1.2318 -0.4560
   20SAPC  C212 2615   0.331   6.732   9.277 -0.1327 -0.3436  0.2039
   20SAPC  H12R 2616   0.242   6.761   9.219  0.0238 -2.0561 -0.9915
   20SAPC  C213 2617   0.411   6.624   9.213  0.2011  0.3607  0.2645
   20SAPC  H13R 2618   0.475   6.579   9.292 -0.8054  1.3886  1.7050
   20SAPC  H13S 2619   0.486   6.658   9.138 -0.9403 -1.6736 -1.9335
   20SAPC  C214 2620   0.299   6.531   9.155  0.6527 -0.0040 -0.3004
   20SAPC  H14R 2621   0.245   6.471   9.229 -1.5785  1.5790 -0.5524
   20SAPC  C215 2622   0.259   6.522   9.025 -0.1823 -0.1617 -0.4434
   20SAPC  H15R 2623   0.172   6.461   8.999  0.2513 -1.0792  0.2108
   20SAPC  C216 2624   0.316   6.601   8.909  0.0443 -0.3638 -0.1528
   20SAPC  H16R 2625   0.320   6.534   8.820  0.8887 -0.5055 -0.0145
   20SAPC  H16S 2626   0.423   6.627   8.923  0.2726 -1.1375 -0.3968
   20SAPC  C217 2627   0.233   6.718   8.864  0.1404 -0.3215  0.1688
   20SAPC  H17R 2628   0.244   6.804   8.933  3.0033  1.3618 -2.1093
   20SAPC  H17S 2629   0.127   6.687   8.852  0.3639 -1.2129  0.4727
   20SAPC  C218 2630   0.283   6.766   8.728 -0.0202 -0.2052  0.0319
   20SAPC  H18R 2631   0.290   6.671   8.671 -1.7653 -0.7133  0.5952
   20SAPC  H18S 2632   0.387   6.805   8.725  0.7365 -2.0261  0.9498
   20SAPC  C219 2633   0.189   6.863   8.663 -0.0446  0.5111 -0.8675
   20SAPC  H19R 2634   0.194   6.957   8.724  0.4739 -0.7555  1.1479
   20SAPC  H19S 2635   0.087   6.821   8.665  1.1565 -2.6421  0.5201
   20SAPC  C220 2636   0.213   6.895   8.520  0.2986  0.2563 -0.3249
   20SAPC  H20R 2637   0.190   6.808   8.456  0.3722 -1.0348  1.3471
   20SAPC  H20S 2638   0.318   6.928   8.501  0.9761 -0.7307  1.4728
   20SAPC  H20T 2639   0.149   6.971   8.470  2.9308  1.1415 -2.6444
   20SAPC   C33 2640   0.063   6.004  10.012 -0.4699  0.7939  0.6647
   20SAPC   H3X 2641  -0.026   6.071  10.010 -2.8034 -1.9398  3.0966
   20SAPC   H3Y 2642   0.041   5.954  10.109 -1.6754  1.0380  0.5359
   20SAPC   C34 2643   0.051   5.902   9.900 -0.1050  0.8284 -0.2656
   20SAPC   H4X 2644  -0.047   5.850   9.899 -0.0341  0.4888  2.3971
   20SAPC   H4Y 2645   0.140   5.834   9.896  0.4653  1.5464  0.0446
   20SAPC   C35 2646   0.062   5.986   9.767 -0.3413  0.4587 -0.5827
   20SAPC   H5X 2647   0.149   6.054   9.773 -0.4663  0.5107  0.8343
   20SAPC   H5Y 2648  -0.027   6.052   9.770 -0.9534 -0.3645  0.0153
   20SAPC   C36 2649   0.062   5.900   9.638 -0.4264  0.3855  0.0941
   20SAPC   H6X 2650  -0.022   5.829   9.630 -0.7022  0.6037  0.9919
   20SAPC   H6Y 2651   0.157   5.843   9.630 -1.6069 -1.7112  0.5851
   20SAPC   C37 2652   0.059   5.981   9.507  0.0431  0.6312  0.6821
   20SAPC   H7X 2653   0.143   6.054   9.508 -0.0191  0.7086  1.4164
   20SAPC   H7Y 2654  -0.035   6.038   9.497 -0.6219 -0.7369 -1.7172
   20SAPC   C38 2655   0.040   5.882   9.382  0.5720 -0.3684 -0.4452
   20SAPC   H8X 2656  -0.040   5.807   9.399  3.3618 -2.8952  3.1086
   20SAPC   H8Y 2657   0.136   5.826   9.384  0.6731 -0.2772  2.6061
   20SAPC   C39 2658   0.023   5.966   9.250 -0.3829 -1.0428  0.4256
   20SAPC   H9X 2659   0.115   6.028   9.249  0.7427 -2.6490  0.7472
   20SAPC   H9Y 2660  -0.064   6.035   9.251  1.3385  1.3779 -2.1620
   20SAPC  C310 2661   0.019   5.879   9.138 -0.3426 -0.1829 -0.0280
   20SAPC  H10X 2662  -0.083   5.837   9.123 -0.4041  0.4334 -1.4546
   20SAPC  H10Y 2663   0.093   5.796   9.147 -1.5909 -1.4069 -0.6393
   20SAPC  C311 2664   0.043   5.957   9.009 -0.3743  0.3281 -0.8263
   20SAPC  H11X 2665   0.153   5.950   8.993  0.1752  1.5299  1.9548
   20SAPC  H11Y 2666   0.022   6.064   9.030  2.8018  1.0174 -0.5616
   20SAPC  C312 2667  -0.039   5.917   8.888  0.5384  0.2254  1.1312
   20SAPC  H12X 2668  -0.144   5.884   8.902 -0.2060  0.1778 -3.1963
   20SAPC  H12Y 2669   0.008   5.829   8.840 -0.2945  0.7056 -0.6604
   20SAPC  C313 2670  -0.049   6.030   8.781 -0.3324  0.0600  0.4443
   20SAPC  H13X 2671   0.052   6.071   8.765 -0.3117  0.0894  0.6506
   20SAPC  H13Y 2672  -0.108   6.109   8.832  1.0764  2.0154 -0.8067
   20SAPC  C314 2673  -0.113   5.995   8.641 -1.0739 -0.5252  0.7369
   20SAPC  H14X 2674  -0.104   6.087   8.580 -0.8845 -1.9732 -1.5514
   20SAPC  H14Y 2675  -0.217   5.962   8.659 -1.3979  1.1197  2.1577
   20SAPC  C315 2676  -0.026   5.906   8.557 -0.2478  0.5590  0.7948
   20SAPC  H15X 2677   0.005   5.830   8.632 -2.2600  0.0219  1.1269
   20SAPC  H15Y 2678   0.064   5.961   8.519 -0.7010  0.4361 -0.5231
   20SAPC  C316 2679  -0.100   5.828   8.440  0.8137  0.4057  0.0484
   20SAPC  H16X 2680  -0.023   5.774   8.383 -1.0841 -0.8498 -1.4436
   20SAPC  H16Y 2681  -0.147   5.902   8.372  0.7469 -0.9205 -1.3983
   20SAPC  C317 2682  -0.201   5.715   8.486  0.4088 -0.0187 -0.3063
   20SAPC  H17X 2683  -0.172   5.666   8.582  1.0811  0.8424 -0.0577
   20SAPC  H17Y 2684  -0.189   5.627   8.419 -0.4504  0.3930 -1.0157
   20SAPC  C318 2685  -0.349   5.750   8.480 -0.7523 -0.5197  0.1597
   20SAPC  H18X 2686  -0.403   5.654   8.495 -1.0429 -0.6390 -1.4277
   20SAPC  H18Y 2687  -0.365   5.780   8.374  0.4835  0.8436  0.3363
   20SAPC  H18Z 2688  -0.364   5.834   8.551  1.2812  1.8596 -2.0114
   21SAPC     N 2689   2.295   5.253  10.518 -0.1720 -0.4017  0.0511
   21SAPC   C12 2690   2.411   5.210  10.598 -0.5103  0.1228  0.0262
   21SAPC  H12A 2691   2.480   5.158  10.533  0.4365  0.2293  0.9130
   21SAPC  H12B 2692   2.374   5.132  10.663 -1.7715  1.5451  1.0780
   21SAPC   C13 2693   2.330   5.361  10.419 -0.3964  0.5755  0.1395
   21SAPC  H13A 2694   2.243   5.407  10.374  0.1903  1.4337 -0.1470
   21SAPC  H13B 2695   2.396   5.441  10.450  3.3116 -1.7562 -1.0223
   21SAPC  H13C 2696   2.389   5.328  10.335  1.7924  1.5507  1.2098
   21SAPC   C14 2697   2.243   5.135  10.442 -0.2184  1.2363 -0.4460
   21SAPC  H14A 2698   2.143   5.152  10.406 -1.0138  0.0984  1.1180
   21SAPC  H14B 2699   2.307   5.097  10.364 -0.3927 -1.8815  0.7817
   21SAPC  H14C 2700   2.247   5.060  10.519  0.4575  1.0592 -0.6460
   21SAPC   C15 2701   2.183   5.294  10.606  0.4394 -0.4054  0.4075
   21SAPC  H15A 2702   2.142   5.211  10.662  0.5706 -0.2973  0.6677
   21SAPC  H15B 2703   2.214   5.380  10.663  0.1006  0.4664 -0.6888
   21SAPC  H15C 2704   2.102   5.328  10.542  1.5690  1.4366 -0.1293
   21SAPC   C11 2705   2.485   5.315  10.676  0.2461 -0.4886 -0.6241
   21SAPC  H11A 2706   2.413   5.341  10.757 -0.6519  0.7310 -1.7714
   21SAPC  H11B 2707   2.496   5.403  10.609 -4.1957  0.4576 -0.4741
   21SAPC     P 2708   2.717   5.362  10.778  0.2589  0.0841 -0.0271
   21SAPC   O13 2709   2.694   5.498  10.722  0.3938 -0.1201 -0.2995
   21SAPC   O14 2710   2.734   5.353  10.925 -0.4893  0.6954  0.7391
   21SAPC   O12 2711   2.604   5.263  10.729  0.1057 -0.1547 -0.4369
   21SAPC   O11 2712   2.843   5.305  10.700 -0.2876  0.0622 -0.5388
   21SAPC    C1 2713   2.833   5.216  10.589  0.2561 -0.0772 -0.1497
   21SAPC    HA 2714   2.933   5.174  10.564  0.1904 -0.2318 -0.1540
   21SAPC    HB 2715   2.774   5.125  10.612  2.1109 -0.5771  3.4217
   21SAPC    C2 2716   2.783   5.291  10.464 -0.1968 -0.4854  0.3481
   21SAPC    HS 2717   2.674   5.313  10.470 -0.6398 -2.3442 -0.1861
   21SAPC   O21 2718   2.812   5.214  10.345  0.0967  0.3323 -0.2748
   21SAPC   C21 2719   2.720   5.123  10.310  0.2939 -0.6220 -0.6041
   21SAPC   O22 2720   2.617   5.103  10.375 -0.6737 -0.1217  0.0164
   21SAPC   C22 2721   2.746   5.073  10.176  0.5321 -0.9217  0.2485
   21SAPC   H2R 2722   2.841   5.015  10.186  1.4464  0.6705  1.1732
   21SAPC   H2S 2723   2.665   5.006  10.142 -0.1061  0.1283 -0.3361
   21SAPC    C3 2724   2.863   5.425  10.444  0.5089 -0.6856 -0.1449
   21SAPC    HX 2725   2.972   5.414  10.461  0.5375  1.3525  1.3550
   21SAPC    HY 2726   2.838   5.483  10.535  2.0746 -0.5981  0.2471
   21SAPC   O31 2727   2.824   5.494  10.325  0.3576  0.2494  0.6285
   21SAPC   C31 2728   2.893   5.604  10.316 -0.2293 -1.0902  0.6066
   21SAPC   O32 2729   2.982   5.642  10.391  0.0304  0.0550  0.2788
   21SAPC   C32 2730   2.861   5.663  10.172 -0.0338 -0.3515 -0.3978
   21SAPC   H2X 2731   2.756   5.699  10.174  0.5051  1.2749  1.0720
   21SAPC   H2Y 2732   2.868   5.577  10.102  1.0799 -2.1820  1.8319
   21SAPC   C23 2733   2.781   5.186  10.073  0.8932  0.1675  0.6594
   21SAPC   H3R 2734   2.843   5.134   9.997 -0.4444  0.1190 -0.4475
   21SAPC   H3S 2735   2.847   5.263  10.118  0.8438  0.6622 -0.0954
   21SAPC   C24 2736   2.653   5.243  10.000 -0.0119 -0.2029 -0.2386
   21SAPC   H4R 2737   2.580   5.162   9.975  0.9570 -1.2674  0.3168
   21SAPC   H4S 2738   2.686   5.288   9.904 -0.6419  0.2512 -0.2487
   21SAPC   C25 2739   2.597   5.352  10.084 -0.8688 -0.9101 -0.0807
   21SAPC   H5R 2740   2.640   5.342  10.185 -0.9649 -0.7501 -0.0245
   21SAPC   C26 2741   2.512   5.449  10.056  0.7700  0.4407  0.1396
   21SAPC   H6R 2742   2.475   5.518  10.133 -0.4482  0.4477 -0.4197
   21SAPC   C27 2743   2.447   5.471   9.923  0.4093 -0.2514  0.6876
   21SAPC   H7R 2744   2.525   5.458   9.845 -0.3918 -2.3363  0.1660
   21SAPC   H7S 2745   2.414   5.576   9.905 -0.3195 -0.8761 -2.1410
   21SAPC   C28 2746   2.340   5.372   9.897  0.1186 -0.4094  0.2608
   21SAPC   H8R 2747   2.244   5.389   9.947 -1.4995 -0.9651 -2.4450
   21SAPC   C29 2748   2.338   5.280   9.796 -0.0098 -0.1757  0.0187
   21SAPC   H9R 2749   2.251   5.214   9.788 -0.0785  0.1691 -3.8939
   21SAPC  C210 2750   2.444   5.252   9.695  0.9198  0.1365  0.4627
   21SAPC  H10R 2751   2.542   5.231   9.742  0.6470 -2.2151  0.1221
   21SAPC  H10S 2752   2.462   5.347   9.641  0.9149 -0.5316 -0.7367
   21SAPC  C211 2753   2.402   5.136   9.603  0.6280  0.1021 -0.0570
   21SAPC  H11R 2754   2.369   5.048   9.661  0.9185  0.7763  1.1621
   21SAPC  C212 2755   2.413   5.142   9.467  0.6746 -0.8281  0.5100
   21SAPC  H12R 2756   2.399   5.051   9.406  0.5264 -0.0166 -0.7136
   21SAPC  C213 2757   2.454   5.255   9.378 -0.4819 -0.1858 -0.1630
   21SAPC  H13R 2758   2.419   5.353   9.417  0.4031  0.0352  0.1024
   21SAPC  H13S 2759   2.399   5.239   9.282 -1.0456 -1.2704  0.3209
   21SAPC  C214 2760   2.603   5.250   9.365 -0.9279 -0.1220  0.2149
   21SAPC  H14R 2761   2.655   5.286   9.454 -1.5663  2.1402 -0.2771
   21SAPC  C215 2762   2.670   5.217   9.253 -0.9880 -0.1152 -0.1921
   21SAPC  H15R 2763   2.780   5.226   9.248 -1.2036  3.5857 -1.1325
   21SAPC  C216 2764   2.617   5.175   9.115  0.0340  0.1289  0.2865
   21SAPC  H16R 2765   2.665   5.246   9.045  0.8902 -0.4420  0.2768
   21SAPC  H16S 2766   2.507   5.187   9.104  0.0293  0.6614  0.8349
   21SAPC  C217 2767   2.647   5.023   9.090 -1.0590 -0.3009  0.1554
   21SAPC  H17R 2768   2.576   4.948   9.130 -1.2263 -0.2796 -0.0996
   21SAPC  H17S 2769   2.743   4.999   9.140  1.3459 -1.1425 -4.2733
   21SAPC  C218 2770   2.677   4.994   8.939 -0.3652  0.6180  0.0540
   21SAPC  H18R 2771   2.767   5.048   8.903 -0.0416 -0.3787 -0.6851
   21SAPC  H18S 2772   2.594   5.032   8.875  0.9607  1.1465 -1.4451
   21SAPC  C219 2773   2.700   4.844   8.913 -0.1298  0.3500  0.1656
   21SAPC  H19R 2774   2.604   4.802   8.952 -0.1050  1.5189  1.5757
   21SAPC  H19S 2775   2.784   4.800   8.970  0.7738  2.3573  0.4428
   21SAPC  C220 2776   2.717   4.826   8.761  0.1311 -0.4194  0.2774
   21SAPC  H20R 2777   2.623   4.848   8.707 -0.8022 -2.6426  0.8975
   21SAPC  H20S 2778   2.741   4.723   8.728  0.3693 -0.9553  2.0259
   21SAPC  H20T 2779   2.798   4.890   8.719 -1.2112  0.9238 -0.3277
   21SAPC   C33 2780   2.957   5.776  10.124  0.2971 -0.5365  0.2148
   21SAPC   H3X 2781   3.060   5.762  10.161  0.2409 -1.5120  0.0430
   21SAPC   H3Y 2782   2.922   5.869  10.172 -0.0584  0.1290 -1.2682
   21SAPC   C34 2783   2.964   5.800   9.974  0.1231 -0.6231  0.4238
   21SAPC   H4X 2784   3.021   5.712   9.938  0.1748  0.3460 -2.1005
   21SAPC   H4Y 2785   3.010   5.895   9.938 -1.8159 -0.0292 -0.6420
   21SAPC   C35 2786   2.828   5.780   9.903  0.1449  0.2467 -0.2597
   21SAPC   H5X 2787   2.763   5.870   9.905  0.2505  0.3225 -0.2113
   21SAPC   H5Y 2788   2.772   5.705   9.962  1.1637  1.6583  2.7169
   21SAPC   C36 2789   2.837   5.743   9.754 -0.1279 -0.1532 -0.6469
   21SAPC   H6X 2790   2.891   5.647   9.744 -2.2975 -1.3899 -1.3035
   21SAPC   H6Y 2791   2.882   5.823   9.692 -1.7376 -0.6395 -2.5363
   21SAPC   C37 2792   2.696   5.710   9.700 -0.7079  0.9239 -0.1242
   21SAPC   H7X 2793   2.630   5.797   9.717 -2.4409  0.0083 -1.8410
   21SAPC   H7Y 2794   2.652   5.624   9.754  1.9822 -0.1446  0.5238
   21SAPC   C38 2795   2.711   5.667   9.552 -0.0146  0.2804  0.2925
   21SAPC   H8X 2796   2.762   5.569   9.562 -2.7796 -1.4032 -1.1931
   21SAPC   H8Y 2797   2.782   5.733   9.497 -1.3344  1.3991 -0.1285
   21SAPC   C39 2798   2.580   5.679   9.485  0.8418  0.7629 -0.5967
   21SAPC   H9X 2799   2.541   5.782   9.502 -0.6481  0.3408 -1.2965
   21SAPC   H9Y 2800   2.509   5.612   9.539 -1.0153  2.0688 -1.3241
   21SAPC  C310 2801   2.581   5.634   9.337 -0.2483 -0.0038  0.9165
   21SAPC  H10X 2802   2.630   5.535   9.325  0.6908  0.5795 -0.1002
   21SAPC  H10Y 2803   2.645   5.698   9.274  0.0360 -0.4741  0.7236
   21SAPC  C311 2804   2.439   5.635   9.290 -0.1430  0.7957 -0.8511
   21SAPC  H11X 2805   2.403   5.740   9.306  0.8381  1.0407 -0.2003
   21SAPC  H11Y 2806   2.388   5.575   9.368  0.6946 -0.9609 -1.6227
   21SAPC  C312 2807   2.407   5.576   9.152 -0.2262  0.3015  0.1573
   21SAPC  H12X 2808   2.307   5.614   9.124 -1.3868 -1.4494  1.7334
   21SAPC  H12Y 2809   2.390   5.467   9.151  0.0445  0.1415 -4.1197
   21SAPC  C313 2810   2.518   5.600   9.057 -0.3126 -0.1941  0.1245
   21SAPC  H13X 2811   2.611   5.547   9.089  1.3035  1.0300 -2.2965
   21SAPC  H13Y 2812   2.550   5.706   9.048  2.9685 -1.0738  0.0073
   21SAPC  C314 2813   2.480   5.547   8.919  0.6060 -0.2026  0.6200
   21SAPC  H14X 2814   2.441   5.443   8.930  0.5570 -0.1722  0.7325
   21SAPC  H14Y 2815   2.560   5.531   8.842 -1.1409 -2.4409 -0.8566
   21SAPC  C315 2816   2.376   5.636   8.849 -0.3901  0.3143 -0.7804
   21SAPC  H15X 2817   2.404   5.743   8.859 -0.5013  0.6053 -3.1596
   21SAPC  H15Y 2818   2.276   5.626   8.897  0.4682 -1.1183  0.8493
   21SAPC  C316 2819   2.368   5.601   8.706  0.0424  0.3090  0.2809
   21SAPC  H16X 2820   2.369   5.490   8.702 -1.1706  0.2419  1.0262
   21SAPC  H16Y 2821   2.454   5.626   8.641  0.6013 -0.0619  0.8635
   21SAPC  C317 2822   2.235   5.659   8.643 -0.5856 -0.8021 -0.4717
   21SAPC  H17X 2823   2.155   5.613   8.706  1.7478 -0.7083  2.8331
   21SAPC  H17Y 2824   2.213   5.620   8.541 -2.3550 -0.9391 -0.0779
   21SAPC  C318 2825   2.217   5.806   8.637 -0.2508  0.4154  0.4361
   21SAPC  H18X 2826   2.171   5.840   8.732  0.6530  0.8800  0.7159
   21SAPC  H18Y 2827   2.149   5.829   8.552  1.6779 -0.6224 -1.4661
   21SAPC  H18Z 2828   2.313   5.859   8.620 -0.3225 -0.1328 -2.1433
   22SAPC     N 2829   5.759   6.852  10.848 -0.7807 -0.2982  0.0352
   22SAPC   C12 2830   5.758   6.911  10.706  0.4368  0.0645 -0.2272
   22SAPC  H12A 2831   5.852   6.957  10.679  0.7981 -0.2130  0.5357
   22SAPC  H12B 2832   5.685   6.991  10.704 -0.7084 -0.9240  0.5844
   22SAPC   C13 2833   5.626   6.785  10.864  0.0038  0.2542 -0.5888
   22SAPC  H13A 2834   5.620   6.694  10.807  2.2491 -1.8520  2.2028
   22SAPC  H13B 2835   5.601   6.769  10.968 -1.5753  2.7614 -0.4988
   22SAPC  H13C 2836   5.549   6.853  10.831 -0.3041  0.6772  0.9187
   22SAPC   C14 2837   5.867   6.754  10.870  0.4335  0.0685  0.3996
   22SAPC  H14A 2838   5.868   6.719  10.973  1.0220  1.6799  0.9737
   22SAPC  H14B 2839   5.857   6.671  10.802 -0.9966  0.2166  0.3962
   22SAPC  H14C 2840   5.961   6.800  10.842  1.1257 -0.7635  1.2518
   22SAPC   C15 2841   5.773   6.956  10.954 -0.3734 -0.3919 -0.5874
   22SAPC  H15A 2842   5.787   6.912  11.051 -1.4043 -1.3392 -0.8488
   22SAPC  H15B 2843   5.857   7.023  10.939  0.3315 -1.5022 -1.8767
   22SAPC  H15C 2844   5.683   7.016  10.963 -0.7173 -0.9569 -0.2528
   22SAPC   C11 2845   5.733   6.808  10.591 -0.0142  0.8689  0.0515
   22SAPC  H11A 2846   5.715   6.865  10.498 -0.2748  1.4657  0.4629
   22SAPC  H11B 2847   5.634   6.760  10.607 -1.3739  3.4506 -0.1167
   22SAPC     P 2848   5.975   6.755  10.522 -0.2104 -0.0082  0.0521
   22SAPC   O13 2849   6.040   6.861  10.600 -0.1745  0.1052 -0.1011
   22SAPC   O14 2850   6.056   6.633  10.496 -0.0735 -0.0139  0.4647
   22SAPC   O12 2851   5.842   6.712  10.577 -0.1488 -0.0390  0.0196
   22SAPC   O11 2852   5.939   6.803  10.373 -0.7317 -0.2705  0.7761
   22SAPC    C1 2853   5.977   6.932  10.323  0.2558  0.3132 -1.0072
   22SAPC    HA 2854   5.926   6.948  10.226 -1.1547  0.7601 -0.2193
   22SAPC    HB 2855   5.943   7.011  10.393 -0.7260 -1.3786  0.5219
   22SAPC    C2 2856   6.127   6.938  10.294 -0.1018  0.1898  0.0209
   22SAPC    HS 2857   6.184   6.924  10.388  1.1044 -2.4735 -1.0233
   22SAPC   O21 2858   6.155   7.070  10.250  0.3940 -0.4095  0.6685
   22SAPC   C21 2859   6.277   7.109  10.238 -0.7105  0.3189  0.4041
   22SAPC   O22 2860   6.377   7.045  10.273 -0.1976 -0.1250  0.3403
   22SAPC   C22 2861   6.290   7.257  10.197 -0.3185  0.2610  0.0460
   22SAPC   H2R 2862   6.221   7.273  10.111  1.7193 -2.5792 -2.2909
   22SAPC   H2S 2863   6.258   7.312  10.288 -0.3503 -1.7967  1.3314
   22SAPC    C3 2864   6.176   6.837  10.185  0.5530  0.4353  0.6346
   22SAPC    HX 2865   6.165   6.732  10.219  0.7902 -0.6078 -2.2566
   22SAPC    HY 2866   6.287   6.842  10.178  0.7325 -0.8318  2.1902
   22SAPC   O31 2867   6.130   6.856  10.051  0.1632 -0.4158  0.2919
   22SAPC   C31 2868   6.035   6.784  10.015 -0.0415  0.3145  0.1902
   22SAPC   O32 2869   5.973   6.706  10.089  0.0562 -0.0912  0.2141
   22SAPC   C32 2870   6.010   6.805   9.865 -0.4760 -0.1153  0.2941
   22SAPC   H2X 2871   6.057   6.896   9.825 -2.3147 -0.3968 -2.8702
   22SAPC   H2Y 2872   5.899   6.808   9.856 -0.6570 -3.6679 -0.1545
   22SAPC   C23 2873   6.435   7.289  10.151 -0.1764  0.1347  0.6139
   22SAPC   H3R 2874   6.508   7.241  10.219  0.0471 -2.6898 -1.4065
   22SAPC   H3S 2875   6.458   7.396  10.139  0.1829  0.0845  0.8492
   22SAPC   C24 2876   6.453   7.235  10.003 -1.2402  0.2509 -1.0096
   22SAPC   H4R 2877   6.439   7.126   9.990 -2.2717  0.4595 -1.7482
   22SAPC   H4S 2878   6.563   7.247  10.003 -1.1082 -0.6867  0.6220
   22SAPC   C25 2879   6.395   7.322   9.898  0.0432  0.8075  0.6930
   22SAPC   H5R 2880   6.433   7.425   9.884  0.1462  0.7319  0.4253
   22SAPC   C26 2881   6.289   7.283   9.819 -0.4957  0.5091 -0.9942
   22SAPC   H6R 2882   6.238   7.357   9.757 -0.2936  1.4719 -0.0461
   22SAPC   C27 2883   6.210   7.153   9.826 -0.3765  0.2939 -0.1248
   22SAPC   H7R 2884   6.214   7.098   9.922 -0.7619  1.4020  0.5507
   22SAPC   H7S 2885   6.244   7.082   9.748  0.0150  1.5066 -1.1064
   22SAPC   C28 2886   6.059   7.177   9.798 -0.3662  0.3985 -0.3711
   22SAPC   H8R 2887   6.014   7.219   9.889 -0.8625 -0.3161 -0.2786
   22SAPC   C29 2888   5.982   7.151   9.695  0.0768  0.9481  0.4105
   22SAPC   H9R 2889   5.877   7.183   9.698 -0.5510 -0.6120 -1.9098
   22SAPC  C210 2890   6.030   7.087   9.566 -0.6574 -0.1626 -0.5889
   22SAPC  H10R 2891   5.947   7.066   9.496 -0.6008 -0.4152 -0.5790
   22SAPC  H10S 2892   6.077   6.987   9.572 -0.7398 -0.2675 -1.5713
   22SAPC  C211 2893   6.132   7.174   9.490  0.5539  0.0810  0.6444
   22SAPC  H11R 2894   6.191   7.234   9.560  0.4972 -1.3698  1.9711
   22SAPC  C212 2895   6.135   7.197   9.355  0.0235 -0.4412  0.1208
   22SAPC  H12R 2896   6.209   7.271   9.321 -0.7876 -1.0483 -3.4122
   22SAPC  C213 2897   6.038   7.142   9.250 -0.3558  0.1118  0.1625
   22SAPC  H13R 2898   6.031   7.210   9.162 -3.0518 -0.0719  0.1415
   22SAPC  H13S 2899   5.933   7.124   9.284 -0.3347 -1.7227 -0.6124
   22SAPC  C214 2900   6.079   7.002   9.206 -0.4383  0.8139  0.3759
   22SAPC  H14R 2901   6.128   6.939   9.282 -1.1565 -0.4251 -0.1566
   22SAPC  C215 2902   6.065   6.957   9.078  0.5045 -0.2671  0.4774
   22SAPC  H15R 2903   6.107   6.860   9.046 -0.9076 -0.8932  0.4623
   22SAPC  C216 2904   6.008   7.041   8.968 -0.3186 -0.0705  0.6763
   22SAPC  H16R 2905   5.932   7.114   9.002 -0.4979  1.3581 -2.4444
   22SAPC  H16S 2906   5.961   6.974   8.894  0.2101 -0.5296  0.7436
   22SAPC  C217 2907   6.108   7.107   8.876  0.3809 -0.1168 -0.3767
   22SAPC  H17R 2908   6.172   7.028   8.834 -1.4336 -0.7723 -2.0630
   22SAPC  H17S 2909   6.169   7.175   8.940 -1.2724  1.0598  0.0411
   22SAPC  C218 2910   6.057   7.200   8.773  0.8016 -0.0971 -0.3363
   22SAPC  H18R 2911   5.983   7.262   8.828 -0.2527 -2.4521  1.0832
   22SAPC  H18S 2912   6.019   7.141   8.687  0.1886 -0.3046  0.0670
   22SAPC  C219 2913   6.164   7.294   8.717 -0.4396  0.4617  0.4545
   22SAPC  H19R 2914   6.252   7.231   8.693 -1.4524 -0.6708 -0.4160
   22SAPC  H19S 2915   6.190   7.365   8.798  0.9982  0.7163 -0.1949
   22SAPC  C220 2916   6.135   7.357   8.587  0.4647 -0.2054 -0.1674
   22SAPC  H20R 2917   6.212   7.430   8.553 -0.0586  0.5603  0.2723
   22SAPC  H20S 2918   6.036   7.407   8.583  0.2066 -0.7265 -0.4218
   22SAPC  H20T 2919   6.150   7.273   8.515  0.0442 -0.5758  0.1675
   22SAPC   C33 2920   6.063   6.680   9.787  0.3714  0.3408  0.5042
   22SAPC   H3X 2921   6.017   6.585   9.824 -2.9344  1.4500 -0.4138
   22SAPC   H3Y 2922   6.173   6.686   9.800  0.2651  1.3008  1.0560
   22SAPC   C34 2923   6.034   6.688   9.638 -0.2302 -0.6468  0.2769
   22SAPC   H4X 2924   6.058   6.587   9.599  1.1350  0.0341 -0.7255
   22SAPC   H4Y 2925   6.099   6.765   9.589 -2.6280  0.5773 -1.1852
   22SAPC   C35 2926   5.887   6.726   9.601  0.4709  0.2740 -0.7321
   22SAPC   H5X 2927   5.859   6.819   9.653 -0.7974 -0.1571 -0.6120
   22SAPC   H5Y 2928   5.816   6.647   9.634 -0.0723  0.3724 -1.6205
   22SAPC   C36 2929   5.876   6.760   9.457  0.2915  0.5919  0.5836
   22SAPC   H6X 2930   5.916   6.687   9.383  0.2631  0.6377  0.5230
   22SAPC   H6Y 2931   5.939   6.850   9.444  2.2955 -0.9656 -1.4039
   22SAPC   C37 2932   5.728   6.771   9.416 -0.0039  0.3755 -0.1220
   22SAPC   H7X 2933   5.690   6.851   9.483 -1.2553  0.4216 -0.8528
   22SAPC   H7Y 2934   5.682   6.671   9.432  1.0580 -0.6180 -2.7417
   22SAPC   C38 2935   5.701   6.815   9.273  0.4656 -0.0007 -0.4432
   22SAPC   H8X 2936   5.763   6.901   9.240  0.1918 -0.1933 -1.4824
   22SAPC   H8Y 2937   5.597   6.847   9.253  1.3742  1.5833 -3.0268
   22SAPC   C39 2938   5.729   6.691   9.181 -0.5782 -0.0231 -0.0328
   22SAPC   H9X 2939   5.659   6.606   9.197  0.0909 -0.4675  0.6193
   22SAPC   H9Y 2940   5.823   6.637   9.209 -1.5799 -0.8928  1.8198
   22SAPC  C310 2941   5.733   6.729   9.035 -0.9404  0.2019  0.4654
   22SAPC  H10X 2942   5.826   6.787   9.015 -1.3855  0.4024 -1.1905
   22SAPC  H10Y 2943   5.648   6.799   9.017  0.5286  1.8983 -0.1554
   22SAPC  C311 2944   5.722   6.602   8.942  0.1010  0.1861  0.2835
   22SAPC  H11X 2945   5.621   6.556   8.939 -1.2262  2.8462 -2.3668
   22SAPC  H11Y 2946   5.787   6.527   8.991  0.0509 -1.2597 -1.7524
   22SAPC  C312 2947   5.774   6.627   8.800 -0.0571  0.5471  0.5962
   22SAPC  H12X 2948   5.742   6.540   8.737 -1.8519  2.2850 -1.0284
   22SAPC  H12Y 2949   5.885   6.621   8.797  0.0772 -0.4673  3.8001
   22SAPC  C313 2950   5.719   6.763   8.736  0.2059  0.3697 -0.6969
   22SAPC  H13X 2951   5.737   6.850   8.802  1.3305  1.6421 -2.5797
   22SAPC  H13Y 2952   5.613   6.756   8.703  0.1723 -0.7547 -0.3961
   22SAPC  C314 2953   5.787   6.813   8.605  0.1909 -0.0712 -0.7396
   22SAPC  H14X 2954   5.811   6.727   8.538 -1.8348  0.0575 -1.7015
   22SAPC  H14Y 2955   5.884   6.864   8.624 -0.3171  0.7957 -0.4168
   22SAPC  C315 2956   5.702   6.911   8.521 -0.0419 -0.8056  0.0872
   22SAPC  H15X 2957   5.600   6.871   8.503 -0.9050  1.9633 -1.8915
   22SAPC  H15Y 2958   5.752   6.926   8.423 -1.4571  0.0984 -0.5356
   22SAPC  C316 2959   5.699   7.055   8.586  0.6654 -0.1230  0.4580
   22SAPC  H16X 2960   5.800   7.096   8.604  1.0244 -0.3071 -0.9668
   22SAPC  H16Y 2961   5.652   7.035   8.685  1.5980 -0.3927  0.8536
   22SAPC  C317 2962   5.619   7.154   8.512 -0.0064 -0.3154 -0.0379
   22SAPC  H17X 2963   5.514   7.118   8.509 -1.2548  2.9420  0.5238
   22SAPC  H17Y 2964   5.665   7.176   8.414 -0.2860  0.6554  0.0407
   22SAPC  C318 2965   5.610   7.286   8.580  0.5684 -0.5521 -0.2610
   22SAPC  H18X 2966   5.707   7.334   8.606 -0.5628  1.1713  0.9718
   22SAPC  H18Y 2967   5.555   7.262   8.674  2.7577 -0.5941  1.0758
   22SAPC  H18Z 2968   5.553   7.360   8.520 -0.8241  0.0736  1.7153
   23SAPC     N 2969   0.685   3.734  11.057 -0.1789 -0.0812  0.0902
   23SAPC   C12 2970   0.597   3.695  10.932 -0.3738 -0.3515  0.6994
   23SAPC  H12A 2971   0.574   3.590  10.944 -1.1757 -0.2290  0.2497
   23SAPC  H12B 2972   0.655   3.697  10.841 -2.0844 -1.2559 -0.4697
   23SAPC   C13 2973   0.816   3.665  11.051  0.3372  0.0526  0.5418
   23SAPC  H13A 2974   0.862   3.694  10.957 -3.3934 -0.4164 -1.6262
   23SAPC  H13B 2975   0.887   3.678  11.132  1.5499 -0.3287 -0.4202
   23SAPC  H13C 2976   0.804   3.558  11.046  2.8610 -0.2434 -1.7318
   23SAPC   C14 2977   0.718   3.887  11.041 -0.1982 -0.1655 -0.8153
   23SAPC  H14A 2978   0.631   3.948  11.059 -0.5334 -1.3795  2.3571
   23SAPC  H14B 2979   0.789   3.916  11.117  0.7502 -2.1087 -0.8960
   23SAPC  H14C 2980   0.755   3.913  10.943  0.8911  1.5255 -0.0172
   23SAPC   C15 2981   0.602   3.711  11.182 -0.1736  0.5203  0.2201
   23SAPC  H15A 2982   0.643   3.752  11.273 -0.7741 -3.2539  2.3767
   23SAPC  H15B 2983   0.507   3.761  11.172 -0.9170 -0.5184  1.7112
   23SAPC  H15C 2984   0.574   3.609  11.203  0.6508  0.2787  0.1811
   23SAPC   C11 2985   0.462   3.772  10.915  0.3488  0.1278  0.4138
   23SAPC  H11A 2986   0.491   3.880  10.910 -2.5305  0.9682  0.0854
   23SAPC  H11B 2987   0.395   3.774  11.003 -0.1887 -1.0469  0.0515
   23SAPC     P 2988   0.427   3.760  10.661  0.2251  0.1024 -0.0998
   23SAPC   O13 2989   0.562   3.711  10.648 -0.5879 -0.5989  0.4105
   23SAPC   O14 2990   0.317   3.715  10.572 -0.3862 -0.3430 -0.2858
   23SAPC   O12 2991   0.381   3.740  10.804 -0.0728 -0.6063 -0.9832
   23SAPC   O11 2992   0.430   3.917  10.652  0.7967 -0.2318  0.2486
   23SAPC    C1 2993   0.380   3.990  10.534  0.1286 -0.2613  0.7505
   23SAPC    HA 2994   0.283   3.941  10.512  0.5624 -1.1759  0.7842
   23SAPC    HB 2995   0.358   4.095  10.563  0.3871  0.1190 -0.4008
   23SAPC    C2 2996   0.473   3.988  10.412  0.7920 -0.2048  0.2079
   23SAPC    HS 2997   0.429   4.039  10.324  0.7969 -2.2162 -1.0116
   23SAPC   O21 2998   0.510   3.855  10.372  0.1005 -1.0351 -0.2417
   23SAPC   C21 2999   0.417   3.791  10.311  0.2243  0.3014 -1.0341
   23SAPC   O22 3000   0.306   3.826  10.294  0.1343 -0.8064  0.1101
   23SAPC   C22 3001   0.472   3.652  10.272  0.3582 -0.0097  0.0253
   23SAPC   H2R 3002   0.565   3.636  10.330  0.8854 -1.0682 -1.0757
   23SAPC   H2S 3003   0.394   3.581  10.306 -0.0942  0.8342  0.8019
   23SAPC    C3 3004   0.607   4.066  10.443  0.0445  0.3902  0.6409
   23SAPC    HX 3005   0.650   4.031  10.539 -0.7141 -1.0043  0.5127
   23SAPC    HY 3006   0.570   4.170  10.455  0.3133  0.3977  1.4735
   23SAPC   O31 3007   0.697   4.040  10.332  0.4029 -0.4349 -0.3159
   23SAPC   C31 3008   0.790   4.136  10.334 -0.1221  0.0794  0.5705
   23SAPC   O32 3009   0.793   4.233  10.412  0.8811  0.4197  0.5618
   23SAPC   C32 3010   0.898   4.108  10.233 -0.1194 -0.8955  0.3795
   23SAPC   H2X 3011   0.962   4.032  10.282  0.4944 -0.1539  0.7394
   23SAPC   H2Y 3012   0.957   4.202  10.228  1.0476 -1.4779  2.4385
   23SAPC   C23 3013   0.494   3.631  10.119  0.4063 -0.1573 -0.3375
   23SAPC   H3R 3014   0.558   3.542  10.095  2.2754  0.9452  0.3586
   23SAPC   H3S 3015   0.557   3.718  10.089  1.2800 -0.7905 -0.3977
   23SAPC   C24 3016   0.362   3.611  10.044 -0.4598 -0.2012  0.5808
   23SAPC   H4R 3017   0.284   3.622  10.123 -1.0005 -0.9827  0.1622
   23SAPC   H4S 3018   0.344   3.508  10.006  0.2388  0.7385 -2.5809
   23SAPC   C25 3019   0.312   3.713   9.943  0.0123 -0.1821  0.0083
   23SAPC   H5R 3020   0.247   3.787   9.990 -0.1678 -0.3910  0.0897
   23SAPC   C26 3021   0.344   3.704   9.809 -0.5134 -0.2168 -0.5096
   23SAPC   H6R 3022   0.297   3.785   9.751 -3.2548 -0.0642  1.7190
   23SAPC   C27 3023   0.430   3.606   9.731 -0.0164  0.0489 -0.2288
   23SAPC   H7R 3024   0.367   3.566   9.649  1.3849 -0.5401 -1.0698
   23SAPC   H7S 3025   0.457   3.522   9.799  0.4350  1.4991  1.4556
   23SAPC   C28 3026   0.558   3.674   9.681 -0.2033 -0.6500 -0.2927
   23SAPC   H8R 3027   0.612   3.730   9.758  1.7226  0.3066 -2.2283
   23SAPC   C29 3028   0.616   3.673   9.563 -0.4067 -0.2854  0.0208
   23SAPC   H9R 3029   0.699   3.745   9.555  1.0002 -1.6761  1.4365
   23SAPC  C210 3030   0.569   3.588   9.449  0.1974  0.5314 -0.5111
   23SAPC  H10R 3031   0.556   3.482   9.480  2.0326  1.1331  2.6739
   23SAPC  H10S 3032   0.650   3.585   9.373  0.6973 -2.3146  0.0048
   23SAPC  C211 3033   0.440   3.633   9.379  0.7524  0.2720  0.1275
   23SAPC  H11R 3034   0.361   3.694   9.425  0.9430  1.5878 -1.2410
   23SAPC  C212 3035   0.412   3.585   9.255  0.2786  0.0483  0.0012
   23SAPC  H12R 3036   0.311   3.610   9.221  0.1284  0.9629  1.0394
   23SAPC  C213 3037   0.487   3.488   9.161  0.3855  0.3889  0.4874
   23SAPC  H13R 3038   0.416   3.405   9.139  1.4835 -0.2447 -0.8510
   23SAPC  H13S 3039   0.579   3.451   9.211  0.6240  2.1388  1.4228
   23SAPC  C214 3040   0.523   3.553   9.032  0.2136 -0.0392 -0.1079
   23SAPC  H14R 3041   0.496   3.658   9.018  0.8283  0.1656  0.1899
   23SAPC  C215 3042   0.582   3.487   8.928 -0.0732  0.6372  0.6177
   23SAPC  H15R 3043   0.606   3.543   8.836  1.1835 -0.6186  0.1386
   23SAPC  C216 3044   0.603   3.339   8.927 -0.6341  1.0152  0.7599
   23SAPC  H16R 3045   0.506   3.287   8.943  0.3886 -2.1206 -1.9155
   23SAPC  H16S 3046   0.664   3.306   9.014 -1.3721 -0.9098  0.6055
   23SAPC  C217 3047   0.660   3.287   8.794  0.4277  0.3855  0.3614
   23SAPC  H17R 3048   0.585   3.311   8.716  2.0594  3.3827 -0.4444
   23SAPC  H17S 3049   0.680   3.178   8.806  0.9960  0.3976 -0.3615
   23SAPC  C218 3050   0.785   3.355   8.747  0.6036  0.2605  0.2961
   23SAPC  H18R 3051   0.784   3.458   8.788  1.8111 -0.3898  2.0951
   23SAPC  H18S 3052   0.777   3.357   8.636 -2.2800  0.7782  0.4451
   23SAPC  C219 3053   0.917   3.275   8.776  0.2267  0.1969  0.6349
   23SAPC  H19R 3054   0.999   3.304   8.707  0.6653  2.3471  1.9866
   23SAPC  H19S 3055   0.890   3.167   8.777 -0.2571  0.3180  1.4283
   23SAPC  C220 3056   0.979   3.297   8.918  0.7166  0.7068  0.2187
   23SAPC  H20R 3057   0.906   3.272   8.998  1.4015  0.9780  0.9429
   23SAPC  H20S 3058   1.011   3.402   8.937  0.9054  0.5521  0.7825
   23SAPC  H20T 3059   1.063   3.227   8.939  0.9336  0.5708 -1.0750
   23SAPC   C33 3060   0.848   4.065  10.099 -0.5400 -0.8358  0.2207
   23SAPC   H3X 3061   0.759   4.120  10.060 -0.6261  1.7997  3.7187
   23SAPC   H3Y 3062   0.810   3.961  10.109 -1.9076 -0.3011  0.7641
   23SAPC   C34 3063   0.963   4.046   9.987  0.6799  0.0066 -0.0009
   23SAPC   H4X 3064   1.021   3.957  10.018 -0.7265 -0.4501  1.4314
   23SAPC   H4Y 3065   1.022   4.140   9.975 -0.3740  0.5676 -1.0050
   23SAPC   C35 3066   0.898   4.017   9.851  0.3051  0.3013 -0.0839
   23SAPC   H5X 3067   0.833   4.104   9.826  0.4900  0.6579  0.6482
   23SAPC   H5Y 3068   0.831   3.929   9.857 -0.4439  0.6835 -1.9720
   23SAPC   C36 3069   1.012   4.002   9.752  0.2454  0.1326 -0.7461
   23SAPC   H6X 3070   1.067   3.910   9.780 -3.8475 -2.2197  0.4302
   23SAPC   H6Y 3071   1.068   4.098   9.748  0.7725 -0.1300  0.0384
   23SAPC   C37 3072   0.959   3.960   9.611  0.6032 -0.4462  0.2676
   23SAPC   H7X 3073   0.882   4.037   9.586  0.3689 -0.3960  1.1097
   23SAPC   H7Y 3074   0.912   3.860   9.601  0.7743 -0.2993 -3.1545
   23SAPC   C38 3075   1.071   3.962   9.502  0.2931 -0.1385 -0.3286
   23SAPC   H8X 3076   1.139   3.879   9.531  0.9793  0.8391  0.9878
   23SAPC   H8Y 3077   1.120   4.061   9.485  0.5249 -0.5310 -2.0747
   23SAPC   C39 3078   1.016   3.924   9.365 -0.5732  0.0286  0.5459
   23SAPC   H9X 3079   0.937   3.997   9.336  0.6730  0.8861 -0.8685
   23SAPC   H9Y 3080   0.968   3.824   9.360  1.6726 -1.0794 -0.3425
   23SAPC  C310 3081   1.129   3.932   9.259  0.8779  0.5126 -0.5225
   23SAPC  H10X 3082   1.211   3.867   9.295 -0.3198  1.0386  3.6328
   23SAPC  H10Y 3083   1.173   4.034   9.251  2.4866 -0.2720 -3.1096
   23SAPC  C311 3084   1.089   3.889   9.122  0.6401  0.2731  0.0612
   23SAPC  H11X 3085   1.169   3.933   9.059  0.2589  1.5284  0.4435
   23SAPC  H11Y 3086   1.001   3.942   9.080  0.6575 -0.6390 -1.2137
   23SAPC  C312 3087   1.081   3.734   9.100 -0.1604 -0.0057 -0.0971
   23SAPC  H12X 3088   0.982   3.700   9.137 -0.8601 -1.8857 -3.2343
   23SAPC  H12Y 3089   1.165   3.695   9.161 -0.3627  1.3627  1.1052
   23SAPC  C313 3090   1.102   3.700   8.957  0.7983 -0.2041  0.1813
   23SAPC  H13X 3091   1.124   3.591   8.950 -0.0600 -0.3539 -0.3619
   23SAPC  H13Y 3092   1.187   3.757   8.915 -0.8365  1.5223 -0.9022
   23SAPC  C314 3093   0.978   3.723   8.870 -0.5620  0.1691 -0.2961
   23SAPC  H14X 3094   0.945   3.829   8.877 -2.0181 -0.3592  2.9273
   23SAPC  H14Y 3095   0.898   3.658   8.911  2.6422 -3.2219  1.1437
   23SAPC  C315 3096   1.011   3.674   8.725 -0.2966 -0.3144 -0.3664
   23SAPC  H15X 3097   0.919   3.674   8.664  1.8986  1.3772 -4.0073
   23SAPC  H15Y 3098   1.067   3.577   8.725 -0.2313 -0.2889 -1.2625
   23SAPC  C316 3099   1.102   3.778   8.653 -1.0004  0.1153 -0.2141
   23SAPC  H16X 3100   1.191   3.777   8.720 -2.4101  0.8028  1.7386
   23SAPC  H16Y 3101   1.059   3.880   8.653  0.3818  0.7159 -0.9927
   23SAPC  C317 3102   1.116   3.737   8.508 -0.0669 -0.2808  0.5377
   23SAPC  H17X 3103   1.170   3.820   8.457 -0.1757 -0.1098  0.6971
   23SAPC  H17Y 3104   1.011   3.732   8.473 -0.3083 -1.6852  1.3513
   23SAPC  C318 3105   1.184   3.606   8.474  0.6474  0.9829  0.2336
   23SAPC  H18X 3106   1.287   3.604   8.515  0.5710  0.6673  0.4076
   23SAPC  H18Y 3107   1.194   3.584   8.366  0.7420 -1.2851  0.6600
   23SAPC  H18Z 3108   1.139   3.514   8.516  2.6363  0.0656  0.4391
   24SAPC     N 3109   4.119   4.159  10.998 -0.5064 -0.0951 -0.7117
   24SAPC   C12 3110   4.124   4.008  11.009 -0.1537 -0.2414 -0.4775
   24SAPC  H12A 3111   4.027   3.960  11.021 -0.0824 -0.2110  0.3157
   24SAPC  H12B 3112   4.174   3.960  11.092 -2.7591 -0.1534  1.2835
   24SAPC   C13 3113   4.255   4.221  10.988  0.3591  0.5361 -0.0561
   24SAPC  H13A 3114   4.305   4.207  11.082  1.1167  1.4349 -0.3110
   24SAPC  H13B 3115   4.306   4.177  10.904  0.5063  0.6572 -0.0297
   24SAPC  H13C 3116   4.243   4.326  10.965  1.8271  0.8005  0.2854
   24SAPC   C14 3117   4.033   4.188  10.883  0.3319  0.5729  0.3485
   24SAPC  H14A 3118   4.036   4.294  10.862 -1.8639  0.9312  1.5431
   24SAPC  H14B 3119   4.058   4.125  10.799 -0.0431  0.3884  0.3743
   24SAPC  H14C 3120   3.929   4.178  10.910 -0.0473  1.6695 -0.6250
   24SAPC   C15 3121   4.061   4.208  11.131  0.3508 -0.3026  0.4844
   24SAPC  H15A 3122   4.020   4.308  11.122  1.7381  0.1034 -2.5395
   24SAPC  H15B 3123   3.971   4.154  11.157  1.3050 -2.3197 -0.2888
   24SAPC  H15C 3124   4.127   4.198  11.216 -0.6297  0.1756  1.3271
   24SAPC   C11 3125   4.179   3.937  10.888  0.3693  0.2659  0.7230
   24SAPC  H11A 3126   4.276   3.982  10.857 -0.4431  2.1140  0.7815
   24SAPC  H11B 3127   4.115   3.940  10.797  0.4109 -2.7433  0.4731
   24SAPC     P 3128   4.297   3.712  10.890 -0.2026  0.4319 -0.0931
   24SAPC   O13 3129   4.430   3.768  10.909  0.4739 -0.1083  0.5548
   24SAPC   O14 3130   4.266   3.580  10.949  0.1589 -0.1695 -0.4346
   24SAPC   O12 3131   4.189   3.810  10.940  0.4113  0.0943  0.2487
   24SAPC   O11 3132   4.263   3.706  10.740  0.5156  0.0437 -0.5007
   24SAPC    C1 3133   4.148   3.640  10.685  0.2181  0.0859 -0.0317
   24SAPC    HA 3134   4.150   3.529  10.690  0.0417 -0.0308 -1.8657
   24SAPC    HB 3135   4.053   3.685  10.721 -0.5227  1.1159 -3.0191
   24SAPC    C2 3136   4.135   3.665  10.531  0.1384 -0.4957 -0.1373
   24SAPC    HS 3137   4.081   3.578  10.486 -0.9732  0.3766 -0.5406
   24SAPC   O21 3138   4.267   3.668  10.480  0.6662 -0.7053  0.5770
   24SAPC   C21 3139   4.328   3.556  10.494 -0.1022 -0.3660 -0.5443
   24SAPC   O22 3140   4.283   3.452  10.524 -0.0172  0.3812 -0.6840
   24SAPC   C22 3141   4.478   3.583  10.475  0.6839 -0.0779  0.9359
   24SAPC   H2R 3142   4.486   3.675  10.414  0.2006  0.3351  1.4781
   24SAPC   H2S 3143   4.513   3.621  10.574 -0.9657 -0.0561  1.5442
   24SAPC    C3 3144   4.046   3.793  10.497  0.1450  0.1841 -0.3197
   24SAPC    HX 3145   4.099   3.887  10.526  0.0881  0.0380  0.2718
   24SAPC    HY 3146   3.955   3.777  10.559 -0.7267 -2.8840 -2.1835
   24SAPC   O31 3147   4.004   3.799  10.353  0.2447  0.4107  0.3047
   24SAPC   C31 3148   4.078   3.882  10.282  0.1199  0.1857 -0.3407
   24SAPC   O32 3149   4.171   3.947  10.323  0.2413 -0.8010  0.5043
   24SAPC   C32 3150   4.031   3.874  10.133 -0.3198 -0.2582 -0.1696
   24SAPC   H2X 3151   3.946   3.946  10.127 -0.0110  0.1181 -0.1045
   24SAPC   H2Y 3152   4.013   3.765  10.127 -0.7325 -0.1024 -2.2745
   24SAPC   C23 3153   4.564   3.475  10.403  0.5098 -0.2066  0.6584
   24SAPC   H3R 3154   4.529   3.372  10.426 -1.7081 -0.4251 -2.9208
   24SAPC   H3S 3155   4.666   3.483  10.446  1.3020 -0.2700 -1.1346
   24SAPC   C24 3156   4.571   3.497  10.256 -0.0017 -1.0632 -0.6771
   24SAPC   H4R 3157   4.661   3.441  10.222 -0.4854 -1.7928 -0.7779
   24SAPC   H4S 3158   4.601   3.602  10.239 -1.1595 -0.3040  1.6279
   24SAPC   C25 3159   4.446   3.453  10.179 -0.7347  0.0509  0.0908
   24SAPC   H5R 3160   4.357   3.416  10.232 -0.0324 -0.1637  1.1477
   24SAPC   C26 3161   4.436   3.459  10.045 -0.1193 -0.8391 -0.2767
   24SAPC   H6R 3162   4.334   3.439  10.007 -0.7895  0.0034  1.0325
   24SAPC   C27 3163   4.542   3.499   9.941 -0.1089 -0.0278  0.1150
   24SAPC   H7R 3164   4.618   3.555   9.999 -1.1215  0.0028  1.4486
   24SAPC   H7S 3165   4.499   3.578   9.876  0.8162 -0.3814 -0.9497
   24SAPC   C28 3166   4.593   3.390   9.861  0.0658 -0.3400  0.3635
   24SAPC   H8R 3167   4.649   3.317   9.920  1.3852  1.2702  1.2029
   24SAPC   C29 3168   4.589   3.372   9.727  0.1065 -0.2042 -0.0411
   24SAPC   H9R 3169   4.638   3.283   9.685 -0.6732 -0.8805  0.4412
   24SAPC  C210 3170   4.522   3.462   9.624  0.0816 -0.3804  0.5413
   24SAPC  H10R 3171   4.491   3.554   9.678  2.0971  0.5776  0.1623
   24SAPC  H10S 3172   4.424   3.419   9.595 -0.2564  0.3076  0.6358
   24SAPC  C211 3173   4.616   3.495   9.510 -1.1124  0.4088  0.5071
   24SAPC  H11R 3174   4.713   3.543   9.532 -0.9291  0.1698  0.2360
   24SAPC  C212 3175   4.601   3.488   9.374 -0.1912  0.1485  0.4252
   24SAPC  H12R 3176   4.684   3.514   9.306 -2.1092  0.0783 -2.0638
   24SAPC  C213 3177   4.475   3.439   9.314  0.5138 -0.0581 -0.4233
   24SAPC  H13R 3178   4.392   3.443   9.388 -0.5372  0.5723 -1.6076
   24SAPC  H13S 3179   4.487   3.328   9.307 -0.1346 -0.2148  0.6015
   24SAPC  C214 3180   4.442   3.504   9.181  0.0744  0.0405 -0.2055
   24SAPC  H14R 3181   4.533   3.507   9.120 -0.5718 -4.1134 -1.7224
   24SAPC  C215 3182   4.332   3.556   9.141  0.2852  0.6338  0.4430
   24SAPC  H15R 3183   4.344   3.617   9.050  3.3392  0.2016  0.4717
   24SAPC  C216 3184   4.196   3.558   9.203  0.8232  0.4019  0.5441
   24SAPC  H16R 3185   4.172   3.661   9.238  3.0974  0.4392  2.2587
   24SAPC  H16S 3186   4.185   3.486   9.287 -1.3797 -1.1519 -0.9659
   24SAPC  C217 3187   4.088   3.507   9.096  0.1569 -0.2968 -0.8500
   24SAPC  H17R 3188   3.997   3.483   9.155  0.5003 -0.5773 -0.4290
   24SAPC  H17S 3189   4.125   3.409   9.061  0.6489 -0.7160  0.7404
   24SAPC  C218 3190   4.063   3.617   8.983 -0.4584 -0.2100  0.3601
   24SAPC  H18R 3191   4.148   3.614   8.912 -0.2876  0.3124  0.5404
   24SAPC  H18S 3192   4.050   3.717   9.029  0.7510 -0.8591  2.2656
   24SAPC  C219 3193   3.937   3.597   8.897 -1.1480  1.3166  0.2878
   24SAPC  H19R 3194   3.844   3.636   8.944 -2.6754 -1.7791  0.1162
   24SAPC  H19S 3195   3.935   3.487   8.881 -1.4596  1.1606  1.3324
   24SAPC  C220 3196   3.960   3.666   8.757  0.3652  0.2101  0.7153
   24SAPC  H20R 3197   3.949   3.776   8.769 -1.4048  0.1201  0.2005
   24SAPC  H20S 3198   3.887   3.636   8.678  1.8248  1.4526 -1.1929
   24SAPC  H20T 3199   4.061   3.643   8.718  0.0609  1.3577 -0.8740
   24SAPC   C33 3200   4.140   3.911  10.038 -0.4800 -0.1757 -0.2448
   24SAPC   H3X 3201   4.193   4.003  10.071  0.9241 -0.4162 -1.6888
   24SAPC   H3Y 3202   4.110   3.942   9.935  0.9210  1.7557 -0.1342
   24SAPC   C34 3203   4.251   3.805  10.019  0.0484  0.7206 -0.3693
   24SAPC   H4X 3204   4.207   3.709   9.982  2.3118 -0.2530 -0.6945
   24SAPC   H4Y 3205   4.277   3.772  10.122  0.9438 -0.7966 -1.0431
   24SAPC   C35 3206   4.379   3.845   9.952 -0.2103 -0.0653  0.2811
   24SAPC   H5X 3207   4.457   3.780   9.995  0.7795  0.8337 -0.1113
   24SAPC   H5Y 3208   4.400   3.947   9.993 -1.7623  0.4753 -0.1807
   24SAPC   C36 3209   4.361   3.844   9.800  0.7956 -0.6641 -0.3294
   24SAPC   H6X 3210   4.277   3.908   9.765  0.0419 -0.7672  1.1913
   24SAPC   H6Y 3211   4.329   3.743   9.768 -1.6925 -0.1312  0.2285
   24SAPC   C37 3212   4.490   3.867   9.725  0.4637  0.0214  0.1124
   24SAPC   H7X 3213   4.557   3.782   9.752  1.6050  1.1079  0.8006
   24SAPC   H7Y 3214   4.529   3.966   9.755  1.3794 -0.3423  0.1420
   24SAPC   C38 3215   4.462   3.859   9.574 -0.4654 -0.2377  0.1049
   24SAPC   H8X 3216   4.415   3.760   9.554  0.0073 -1.1107  2.8185
   24SAPC   H8Y 3217   4.556   3.871   9.517 -1.1191  2.3111 -0.5375
   24SAPC   C39 3218   4.375   3.975   9.518 -0.2808  0.2670 -0.4087
   24SAPC   H9X 3219   4.420   4.074   9.540 -0.2276 -0.0186  0.8679
   24SAPC   H9Y 3220   4.276   3.975   9.570 -0.5087 -0.4468 -0.8344
   24SAPC  C310 3221   4.338   3.954   9.373  0.6099  0.2176  0.2199
   24SAPC  H10X 3222   4.232   3.923   9.364  0.2720  1.3398  0.1511
   24SAPC  H10Y 3223   4.407   3.880   9.327 -1.1579 -1.9875  0.9406
   24SAPC  C311 3224   4.353   4.093   9.300 -0.3791 -0.4076  0.5357
   24SAPC  H11X 3225   4.452   4.141   9.316 -0.2531  2.1824 -5.5708
   24SAPC  H11Y 3226   4.283   4.161   9.355  0.9942  2.6720 -1.2635
   24SAPC  C312 3227   4.337   4.083   9.148 -0.6477  0.3116 -0.0447
   24SAPC  H12X 3228   4.428   4.032   9.110 -0.5798 -0.9294  1.6444
   24SAPC  H12Y 3229   4.338   4.189   9.117  2.2405  1.0420  2.1412
   24SAPC  C313 3230   4.202   4.016   9.116  0.9249 -0.6497 -0.1414
   24SAPC  H13X 3231   4.110   4.059   9.161  0.2190 -1.6180 -0.6163
   24SAPC  H13Y 3232   4.199   3.909   9.148 -1.0928  0.3591  3.5030
   24SAPC  C314 3233   4.175   4.003   8.965  0.2285 -0.3581  0.7952
   24SAPC  H14X 3234   4.153   4.097   8.910 -1.4682 -0.0619  1.8907
   24SAPC  H14Y 3235   4.078   3.949   8.962 -0.2952  0.5399  1.1470
   24SAPC  C315 3236   4.296   3.930   8.901 -0.2536 -0.1769 -0.5379
   24SAPC  H15X 3237   4.297   3.831   8.952 -1.2416 -0.7263 -1.5356
   24SAPC  H15Y 3238   4.392   3.986   8.912 -0.3172 -0.2546  0.4388
   24SAPC  C316 3239   4.264   3.889   8.753 -0.1872 -0.5414 -0.6649
   24SAPC  H16X 3240   4.222   3.969   8.688  1.6298  0.9446 -0.1227
   24SAPC  H16Y 3241   4.174   3.828   8.773  0.6666 -1.2415  1.2976
   24SAPC  C317 3242   4.368   3.795   8.687  0.6705  0.3302  0.0494
   24SAPC  H17X 3243   4.310   3.739   8.611 -0.1669  0.8431  0.2986
   24SAPC  H17Y 3244   4.407   3.725   8.763 -0.5226 -2.1492 -1.4823
   24SAPC  C318 3245   4.498   3.852   8.621  0.0987  0.4675  0.5131
   24SAPC  H18X 3246   4.559   3.761   8.600 -0.9656  0.0460 -1.0070
   24SAPC  H18Y 3247   4.550   3.901   8.705  0.0738  1.4919 -0.0482
   24SAPC  H18Z 3248   4.486   3.918   8.532 -0.5534  2.5388  2.0772
   25SAPC     N 3249   6.536   0.824   6.063 -0.2406 -0.1888  0.5068
   25SAPC   C12 3250   6.471   0.817   5.917 -0.1459 -0.2685 -0.7555
   25SAPC  H12A 3251   6.548   0.779   5.851  1.2750 -0.2145  0.7881
   25SAPC  H12B 3252   6.440   0.914   5.883 -0.4521 -0.4306 -0.9438
   25SAPC   C13 3253   6.668   0.900   6.048 -0.1122  0.3414 -0.4229
   25SAPC  H13A 3254   6.736   0.881   6.129  1.6485 -2.9065 -2.4557
   25SAPC  H13B 3255   6.724   0.867   5.961  1.0041 -2.6374  1.3056
   25SAPC  H13C 3256   6.646   1.005   6.035  1.4399  0.7635  0.1163
   25SAPC   C14 3257   6.451   0.888   6.167 -0.3241  0.2455  0.4818
   25SAPC  H14A 3258   6.356   0.839   6.183 -1.1000  2.0689  1.9514
   25SAPC  H14B 3259   6.496   0.893   6.265 -1.0132  1.9331  0.7628
   25SAPC  H14C 3260   6.438   0.992   6.141  1.1274 -0.0425 -1.5452
   25SAPC   C15 3261   6.561   0.686   6.112  0.0098 -0.3067  0.1935
   25SAPC  H15A 3262   6.614   0.701   6.205 -0.2410  4.8152 -0.2244
   25SAPC  H15B 3263   6.469   0.634   6.134  0.2541 -0.4051  1.0364
   25SAPC  H15C 3264   6.617   0.629   6.039 -1.1596 -2.1206  0.6339
   25SAPC   C11 3265   6.335   0.736   5.903  0.3721  0.0908  0.2580
   25SAPC  H11A 3266   6.346   0.627   5.920  1.3377 -0.2864 -2.2930
   25SAPC  H11B 3267   6.318   0.738   5.793 -0.7596 -1.4007  0.3773
   25SAPC     P 3268   6.089   0.721   5.983  0.2251  0.4095  0.2801
   25SAPC   O13 3269   5.976   0.810   5.987  0.8215 -0.4551 -0.4491
   25SAPC   O14 3270   6.085   0.617   5.880 -0.5744 -0.1385  0.2755
   25SAPC   O12 3271   6.230   0.798   5.979  0.0636  0.7514 -0.3630
   25SAPC   O11 3272   6.094   0.639   6.121 -0.0669 -0.3143  0.3911
   25SAPC    C1 3273   6.145   0.700   6.240 -0.0433  0.3145  0.5545
   25SAPC    HA 3274   6.253   0.674   6.234 -0.0834  0.3454 -3.8271
   25SAPC    HB 3275   6.139   0.810   6.230  0.7053  0.1569 -3.2134
   25SAPC    C2 3276   6.091   0.643   6.373 -0.8802 -0.0507 -0.3199
   25SAPC    HS 3277   6.133   0.540   6.368  1.8104  0.9223  0.0892
   25SAPC   O21 3278   5.945   0.639   6.370 -0.0031 -0.3514 -0.3376
   25SAPC   C21 3279   5.900   0.530   6.428 -0.2375 -0.2885 -0.2956
   25SAPC   O22 3280   5.969   0.448   6.487 -0.2435  1.2670 -0.6575
   25SAPC   C22 3281   5.748   0.527   6.425  0.8070 -0.5137  0.1714
   25SAPC   H2R 3282   5.727   0.625   6.376  1.6419 -1.5271 -2.4348
   25SAPC   H2S 3283   5.718   0.439   6.364 -0.4404  1.4818 -2.3064
   25SAPC    C3 3284   6.136   0.718   6.500 -0.0250 -0.0206  0.9434
   25SAPC    HX 3285   6.089   0.819   6.495  0.6345  0.4433  2.8969
   25SAPC    HY 3286   6.246   0.735   6.501 -0.1056  0.6167  0.1213
   25SAPC   O31 3287   6.091   0.656   6.623  0.1652 -0.5538 -0.5480
   25SAPC   C31 3288   6.181   0.582   6.682  0.4569  0.1167  0.6960
   25SAPC   O32 3289   6.297   0.562   6.643 -0.8902  0.2264 -0.4870
   25SAPC   C32 3290   6.120   0.508   6.798 -0.5800 -0.1334 -0.6579
   25SAPC   H2X 3291   6.095   0.403   6.773  0.8074 -0.2504 -1.6803
   25SAPC   H2Y 3292   6.037   0.561   6.849 -0.0368  1.6277 -1.4962
   25SAPC   C23 3293   5.673   0.531   6.563  0.3411 -0.3328  0.3212
   25SAPC   H3R 3294   5.696   0.442   6.626 -1.9042 -0.0572  1.6716
   25SAPC   H3S 3295   5.562   0.533   6.553  0.4064 -1.6311 -0.9965
   25SAPC   C24 3296   5.724   0.651   6.651 -0.8246  0.2607  0.7981
   25SAPC   H4R 3297   5.724   0.748   6.597  2.1944  0.0670  0.2659
   25SAPC   H4S 3298   5.831   0.627   6.669 -0.5905 -1.1700 -1.9550
   25SAPC   C25 3299   5.642   0.661   6.772  0.5095  0.0016 -0.5354
   25SAPC   H5R 3300   5.552   0.721   6.757  0.6827  0.3241 -0.2817
   25SAPC   C26 3301   5.664   0.598   6.892 -0.2701  0.0433  0.6729
   25SAPC   H6R 3302   5.599   0.613   6.979  2.1668 -0.9724  2.7997
   25SAPC   C27 3303   5.774   0.497   6.918  0.1845  0.5106  0.0648
   25SAPC   H7R 3304   5.848   0.556   6.976  1.4289 -0.8735 -0.0629
   25SAPC   H7S 3305   5.839   0.463   6.834  1.1345  0.6528  0.7226
   25SAPC   C28 3306   5.724   0.378   7.000  0.7845 -0.8713 -0.5845
   25SAPC   H8R 3307   5.652   0.326   6.935 -1.3639  0.0920  0.8984
   25SAPC   C29 3308   5.749   0.330   7.124  0.6608 -0.0554 -0.8162
   25SAPC   H9R 3309   5.710   0.232   7.154  0.7620  0.5851  1.6665
   25SAPC  C210 3310   5.849   0.386   7.230 -0.1231 -0.8369 -0.6302
   25SAPC  H10R 3311   5.896   0.482   7.200 -2.7431  0.2679 -1.4637
   25SAPC  H10S 3312   5.938   0.318   7.235  0.1506 -0.4001  1.3253
   25SAPC  C211 3313   5.794   0.399   7.371  0.8237  0.1509  0.3244
   25SAPC  H11R 3314   5.719   0.478   7.382  0.9961  0.3627 -0.0241
   25SAPC  C212 3315   5.821   0.311   7.473 -0.0905 -0.0978  0.5022
   25SAPC  H12R 3316   5.798   0.342   7.576 -0.7976  3.2528 -0.5303
   25SAPC  C213 3317   5.913   0.193   7.451 -0.3201  0.6435 -0.2238
   25SAPC  H13R 3318   6.020   0.221   7.442  0.4585 -1.5469  1.2833
   25SAPC  H13S 3319   5.884   0.143   7.356  1.8864  1.9916 -1.6662
   25SAPC  C214 3320   5.894   0.094   7.559 -0.0106  0.2906 -0.1484
   25SAPC  H14R 3321   5.814   0.029   7.522  0.5382 -1.5334  1.6309
   25SAPC  C215 3322   5.949   0.069   7.679 -0.6417 -0.4538  0.8107
   25SAPC  H15R 3323   5.912  -0.014   7.740 -1.4490 -0.1243  0.7790
   25SAPC  C216 3324   6.059   0.151   7.740  1.0396 -0.7213 -0.0113
   25SAPC  H16R 3325   6.082   0.235   7.671 -0.2568  1.4628  2.0196
   25SAPC  H16S 3326   6.145   0.084   7.758 -0.1640 -2.0050  1.2294
   25SAPC  C217 3327   6.025   0.215   7.881 -0.4130  0.0138 -0.0994
   25SAPC  H17R 3328   6.110   0.274   7.923  1.5406 -3.1074  0.7041
   25SAPC  H17S 3329   6.020   0.130   7.953  0.6648  1.1474  1.3904
   25SAPC  C218 3330   5.894   0.294   7.893  0.6827 -0.6411  0.1172
   25SAPC  H18R 3331   5.809   0.233   7.857  1.0710  0.3365 -2.6934
   25SAPC  H18S 3332   5.904   0.381   7.824  3.5271  0.3669  1.6580
   25SAPC  C219 3333   5.879   0.359   8.032 -0.3208  0.5391  0.0668
   25SAPC  H19R 3334   5.822   0.453   8.017 -0.3654  0.4621 -0.2409
   25SAPC  H19S 3335   5.975   0.394   8.075  0.5314 -0.4676 -0.9452
   25SAPC  C220 3336   5.800   0.272   8.132  0.7525 -0.3921  0.8918
   25SAPC  H20R 3337   5.861   0.184   8.163  2.1021 -0.6501 -2.1601
   25SAPC  H20S 3338   5.704   0.245   8.083  0.7977  0.8072  0.0817
   25SAPC  H20T 3339   5.777   0.333   8.223 -0.9948  1.6128 -0.7862
   25SAPC   C33 3340   6.229   0.508   6.912  0.3728  0.6994 -0.0458
   25SAPC   H3X 3341   6.269   0.609   6.936  0.4537  0.2015  2.1700
   25SAPC   H3Y 3342   6.308   0.439   6.876 -0.2910  0.9401 -2.0762
   25SAPC   C34 3343   6.174   0.465   7.050  0.0602 -0.2675  0.6997
   25SAPC   H4X 3344   6.186   0.355   7.059  2.8631  0.0616  2.0164
   25SAPC   H4Y 3345   6.069   0.498   7.063  0.3660  1.7079 -1.2379
   25SAPC   C35 3346   6.264   0.519   7.166  0.0132  0.3443 -0.1204
   25SAPC   H5X 3347   6.258   0.630   7.165  0.1069  0.3588 -1.5951
   25SAPC   H5Y 3348   6.367   0.483   7.146  0.0328  0.1897  0.2476
   25SAPC   C36 3349   6.222   0.474   7.300  0.6705  0.9239 -0.7993
   25SAPC   H6X 3350   6.236   0.364   7.302 -2.4086  0.4392  1.6478
   25SAPC   H6Y 3351   6.112   0.482   7.310  0.4074 -2.4683  0.2766
   25SAPC   C37 3352   6.275   0.545   7.428  0.1684  0.4419 -0.9333
   25SAPC   H7X 3353   6.223   0.642   7.445  0.5233  0.4362  0.2869
   25SAPC   H7Y 3354   6.379   0.569   7.397  0.7868 -2.3621 -1.2660
   25SAPC   C38 3355   6.267   0.447   7.549 -0.2398 -0.3017  0.3770
   25SAPC   H8X 3356   6.293   0.348   7.506  1.0891  0.8356 -1.5669
   25SAPC   H8Y 3357   6.159   0.456   7.573 -0.6104  0.6375 -1.4490
   25SAPC   C39 3358   6.361   0.463   7.668  0.3815  0.3331  0.3291
   25SAPC   H9X 3359   6.335   0.563   7.709 -0.2454 -0.3465  1.6655
   25SAPC   H9Y 3360   6.465   0.464   7.629  1.0074 -2.4023  1.6981
   25SAPC  C310 3361   6.340   0.357   7.780  0.4157 -0.5066 -0.5442
   25SAPC  H10X 3362   6.315   0.262   7.728 -0.0289  0.0743 -1.4175
   25SAPC  H10Y 3363   6.252   0.393   7.837  0.2220 -1.5634 -0.1521
   25SAPC  C311 3364   6.462   0.355   7.879 -0.2417  0.2316  0.4522
   25SAPC  H11X 3365   6.503   0.458   7.883 -0.5067  0.4424 -1.3110
   25SAPC  H11Y 3366   6.537   0.293   7.825 -0.0389  0.6328  0.2721
   25SAPC  C312 3367   6.423   0.321   8.025 -0.0790 -0.3029 -0.1480
   25SAPC  H12X 3368   6.518   0.302   8.079  0.6062  2.5882 -0.1747
   25SAPC  H12Y 3369   6.370   0.223   8.026 -0.6931 -0.0275  2.7349
   25SAPC  C313 3370   6.362   0.441   8.108  0.4413 -0.9809  0.0226
   25SAPC  H13X 3371   6.336   0.405   8.210  0.9699 -3.6576 -0.7024
   25SAPC  H13Y 3372   6.267   0.470   8.058  1.8209  1.1420 -1.5281
   25SAPC  C314 3373   6.441   0.566   8.122 -0.6023 -0.6601 -0.5946
   25SAPC  H14X 3374   6.388   0.643   8.181  0.3945  1.4659 -2.3469
   25SAPC  H14Y 3375   6.462   0.605   8.021  1.1814  1.6872  0.5779
   25SAPC  C315 3376   6.580   0.550   8.197  1.3006 -0.1870 -0.2296
   25SAPC  H15X 3377   6.646   0.624   8.146  0.3348  1.5182  0.9088
   25SAPC  H15Y 3378   6.615   0.445   8.184 -2.4004 -1.8091  1.4926
   25SAPC  C316 3379   6.562   0.572   8.347  0.2452  0.9411  0.0898
   25SAPC  H16X 3380   6.470   0.518   8.377  0.3470 -1.7004 -3.7445
   25SAPC  H16Y 3381   6.547   0.681   8.365 -0.5716  0.6005  1.6287
   25SAPC  C317 3382   6.690   0.523   8.414  0.2894  0.7508  0.1092
   25SAPC  H17X 3383   6.772   0.586   8.375 -1.1861  2.0590 -1.0175
   25SAPC  H17Y 3384   6.716   0.417   8.398 -0.0630  0.6285  0.3292
   25SAPC  C318 3385   6.694   0.530   8.567 -0.2549 -0.0910 -0.3024
   25SAPC  H18X 3386   6.649   0.445   8.622  1.3747  0.2757  1.7336
   25SAPC  H18Y 3387   6.646   0.625   8.599 -2.6592 -0.7591 -1.6494
   25SAPC  H18Z 3388   6.798   0.536   8.606 -0.0923 -2.3595 -0.2852
   26SAPC     N 3389   1.375   1.227   6.106 -0.4869 -0.9920 -0.0963
   26SAPC   C12 3390   1.501   1.165   6.170 -0.0851  0.6663 -0.0318
   26SAPC  H12A 3391   1.475   1.062   6.187 -0.1394  1.0151  2.4212
   26SAPC  H12B 3392   1.517   1.210   6.268  1.7944  0.8376 -0.3891
   26SAPC   C13 3393   1.256   1.213   6.184  0.0216  0.1278 -0.5484
   26SAPC  H13A 3394   1.241   1.112   6.220  1.0662  0.2526  0.2884
   26SAPC  H13B 3395   1.267   1.283   6.265  0.4076  1.4310 -1.7004
   26SAPC  H13C 3396   1.173   1.247   6.124 -0.4992 -0.4126 -0.1532
   26SAPC   C14 3397   1.404   1.372   6.082 -0.0578 -0.4008  0.2329
   26SAPC  H14A 3398   1.355   1.408   5.993  0.1070 -1.6580 -0.3844
   26SAPC  H14B 3399   1.367   1.431   6.165  1.9460 -0.7847  1.4487
   26SAPC  H14C 3400   1.511   1.386   6.082  0.0742 -1.3661  0.3723
   26SAPC   C15 3401   1.358   1.165   5.967 -0.3087 -0.1462 -0.3703
   26SAPC  H15A 3402   1.447   1.170   5.906  0.7563 -1.8809  0.9237
   26SAPC  H15B 3403   1.355   1.058   5.981  2.1251 -0.1892  0.2973
   26SAPC  H15C 3404   1.264   1.191   5.920 -0.2123 -0.0642 -0.5171
   26SAPC   C11 3405   1.640   1.178   6.098  0.5105  0.0745  0.0542
   26SAPC  H11A 3406   1.633   1.132   5.997  1.0180 -0.0995  0.0924
   26SAPC  H11B 3407   1.702   1.102   6.151  0.0274  0.0043  0.5338
   26SAPC     P 3408   1.782   1.387   6.190 -0.2172  0.1650  0.3532
   26SAPC   O13 3409   1.922   1.349   6.159 -0.0893  0.6306 -0.2923
   26SAPC   O14 3410   1.753   1.530   6.184 -0.0528 -0.5237  0.5139
   26SAPC   O12 3411   1.682   1.316   6.089  0.1995  0.2755  0.0454
   26SAPC   O11 3412   1.726   1.333   6.330 -0.3168  0.3423  0.2079
   26SAPC    C1 3413   1.643   1.420   6.409 -0.4261  0.7000 -0.4414
   26SAPC    HA 3414   1.570   1.470   6.341 -1.8038 -1.9071 -1.0076
   26SAPC    HB 3415   1.592   1.352   6.480 -0.8593 -1.0336 -2.3208
   26SAPC    C2 3416   1.711   1.526   6.499 -0.2797 -0.2151  0.0689
   26SAPC    HS 3417   1.759   1.604   6.437 -1.2527  0.3366 -0.0111
   26SAPC   O21 3418   1.793   1.451   6.585 -0.3550 -0.4222 -0.8775
   26SAPC   C21 3419   1.919   1.460   6.563 -0.3244 -0.1246  0.3098
   26SAPC   O22 3420   1.970   1.528   6.474 -0.3218  0.3410 -0.2893
   26SAPC   C22 3421   1.990   1.366   6.659 -0.2352  0.1095  0.0004
   26SAPC   H2R 3422   2.045   1.282   6.612  0.4878  0.4376  0.2430
   26SAPC   H2S 3423   2.078   1.418   6.704  2.9089  0.0859 -5.1840
   26SAPC    C3 3424   1.618   1.614   6.584 -0.0473  0.5778 -0.5287
   26SAPC    HX 3425   1.569   1.556   6.665 -0.1650  4.0739  2.1102
   26SAPC    HY 3426   1.534   1.655   6.523 -0.3302  1.7824  0.6152
   26SAPC   O31 3427   1.692   1.720   6.649 -0.1104 -0.1525  0.7989
   26SAPC   C31 3428   1.723   1.830   6.578 -0.1493 -0.5401 -0.2809
   26SAPC   O32 3429   1.681   1.864   6.471  0.6613 -0.2976 -0.1196
   26SAPC   C32 3430   1.803   1.925   6.669 -0.3003 -0.4426  0.6197
   26SAPC   H2X 3431   1.756   1.950   6.766 -0.8729  1.1810 -0.0377
   26SAPC   H2Y 3432   1.805   2.022   6.615 -1.0291 -1.6311 -1.6749
   26SAPC   C23 3433   1.901   1.325   6.780 -0.3710 -0.1486  0.5772
   26SAPC   H3R 3434   1.813   1.266   6.748 -0.8744  0.2016  1.2904
   26SAPC   H3S 3435   1.864   1.411   6.839 -3.0946 -0.0744 -1.0535
   26SAPC   C24 3436   1.980   1.233   6.875  0.1566 -0.6680  0.5118
   26SAPC   H4R 3437   2.028   1.156   6.811  2.0407  1.0327 -0.2137
   26SAPC   H4S 3438   1.913   1.177   6.945  1.6662 -0.4230  2.2329
   26SAPC   C25 3439   2.097   1.297   6.951  0.3081  0.1789 -0.2069
   26SAPC   H5R 3440   2.182   1.325   6.888  0.0883  0.3705 -0.4230
   26SAPC   C26 3441   2.108   1.306   7.084  0.5756 -0.6217  0.6441
   26SAPC   H6R 3442   2.191   1.359   7.134 -0.1426  0.5958  0.5931
   26SAPC   C27 3443   1.999   1.257   7.186 -0.0317  0.2818  0.2016
   26SAPC   H7R 3444   1.907   1.300   7.142  0.6001  0.1995 -1.2751
   26SAPC   H7S 3445   2.019   1.307   7.283  3.3545  1.5914 -1.0185
   26SAPC   C28 3446   1.985   1.102   7.200 -0.7619  0.0436 -0.4004
   26SAPC   H8R 3447   2.021   1.046   7.112 -1.4508 -1.7954  0.4289
   26SAPC   C29 3448   1.950   1.030   7.308  0.1901 -0.1972  0.1135
   26SAPC   H9R 3449   1.927   0.929   7.272 -0.3836  0.4566 -1.4606
   26SAPC  C210 3450   1.914   1.086   7.447  0.2281 -0.2903 -0.4293
   26SAPC  H10R 3451   1.913   1.197   7.446  0.7092 -0.2767  0.0042
   26SAPC  H10S 3452   2.004   1.063   7.508  1.2645  0.3706 -1.6660
   26SAPC  C211 3453   1.787   1.016   7.497 -0.1186 -0.3949  0.4115
   26SAPC  H11R 3454   1.712   0.984   7.423 -0.9373  2.7160 -0.2275
   26SAPC  C212 3455   1.744   0.991   7.616 -0.2179  0.0662 -0.0839
   26SAPC  H12R 3456   1.648   0.940   7.630 -0.7121  0.9185 -0.2783
   26SAPC  C213 3457   1.824   1.028   7.737 -0.4089 -1.1282 -0.0388
   26SAPC  H13R 3458   1.916   1.088   7.718 -0.0285 -1.4937  0.6119
   26SAPC  H13S 3459   1.859   0.937   7.791  0.7141 -0.4808  0.3645
   26SAPC  C214 3460   1.734   1.119   7.821 -0.5176 -0.3859  0.2921
   26SAPC  H14R 3461   1.667   1.182   7.761 -1.6517 -0.8992  0.9900
   26SAPC  C215 3462   1.734   1.127   7.963  0.1744  0.3049 -0.4237
   26SAPC  H15R 3463   1.650   1.174   8.016 -0.8584 -2.0140  0.1240
   26SAPC  C216 3464   1.825   1.050   8.056  0.0794  0.1521  0.4534
   26SAPC  H16R 3465   1.884   1.122   8.116 -0.6234  0.4611  0.7818
   26SAPC  H16S 3466   1.897   0.992   7.994 -0.7975 -0.6828  0.1779
   26SAPC  C217 3467   1.750   0.957   8.149 -0.1666 -0.5270  0.5344
   26SAPC  H17R 3468   1.824   0.897   8.207 -1.3930 -1.0508  1.5893
   26SAPC  H17S 3469   1.691   0.889   8.084  0.5158 -0.8036  0.1851
   26SAPC  C218 3470   1.662   1.021   8.255 -0.0168  0.3670  0.1552
   26SAPC  H18R 3471   1.587   0.946   8.288  0.9768 -0.5535  0.3761
   26SAPC  H18S 3472   1.608   1.104   8.204  0.8474  1.1513  0.4948
   26SAPC  C219 3473   1.736   1.060   8.377  0.3048  0.0780  0.4627
   26SAPC  H19R 3474   1.836   1.013   8.367  0.3233  0.1207  0.4459
   26SAPC  H19S 3475   1.693   1.011   8.467 -1.2837 -0.0637 -0.3430
   26SAPC  C220 3476   1.743   1.205   8.402 -0.6559  0.2751 -0.4367
   26SAPC  H20R 3477   1.800   1.262   8.324  0.0756  0.2349  0.0618
   26SAPC  H20S 3478   1.794   1.227   8.498  0.7004 -0.8407 -0.8744
   26SAPC  H20T 3479   1.642   1.250   8.396 -0.3064  0.9756 -1.5934
   26SAPC   C33 3480   1.949   1.870   6.681 -0.3232  0.5041  0.3352
   26SAPC   H3X 3481   2.006   1.963   6.702  0.6449  0.0148 -0.0580
   26SAPC   H3Y 3482   2.002   1.838   6.589 -1.5974 -3.2771  0.7297
   26SAPC   C34 3483   1.966   1.779   6.801  0.3431 -0.2712  0.1030
   26SAPC   H4X 3484   1.971   1.671   6.775 -0.5244  0.2654 -2.5240
   26SAPC   H4Y 3485   1.879   1.793   6.869  1.6284  3.9428  1.1613
   26SAPC   C35 3486   2.087   1.820   6.893  0.3227  0.3278 -0.4979
   26SAPC   H5X 3487   2.085   1.931   6.899  3.8084  0.4868 -0.1363
   26SAPC   H5Y 3488   2.188   1.792   6.857  0.2416 -0.3131 -0.2361
   26SAPC   C36 3489   2.072   1.767   7.047  0.1229 -0.4044 -0.1674
   26SAPC   H6X 3490   2.171   1.795   7.091 -0.9082 -2.2866  3.8098
   26SAPC   H6Y 3491   2.073   1.656   7.058 -0.4581 -0.4201 -0.2898
   26SAPC   C37 3492   1.960   1.842   7.128  0.0412  0.5097  0.6211
   26SAPC   H7X 3493   1.868   1.781   7.119 -0.2485  1.1048 -0.7988
   26SAPC   H7Y 3494   1.933   1.931   7.067  1.6120  0.6291  0.0420
   26SAPC   C38 3495   1.991   1.880   7.264 -0.5416 -0.2690 -0.5472
   26SAPC   H8X 3496   2.081   1.945   7.265 -1.9976  1.8987 -2.5215
   26SAPC   H8Y 3497   2.024   1.788   7.318  2.6025  0.2301 -1.4355
   26SAPC   C39 3498   1.876   1.948   7.348  0.0681 -0.3445 -0.5458
   26SAPC   H9X 3499   1.798   1.871   7.365 -0.4402  0.0965 -0.8368
   26SAPC   H9Y 3500   1.821   2.022   7.286  0.5039  1.1719  0.8343
   26SAPC  C310 3501   1.931   2.008   7.478 -0.5976  0.4101  0.7431
   26SAPC  H10X 3502   1.847   2.064   7.524  0.1876  0.8237  1.7000
   26SAPC  H10Y 3503   2.016   2.078   7.463  0.4411 -1.1739 -1.1842
   26SAPC  C311 3504   1.982   1.901   7.573 -0.4594  0.7908  0.5344
   26SAPC  H11X 3505   2.078   1.864   7.531 -1.1691  1.4685 -1.8607
   26SAPC  H11Y 3506   1.913   1.816   7.554  2.1972 -1.2379 -0.7134
   26SAPC  C312 3507   2.019   1.945   7.713 -0.1023 -0.2139  0.3399
   26SAPC  H12X 3508   2.111   2.006   7.704 -1.6351  1.9412 -2.8645
   26SAPC  H12Y 3509   2.058   1.857   7.768  2.9713 -1.0651 -2.8427
   26SAPC  C313 3510   1.912   2.024   7.792 -0.2491 -0.0746  0.2771
   26SAPC  H13X 3511   1.851   2.094   7.731  1.3470  0.1512 -1.1370
   26SAPC  H13Y 3512   1.949   2.085   7.877  0.1662  0.9363 -0.6023
   26SAPC  C314 3513   1.815   1.927   7.868  0.0159  0.0341 -0.4985
   26SAPC  H14X 3514   1.775   1.856   7.792 -0.6734  0.0974 -0.2052
   26SAPC  H14Y 3515   1.738   1.997   7.907  2.0959  1.0019  2.1936
   26SAPC  C315 3516   1.871   1.852   7.989  0.4204 -0.4037 -0.1143
   26SAPC  H15X 3517   1.900   1.930   8.063  0.6772 -0.8685  0.2835
   26SAPC  H15Y 3518   1.961   1.790   7.969 -1.0535 -2.2076 -1.6407
   26SAPC  C316 3519   1.774   1.756   8.055  0.0586 -0.5950 -0.5805
   26SAPC  H16X 3520   1.824   1.667   8.101 -1.2795 -1.4094 -0.6434
   26SAPC  H16Y 3521   1.701   1.715   7.982 -0.5768  0.6745 -0.6694
   26SAPC  C317 3522   1.695   1.826   8.164 -0.0630 -0.3893  0.6135
   26SAPC  H17X 3523   1.647   1.911   8.112  2.0332  1.6528  1.8399
   26SAPC  H17Y 3524   1.756   1.873   8.244 -1.6283  3.2997 -0.1973
   26SAPC  C318 3525   1.580   1.750   8.225  0.8984 -0.4240  0.6902
   26SAPC  H18X 3526   1.513   1.811   8.289  0.7334 -1.3400  1.4012
   26SAPC  H18Y 3527   1.625   1.672   8.290  3.4453  1.1391  0.9564
   26SAPC  H18Z 3528   1.514   1.700   8.151  1.4945 -0.8929  0.4632
   27SAPC     N 3529   6.462   2.926   6.118 -0.4331  0.1522 -0.5932
   27SAPC   C12 3530   6.364   2.832   6.179  0.7617  0.6973  0.5403
   27SAPC  H12A 3531   6.370   2.730   6.144  0.0988  0.3159  1.4847
   27SAPC  H12B 3532   6.269   2.863   6.138  1.2665  0.7445 -0.6246
   27SAPC   C13 3533   6.431   2.959   5.977 -0.8051  0.5934  0.0955
   27SAPC  H13A 3534   6.461   2.870   5.923 -1.6107 -0.3779  1.2046
   27SAPC  H13B 3535   6.331   2.992   5.954 -1.2978 -0.5057  0.5816
   27SAPC  H13C 3536   6.495   3.033   5.932 -1.3754  0.9668 -0.1108
   27SAPC   C14 3537   6.453   3.052   6.196  0.2128 -0.2405  0.9629
   27SAPC  H14A 3538   6.470   3.022   6.298 -1.4118  0.1451  1.3851
   27SAPC  H14B 3539   6.528   3.126   6.173 -0.8724  0.7738  0.6123
   27SAPC  H14C 3540   6.350   3.086   6.187  0.6630  0.7573 -1.2483
   27SAPC   C15 3541   6.608   2.881   6.128  0.5112  0.5800 -0.5419
   27SAPC  H15A 3542   6.665   2.965   6.092 -1.9101  1.8459 -1.7088
   27SAPC  H15B 3543   6.635   2.847   6.227  1.2505 -1.0281 -1.2543
   27SAPC  H15C 3544   6.627   2.804   6.054 -1.6391 -0.2588 -0.2858
   27SAPC   C11 3545   6.350   2.815   6.331 -0.0885  0.1136 -0.2205
   27SAPC  H11A 3546   6.295   2.719   6.347  0.5310 -0.5898 -2.0284
   27SAPC  H11B 3547   6.305   2.903   6.383  3.6910  2.2066 -0.1428
   27SAPC     P 3548   6.523   2.858   6.523 -0.4667  0.7823 -0.2127
   27SAPC   O13 3549   6.635   2.778   6.571 -0.9222  0.0023 -0.0106
   27SAPC   O14 3550   6.554   2.996   6.498  0.7683  0.5976  0.3611
   27SAPC   O12 3551   6.475   2.785   6.393  0.1284 -0.2140  0.1916
   27SAPC   O11 3552   6.406   2.850   6.625 -0.1094 -0.2038 -0.8506
   27SAPC    C1 3553   6.351   2.723   6.671 -0.0158  0.2082  0.3388
   27SAPC    HA 3554   6.275   2.683   6.600  0.2340 -0.9808  0.7105
   27SAPC    HB 3555   6.427   2.643   6.683 -0.3577 -0.2806 -0.6565
   27SAPC    C2 3556   6.289   2.735   6.814  0.6797 -0.0206 -0.6751
   27SAPC    HS 3557   6.227   2.826   6.826  1.3687  0.3785 -0.0637
   27SAPC   O21 3558   6.396   2.736   6.913 -0.1870 -0.2275 -0.4411
   27SAPC   C21 3559   6.437   2.854   6.952  0.0465  0.4472  0.1875
   27SAPC   O22 3560   6.394   2.960   6.914 -0.6028  0.2417 -0.4083
   27SAPC   C22 3561   6.548   2.841   7.064 -0.8086  0.3659  0.2158
   27SAPC   H2R 3562   6.639   2.801   7.015 -1.3539 -0.3020 -0.2725
   27SAPC   H2S 3563   6.570   2.940   7.108 -0.4084 -0.6015  2.3014
   27SAPC    C3 3564   6.206   2.613   6.848 -0.4446 -0.0059  0.9542
   27SAPC    HX 3565   6.269   2.526   6.819  1.5198  1.8339 -0.5849
   27SAPC    HY 3566   6.128   2.619   6.770  1.7932  0.9094 -1.3539
   27SAPC   O31 3567   6.163   2.609   6.981  0.1715  0.3867 -0.1984
   27SAPC   C31 3568   6.046   2.654   7.015  0.3420  0.4395  0.1226
   27SAPC   O32 3569   5.957   2.695   6.934  0.4747 -0.2672 -0.6728
   27SAPC   C32 3570   6.027   2.640   7.167  0.2534 -0.4733 -0.4956
   27SAPC   H2X 3571   6.111   2.682   7.226 -1.0256 -0.0310  1.0603
   27SAPC   H2Y 3572   6.024   2.530   7.181 -0.7231 -0.4641 -0.5909
   27SAPC   C23 3573   6.500   2.748   7.176  1.3317 -0.1660 -0.0648
   27SAPC   H3R 3574   6.583   2.735   7.249  1.7692 -3.6016 -0.9804
   27SAPC   H3S 3575   6.471   2.651   7.132 -0.4852 -0.9884  2.6700
   27SAPC   C24 3576   6.362   2.792   7.247 -0.4376  0.4280  0.1994
   27SAPC   H4R 3577   6.358   2.718   7.329 -0.5444  0.3740  0.1462
   27SAPC   H4S 3578   6.286   2.783   7.166  1.3863 -0.3806 -1.4978
   27SAPC   C25 3579   6.359   2.939   7.283  0.0662  0.5082  0.1990
   27SAPC   H5R 3580   6.336   3.005   7.198 -2.0601  0.9056  1.0260
   27SAPC   C26 3581   6.355   2.986   7.410 -0.5200 -0.7361 -0.4510
   27SAPC   H6R 3582   6.366   3.094   7.424  1.7813 -0.6004 -2.6989
   27SAPC   C27 3583   6.367   2.906   7.533  0.0845  0.5914 -0.8126
   27SAPC   H7R 3584   6.298   2.820   7.524  0.1544  0.0846  2.3658
   27SAPC   H7S 3585   6.322   2.956   7.622 -0.7894 -2.1139  0.3679
   27SAPC   C28 3586   6.506   2.853   7.553  0.0629 -0.3689  0.6334
   27SAPC   H8R 3587   6.584   2.921   7.515 -0.8191 -0.0870 -0.7285
   27SAPC   C29 3588   6.532   2.747   7.632 -0.0971 -0.5428  0.9368
   27SAPC   H9R 3589   6.635   2.709   7.630  0.1803  0.2125 -1.0335
   27SAPC  C210 3590   6.430   2.673   7.710  0.1149  0.5089 -0.7135
   27SAPC  H10R 3591   6.384   2.740   7.786 -2.1800 -1.5631 -0.1636
   27SAPC  H10S 3592   6.478   2.600   7.779 -2.2415 -1.5960 -1.1739
   27SAPC  C211 3593   6.331   2.597   7.631  0.0995 -0.0042  0.4983
   27SAPC  H11R 3594   6.348   2.580   7.524 -1.9198 -0.1184  0.1696
   27SAPC  C212 3595   6.206   2.554   7.671 -0.0436 -0.7119  0.7711
   27SAPC  H12R 3596   6.140   2.504   7.598 -0.5519  0.8023  0.1471
   27SAPC  C213 3597   6.144   2.576   7.806 -0.0650 -0.0265 -0.1407
   27SAPC  H13R 3598   6.042   2.533   7.808 -0.2368  0.3284  2.6965
   27SAPC  H13S 3599   6.145   2.686   7.819  1.1260  0.2568 -2.2077
   27SAPC  C214 3600   6.214   2.495   7.920 -0.2185  0.0301  0.0065
   27SAPC  H14R 3601   6.212   2.386   7.903  0.1788 -0.1022  0.7552
   27SAPC  C215 3602   6.273   2.552   8.031 -0.0734 -0.5505 -0.0606
   27SAPC  H15R 3603   6.316   2.484   8.106  1.5346 -0.9604 -1.2887
   27SAPC  C216 3604   6.277   2.701   8.068 -0.3361 -0.4609 -0.5413
   27SAPC  H16R 3605   6.299   2.748   7.970  2.2198 -0.8092 -0.2134
   27SAPC  H16S 3606   6.368   2.730   8.126 -0.6256  2.1818 -1.2841
   27SAPC  C217 3607   6.150   2.757   8.130  0.2061 -1.2597 -0.4264
   27SAPC  H17R 3608   6.070   2.746   8.053 -0.1324 -0.2891 -0.2235
   27SAPC  H17S 3609   6.168   2.865   8.149  1.1546 -1.0509 -2.2942
   27SAPC  C218 3610   6.109   2.683   8.251 -0.3108  0.8033  0.5494
   27SAPC  H18R 3611   6.197   2.693   8.318 -1.0009 -2.2104  2.1007
   27SAPC  H18S 3612   6.093   2.575   8.230 -0.8034  1.2287 -1.5469
   27SAPC  C219 3613   5.977   2.742   8.314 -1.1780 -0.6771  0.5896
   27SAPC  H19R 3614   5.935   2.654   8.367  0.9613 -2.6012 -0.7320
   27SAPC  H19S 3615   5.913   2.779   8.230 -0.1048 -1.1826 -0.4780
   27SAPC  C220 3616   5.996   2.857   8.417 -0.0889 -0.1466  0.1378
   27SAPC  H20R 3617   6.031   2.948   8.363 -0.6413 -0.0575 -0.0748
   27SAPC  H20S 3618   6.079   2.821   8.482  1.2886 -0.1556 -1.5619
   27SAPC  H20T 3619   5.904   2.867   8.478 -2.6118  0.0270 -3.4037
   27SAPC   C33 3620   5.900   2.711   7.221  0.0083 -0.2811 -0.6297
   27SAPC   H3X 3621   5.804   2.676   7.178  0.4405 -1.2821 -0.8061
   27SAPC   H3Y 3622   5.905   2.821   7.209  1.2671  0.3396  3.7368
   27SAPC   C34 3623   5.917   2.678   7.377  0.8446  0.7323  0.3070
   27SAPC   H4X 3624   6.012   2.728   7.406  2.0080 -2.7663  3.1878
   27SAPC   H4Y 3625   5.915   2.571   7.405 -1.4487  0.9636  1.2859
   27SAPC   C35 3626   5.785   2.737   7.437 -0.5077 -0.2356 -0.9158
   27SAPC   H5X 3627   5.702   2.677   7.394 -1.4015  0.1893  0.1545
   27SAPC   H5Y 3628   5.773   2.842   7.402  0.9861 -0.5265 -2.4401
   27SAPC   C36 3629   5.783   2.717   7.588  0.1896  0.2927  1.0687
   27SAPC   H6X 3630   5.698   2.775   7.629  0.7148  2.2163 -0.4264
   27SAPC   H6Y 3631   5.871   2.764   7.635  0.4293  0.4989  0.4216
   27SAPC   C37 3632   5.776   2.573   7.633 -0.2250  0.7759 -0.7055
   27SAPC   H7X 3633   5.865   2.517   7.599 -1.2146 -1.0370 -0.4142
   27SAPC   H7Y 3634   5.688   2.517   7.595  0.3326 -1.1890  0.7049
   27SAPC   C38 3635   5.762   2.554   7.784  0.0037 -0.1277 -0.1891
   27SAPC   H8X 3636   5.669   2.612   7.803  0.3129  0.8001 -1.3741
   27SAPC   H8Y 3637   5.842   2.602   7.844 -1.5589  1.0878  0.9843
   27SAPC   C39 3638   5.747   2.409   7.836 -0.0412  0.5488  0.0352
   27SAPC   H9X 3639   5.843   2.361   7.809  0.5629  1.2550  0.8331
   27SAPC   H9Y 3640   5.675   2.356   7.772  0.7403 -0.8595  0.2823
   27SAPC  C310 3641   5.700   2.406   7.982  0.1849 -0.2279 -0.1154
   27SAPC  H10X 3642   5.672   2.305   8.017  0.0814  0.1927  1.0334
   27SAPC  H10Y 3643   5.605   2.463   7.984 -1.6195 -3.0813  0.9157
   27SAPC  C311 3644   5.811   2.445   8.074 -0.2720 -0.2318 -0.0941
   27SAPC  H11X 3645   5.828   2.548   8.036 -1.4171  0.1298  0.3449
   27SAPC  H11Y 3646   5.891   2.374   8.042  0.1934 -0.2789  1.1302
   27SAPC  C312 3647   5.796   2.429   8.235  0.5228  0.1080  0.0543
   27SAPC  H12X 3648   5.890   2.473   8.274  0.7606  0.4394 -0.8609
   27SAPC  H12Y 3649   5.771   2.327   8.270 -2.0154  0.2362 -1.1507
   27SAPC  C313 3650   5.695   2.524   8.297 -0.8618 -0.3474  0.0806
   27SAPC  H13X 3651   5.592   2.512   8.256 -1.0571 -1.9853  0.9892
   27SAPC  H13Y 3652   5.725   2.630   8.283 -0.0371 -0.5341  0.3621
   27SAPC  C314 3653   5.693   2.486   8.447 -0.0508 -0.0330  0.7324
   27SAPC  H14X 3654   5.797   2.459   8.477  0.6458  2.2482  0.5656
   27SAPC  H14Y 3655   5.637   2.391   8.464 -0.0570  0.0532  1.2176
   27SAPC  C315 3656   5.651   2.597   8.545  1.0804  0.4762  0.1223
   27SAPC  H15X 3657   5.554   2.637   8.508  0.1813 -1.2010  0.5442
   27SAPC  H15Y 3658   5.730   2.674   8.556  2.5049 -1.0431  0.8216
   27SAPC  C316 3659   5.610   2.545   8.687 -0.1862  0.7063  0.9484
   27SAPC  H16X 3660   5.526   2.473   8.671 -1.1529  1.9141  0.4072
   27SAPC  H16Y 3661   5.571   2.624   8.755 -0.2418  0.5725  1.0743
   27SAPC  C317 3662   5.731   2.486   8.768 -0.1336 -0.0270 -0.2326
   27SAPC  H17X 3663   5.764   2.393   8.717 -1.6855 -1.3815  1.1387
   27SAPC  H17Y 3664   5.702   2.450   8.869  1.3567 -0.7144 -0.0236
   27SAPC  C318 3665   5.856   2.577   8.781  0.5523  0.4878  0.5502
   27SAPC  H18X 3666   5.902   2.601   8.683 -0.9060  1.3421  0.0448
   27SAPC  H18Y 3667   5.928   2.524   8.847 -2.0649 -0.0907  3.1585
   27SAPC  H18Z 3668   5.835   2.670   8.836  1.4610  1.8746 -1.3393
   28SAPC     N 3669   5.157   5.119   6.403 -0.1462  0.2888  0.4469
   28SAPC   C12 3670   5.007   5.147   6.404  0.0784 -0.1039 -1.6144
   28SAPC  H12A 3671   4.961   5.098   6.488 -0.7507  2.3727 -0.5380
   28SAPC  H12B 3672   4.958   5.100   6.320 -1.4450 -0.0333 -0.8039
   28SAPC   C13 3673   5.224   5.172   6.525  0.8750 -0.0701 -0.1642
   28SAPC  H13A 3674   5.182   5.134   6.617  0.0092 -2.7552 -1.5532
   28SAPC  H13B 3675   5.327   5.142   6.538  0.5663 -0.8889  0.5312
   28SAPC  H13C 3676   5.217   5.280   6.523 -0.9414 -0.1376 -3.3503
   28SAPC   C14 3677   5.176   4.974   6.402  0.0164 -0.0257 -0.3041
   28SAPC  H14A 3678   5.147   4.936   6.304 -3.6055  2.1696 -0.2561
   28SAPC  H14B 3679   5.277   4.942   6.424  0.3455  2.0043  1.3858
   28SAPC  H14C 3680   5.118   4.925   6.478 -1.0147 -1.1579 -1.7542
   28SAPC   C15 3681   5.220   5.179   6.287  0.3036  0.4045 -0.4147
   28SAPC  H15A 3682   5.196   5.133   6.192 -0.4466  0.4780 -0.2647
   28SAPC  H15B 3683   5.181   5.278   6.274  2.0488  1.1000 -0.6453
   28SAPC  H15C 3684   5.326   5.198   6.285  0.2426  0.7440 -0.3297
   28SAPC   C11 3685   4.961   5.290   6.399  0.5879 -0.3190 -0.4259
   28SAPC  H11A 3686   5.002   5.349   6.483 -0.3255  1.6440 -1.2910
   28SAPC  H11B 3687   4.853   5.288   6.426  0.4514 -0.0638 -0.9303
   28SAPC     P 3688   4.978   5.507   6.255  0.1151 -0.2877  0.3290
   28SAPC   O13 3689   5.097   5.552   6.331 -0.1163  0.0915  0.2072
   28SAPC   O14 3690   4.980   5.549   6.114 -0.4201 -0.1770  0.5135
   28SAPC   O12 3691   4.972   5.349   6.266  0.4239  0.3273 -0.5942
   28SAPC   O11 3692   4.844   5.557   6.312  0.2076  0.0615 -0.1410
   28SAPC    C1 3693   4.830   5.597   6.453  0.9899 -0.2897 -0.3344
   28SAPC    HA 3694   4.854   5.522   6.530  4.0785  2.5462  1.7216
   28SAPC    HB 3695   4.889   5.690   6.462 -0.8654  0.8156  1.2063
   28SAPC    C2 3696   4.675   5.629   6.477 -0.3649 -0.6713  0.7197
   28SAPC    HS 3697   4.632   5.678   6.387 -0.2336  0.6364  1.3467
   28SAPC   O21 3698   4.666   5.722   6.592  0.4915  0.1065  0.3404
   28SAPC   C21 3699   4.554   5.783   6.617  0.4769 -0.2941 -0.1003
   28SAPC   O22 3700   4.452   5.771   6.549  0.0155  0.0137 -0.1002
   28SAPC   C22 3701   4.564   5.858   6.743 -0.3361  0.6457  0.1561
   28SAPC   H2R 3702   4.601   5.789   6.822  0.0506  0.5461 -0.1093
   28SAPC   H2S 3703   4.637   5.941   6.731  0.5104  0.1892  1.7627
   28SAPC    C3 3704   4.602   5.487   6.481  0.4240  0.6817 -0.0468
   28SAPC    HX 3705   4.617   5.447   6.379 -1.2483 -0.5816  0.1754
   28SAPC    HY 3706   4.494   5.505   6.495 -0.4931 -3.7120 -0.3712
   28SAPC   O31 3707   4.648   5.390   6.577  0.4872  0.3658 -0.1775
   28SAPC   C31 3708   4.598   5.270   6.579 -0.5312  0.1691  0.1978
   28SAPC   O32 3709   4.523   5.226   6.498  0.8473 -0.2224 -0.0256
   28SAPC   C32 3710   4.645   5.202   6.704  0.2988 -0.1253  0.4525
   28SAPC   H2X 3711   4.620   5.267   6.790  1.4043  0.4402  0.3672
   28SAPC   H2Y 3712   4.756   5.199   6.697  0.3650  1.5603  0.2623
   28SAPC   C23 3713   4.427   5.902   6.795  0.0477  0.6009 -0.2738
   28SAPC   H3R 3714   4.357   5.816   6.782  0.8062 -1.0663  4.6186
   28SAPC   H3S 3715   4.392   5.983   6.727  0.2434  1.3543  0.5128
   28SAPC   C24 3716   4.424   5.940   6.943 -0.1675 -0.2289 -0.5339
   28SAPC   H4R 3717   4.325   5.922   6.989  0.7094 -1.2153  1.0552
   28SAPC   H4S 3718   4.498   5.877   6.996 -1.1929 -1.9099 -1.0207
   28SAPC   C25 3719   4.458   6.088   6.966  0.3539 -0.4833 -0.2837
   28SAPC   H5R 3720   4.518   6.126   6.882 -1.1051 -1.2785 -1.7431
   28SAPC   C26 3721   4.394   6.181   7.044  0.0980 -0.0010  0.2437
   28SAPC   H6R 3722   4.438   6.281   7.051  1.7954 -0.6168 -1.0453
   28SAPC   C27 3723   4.272   6.159   7.130 -0.0449  0.8388 -0.0235
   28SAPC   H7R 3724   4.254   6.052   7.155  3.1016 -0.1563 -1.4756
   28SAPC   H7S 3725   4.192   6.189   7.059  0.3981 -0.6137 -1.1821
   28SAPC   C28 3726   4.279   6.250   7.255  0.1639  0.3568 -0.1001
   28SAPC   H8R 3727   4.360   6.233   7.328 -2.1960  2.5433  3.3557
   28SAPC   C29 3728   4.212   6.362   7.279 -0.7127 -0.2108 -0.1738
   28SAPC   H9R 3729   4.221   6.394   7.384  0.8084 -1.8922  0.2566
   28SAPC  C210 3730   4.118   6.416   7.176 -0.7601 -0.4873 -0.3573
   28SAPC  H10R 3731   4.032   6.350   7.151 -2.8976  2.6420 -1.8167
   28SAPC  H10S 3732   4.173   6.455   7.088 -0.1518 -1.3688 -0.3892
   28SAPC  C211 3733   4.053   6.544   7.233 -0.1164 -0.2915  0.2460
   28SAPC  H11R 3734   4.065   6.630   7.167  0.3225 -0.8829 -0.4630
   28SAPC  C212 3735   3.967   6.553   7.339 -0.2143  0.5235  0.3859
   28SAPC  H12R 3736   3.933   6.653   7.370 -2.7579 -1.0195  3.0539
   28SAPC  C213 3737   3.920   6.434   7.422  0.5270 -0.3850 -0.8349
   28SAPC  H13R 3738   3.928   6.328   7.390  2.7669 -1.9018  3.7832
   28SAPC  H13S 3739   3.812   6.454   7.439  0.4292 -1.1749 -0.4875
   28SAPC  C214 3740   3.992   6.442   7.554  0.0292 -0.1386  0.4443
   28SAPC  H14R 3741   4.085   6.382   7.558 -0.5857 -1.1165  0.3017
   28SAPC  C215 3742   3.955   6.495   7.671 -0.1931  0.0388 -0.2395
   28SAPC  H15R 3743   4.019   6.472   7.757 -0.8827 -1.6812 -0.1477
   28SAPC  C216 3744   3.817   6.568   7.697 -0.5681 -0.1101 -0.2837
   28SAPC  H16R 3745   3.730   6.499   7.705  0.8048 -1.6925  2.6118
   28SAPC  H16S 3746   3.795   6.653   7.629  0.9100  0.0214 -0.6364
   28SAPC  C217 3747   3.836   6.634   7.843  1.0387 -0.3514  0.0754
   28SAPC  H17R 3748   3.896   6.727   7.831 -0.6413  0.8666  0.7252
   28SAPC  H17S 3749   3.883   6.557   7.908 -1.7180 -1.4238  0.9297
   28SAPC  C218 3750   3.702   6.666   7.912  1.0088 -0.5872  0.0566
   28SAPC  H18R 3751   3.643   6.573   7.922 -0.4532 -0.1921 -3.5793
   28SAPC  H18S 3752   3.645   6.733   7.845  0.7982  0.9467  1.6919
   28SAPC  C219 3753   3.703   6.742   8.041 -0.5562  1.0451 -0.4647
   28SAPC  H19R 3754   3.771   6.826   8.015 -0.2935  0.5796 -1.3176
   28SAPC  H19S 3755   3.751   6.681   8.120 -0.1262  0.1394 -1.4191
   28SAPC  C220 3756   3.574   6.811   8.070 -0.0059 -0.0261  0.2735
   28SAPC  H20R 3757   3.545   6.875   7.984  0.4487  1.4255  1.1591
   28SAPC  H20S 3758   3.590   6.878   8.158  1.0707 -0.0283  0.0928
   28SAPC  H20T 3759   3.488   6.743   8.084 -1.1329  1.4533  0.9112
   28SAPC   C33 3760   4.591   5.058   6.716  0.1839  0.5437 -0.0480
   28SAPC   H3X 3761   4.626   4.992   6.634 -3.0379 -1.6504  0.1418
   28SAPC   H3Y 3762   4.481   5.075   6.716  0.3680  1.9653  0.8194
   28SAPC   C34 3763   4.626   4.981   6.846 -0.0804  0.4768  0.3486
   28SAPC   H4X 3764   4.736   4.995   6.845 -0.0919  0.5490  0.0569
   28SAPC   H4Y 3765   4.602   4.873   6.844  1.1072  0.2073 -1.4581
   28SAPC   C35 3766   4.571   5.041   6.972  0.5054 -0.4412  0.7135
   28SAPC   H5X 3767   4.462   5.020   6.976  0.4818 -0.2034  1.5819
   28SAPC   H5Y 3768   4.583   5.152   6.978  0.6333 -0.4344  0.3507
   28SAPC   C36 3769   4.623   4.977   7.099  0.1457 -0.3483 -0.1424
   28SAPC   H6X 3770   4.730   5.007   7.107  0.2578 -0.8653  0.4122
   28SAPC   H6Y 3771   4.620   4.867   7.084  0.0945 -0.4345  0.4655
   28SAPC   C37 3772   4.552   5.021   7.225  0.7518  0.1867  0.0300
   28SAPC   H7X 3773   4.443   5.002   7.218  0.7893 -0.2617  0.5941
   28SAPC   H7Y 3774   4.562   5.131   7.241 -0.2630 -0.0157  2.4810
   28SAPC   C38 3775   4.591   4.956   7.358 -0.0845 -0.8805 -0.2041
   28SAPC   H8X 3776   4.701   4.960   7.375 -0.0564  3.5265 -0.3370
   28SAPC   H8Y 3777   4.578   4.846   7.354  0.6830 -0.9559 -1.1164
   28SAPC   C39 3778   4.517   5.024   7.471 -0.6407 -0.1390  0.3979
   28SAPC   H9X 3779   4.413   4.987   7.465 -1.1321  1.3782 -2.4854
   28SAPC   H9Y 3780   4.508   5.133   7.456 -1.1344 -0.3388 -0.8716
   28SAPC  C310 3781   4.586   4.999   7.608 -0.1720 -0.2067  0.4891
   28SAPC  H10X 3782   4.684   5.051   7.598  0.2963 -1.1718 -0.1801
   28SAPC  H10Y 3783   4.595   4.889   7.616 -0.9951 -0.2036  1.6836
   28SAPC  C311 3784   4.495   5.053   7.716 -0.6478  0.0925 -0.5415
   28SAPC  H11X 3785   4.409   4.982   7.716 -0.8965  0.3949 -0.1806
   28SAPC  H11Y 3786   4.450   5.154   7.707  1.7106  1.1379 -1.7137
   28SAPC  C312 3787   4.567   5.044   7.846 -0.3539 -0.1123  0.4770
   28SAPC  H12X 3788   4.661   5.103   7.846 -0.2537 -0.2312  1.7417
   28SAPC  H12Y 3789   4.599   4.939   7.867 -2.3461 -1.0389 -0.8849
   28SAPC  C313 3790   4.478   5.082   7.967 -0.4584  0.3185 -0.2367
   28SAPC  H13X 3791   4.525   5.024   8.049  0.2292 -0.2628 -1.0101
   28SAPC  H13Y 3792   4.373   5.048   7.956 -0.0339 -1.8142  1.5437
   28SAPC  C314 3793   4.498   5.225   8.013 -0.3348 -0.0635 -0.4379
   28SAPC  H14X 3794   4.452   5.302   7.947  2.2166  2.4368  0.4745
   28SAPC  H14Y 3795   4.606   5.249   8.003  0.7288 -3.9390  0.3599
   28SAPC  C315 3796   4.470   5.235   8.163  0.3696  0.2956 -0.2247
   28SAPC  H15X 3797   4.534   5.318   8.202  1.6476 -1.2948  1.2171
   28SAPC  H15Y 3798   4.510   5.151   8.224  2.2926  0.8728 -0.5958
   28SAPC  C316 3799   4.323   5.263   8.202 -0.0326  0.3231 -0.7478
   28SAPC  H16X 3800   4.257   5.177   8.180 -1.8232  1.1139  1.1459
   28SAPC  H16Y 3801   4.276   5.355   8.160 -0.5853  0.5883  0.3944
   28SAPC  C317 3802   4.302   5.288   8.355  0.5897  0.1972 -0.3908
   28SAPC  H17X 3803   4.193   5.309   8.356  0.6958  0.7467 -0.4084
   28SAPC  H17Y 3804   4.355   5.382   8.379  2.0017 -0.6597  0.0067
   28SAPC  C318 3805   4.348   5.177   8.447 -0.0081  0.1635 -0.1631
   28SAPC  H18X 3806   4.340   5.208   8.554  1.3601  2.6833 -0.7195
   28SAPC  H18Y 3807   4.459   5.174   8.452 -0.0496 -1.1660  0.2571
   28SAPC  H18Z 3808   4.294   5.082   8.429  0.6186 -0.7273  2.2502
   29SAPC     N 3809   0.427   1.176   5.747  0.2564 -0.4995 -0.4280
   29SAPC   C12 3810   0.423   1.244   5.886 -0.0378 -0.2056  0.8360
   29SAPC  H12A 3811   0.322   1.281   5.898 -0.2981 -0.6778  0.1489
   29SAPC  H12B 3812   0.490   1.328   5.877 -1.0473  0.6568  1.1564
   29SAPC   C13 3813   0.303   1.087   5.728 -0.0800 -0.0572  0.1254
   29SAPC  H13A 3814   0.302   1.010   5.803  0.0748 -0.1109  0.0733
   29SAPC  H13B 3815   0.215   1.144   5.753 -0.8630 -0.4938 -1.5565
   29SAPC  H13C 3816   0.315   1.051   5.627  1.3441 -0.5731  0.4501
   29SAPC   C14 3817   0.419   1.280   5.633  0.0677  0.1592  0.9069
   29SAPC  H14A 3818   0.330   1.341   5.646  0.3424  0.8376 -0.3110
   29SAPC  H14B 3819   0.508   1.338   5.619 -0.0793  0.1263 -0.2320
   29SAPC  H14C 3820   0.393   1.222   5.545 -1.0056 -0.8309  1.8334
   29SAPC   C15 3821   0.551   1.093   5.727 -0.3059 -0.0020 -0.0397
   29SAPC  H15A 3822   0.636   1.159   5.734  0.7691 -1.2575 -0.7383
   29SAPC  H15B 3823   0.555   1.009   5.795  1.9148 -1.4243 -1.7505
   29SAPC  H15C 3824   0.555   1.050   5.627  0.5980  1.9218 -0.8874
   29SAPC   C11 3825   0.454   1.159   6.010 -0.3561 -0.1713 -0.1797
   29SAPC  H11A 3826   0.385   1.074   5.988  2.0969 -2.7354  1.4122
   29SAPC  H11B 3827   0.418   1.200   6.106 -0.2576  1.4060 -0.7906
   29SAPC     P 3828   0.718   1.182   6.018  0.1321  0.0851 -0.2381
   29SAPC   O13 3829   0.809   1.133   5.918  0.0171 -0.0066 -0.2224
   29SAPC   O14 3830   0.689   1.323   6.023  0.4023  0.5331 -0.1768
   29SAPC   O12 3831   0.584   1.104   6.012 -0.4118 -0.8229  0.0933
   29SAPC   O11 3832   0.777   1.155   6.156  0.6998 -0.1533 -0.0229
   29SAPC    C1 3833   0.706   1.090   6.257  0.5536 -0.3230 -0.2683
   29SAPC    HA 3834   0.610   1.143   6.277  0.4788  0.1130 -1.6700
   29SAPC    HB 3835   0.686   0.987   6.219 -0.6636  1.1124 -3.9531
   29SAPC    C2 3836   0.781   1.090   6.392 -0.9442  0.1269 -0.2345
   29SAPC    HS 3837   0.887   1.116   6.373 -1.6076  1.6787 -2.2269
   29SAPC   O21 3838   0.772   0.964   6.461 -0.2230  0.1920  0.5139
   29SAPC   C21 3839   0.886   0.926   6.529 -0.1881  0.4076  0.4582
   29SAPC   O22 3840   0.991   0.989   6.537 -0.1174 -0.3889 -0.1497
   29SAPC   C22 3841   0.850   0.793   6.605 -0.0547 -0.6340  0.6897
   29SAPC   H2R 3842   0.748   0.802   6.649  0.8942  0.3810  2.8500
   29SAPC   H2S 3843   0.849   0.715   6.526  0.1491 -1.2541  1.2860
   29SAPC    C3 3844   0.724   1.203   6.488  0.4723  0.1824  1.0617
   29SAPC    HX 3845   0.615   1.179   6.491  0.6606 -0.8849  0.0859
   29SAPC    HY 3846   0.737   1.303   6.442  0.2973 -0.5132 -0.5631
   29SAPC   O31 3847   0.776   1.197   6.626  0.4680 -0.0849 -0.2496
   29SAPC   C31 3848   0.888   1.275   6.635 -0.5931  0.3786  0.4439
   29SAPC   O32 3849   0.921   1.352   6.546 -0.0567 -0.1560  0.2538
   29SAPC   C32 3850   0.966   1.241   6.761  0.1433  0.6073 -0.3538
   29SAPC   H2X 3851   1.009   1.144   6.727 -1.2667 -0.0504 -0.3528
   29SAPC   H2Y 3852   0.897   1.221   6.846  0.9719 -0.6661  0.0574
   29SAPC   C23 3853   0.953   0.754   6.710 -0.3347  0.4573 -0.3065
   29SAPC   H3R 3854   1.057   0.762   6.675  0.1550  1.3267  1.2392
   29SAPC   H3S 3855   0.924   0.651   6.740  2.9301 -0.2151  0.8790
   29SAPC   C24 3856   0.954   0.840   6.842 -0.7164 -0.3499  0.2902
   29SAPC   H4R 3857   0.870   0.818   6.913 -1.0169  0.3781  0.1640
   29SAPC   H4S 3858   0.927   0.942   6.809 -0.8200 -0.5867 -0.3697
   29SAPC   C25 3859   1.090   0.850   6.911  0.0136 -0.8103  0.2669
   29SAPC   H5R 3860   1.169   0.904   6.858  0.9748  0.3974  2.7557
   29SAPC   C26 3861   1.120   0.806   7.036  0.6078  0.1973 -0.2602
   29SAPC   H6R 3862   1.223   0.819   7.072  0.3446  0.9356  0.2565
   29SAPC   C27 3863   1.017   0.753   7.123  0.7000  1.0398  0.6899
   29SAPC   H7R 3864   0.989   0.654   7.081 -0.7383  1.6424  0.1822
   29SAPC   H7S 3865   0.926   0.816   7.122 -0.4615 -0.5635 -1.0102
   29SAPC   C28 3866   1.066   0.748   7.265 -0.1483  0.0056  0.5597
   29SAPC   H8R 3867   1.007   0.819   7.325 -2.6787 -1.2430 -0.2998
   29SAPC   C29 3868   1.157   0.667   7.317  0.6428 -0.0555 -0.4843
   29SAPC   H9R 3869   1.183   0.685   7.423  2.0029 -0.3471 -0.7556
   29SAPC  C210 3870   1.240   0.558   7.252  0.0744  0.3042 -0.2613
   29SAPC  H10R 3871   1.339   0.608   7.241  0.1910  0.3907  0.9601
   29SAPC  H10S 3872   1.188   0.530   7.159 -2.3015  1.4049  0.6431
   29SAPC  C211 3873   1.243   0.443   7.349  0.6078 -0.6952 -0.1065
   29SAPC  H11R 3874   1.146   0.392   7.359  0.2071  0.4999  4.5542
   29SAPC  C212 3875   1.331   0.406   7.441  0.3236  0.3573  0.2516
   29SAPC  H12R 3876   1.292   0.324   7.502 -0.5462  0.3844 -0.2472
   29SAPC  C213 3877   1.460   0.479   7.465  0.1570 -0.2283  1.0002
   29SAPC  H13R 3878   1.444   0.558   7.542 -0.6117  1.2233 -0.5960
   29SAPC  H13S 3879   1.500   0.531   7.375  1.2974 -2.5564  0.0778
   29SAPC  C214 3880   1.561   0.376   7.497  0.2965  0.8656  0.4236
   29SAPC  H14R 3881   1.565   0.294   7.424  4.0150  0.3304  1.0194
   29SAPC  C215 3882   1.631   0.369   7.611 -0.1576  0.0344  0.4862
   29SAPC  H15R 3883   1.690   0.278   7.626  1.0074  0.6828 -0.0528
   29SAPC  C216 3884   1.623   0.476   7.712 -0.0830  0.6623  0.0379
   29SAPC  H16R 3885   1.531   0.463   7.774  1.0660 -0.4241  1.5828
   29SAPC  H16S 3886   1.634   0.583   7.684 -1.6796  0.3531 -2.0281
   29SAPC  C217 3887   1.731   0.441   7.810  0.4775 -0.3440  0.0291
   29SAPC  H17R 3888   1.829   0.431   7.759 -0.7958 -1.5427 -2.3833
   29SAPC  H17S 3889   1.713   0.343   7.860  0.3914 -1.3041 -1.7883
   29SAPC  C218 3890   1.738   0.551   7.910 -0.2950  0.1378 -0.4541
   29SAPC  H18R 3891   1.644   0.566   7.967  0.0247  3.2400 -0.5410
   29SAPC  H18S 3892   1.762   0.644   7.854 -0.2756 -0.6040 -1.7262
   29SAPC  C219 3893   1.852   0.522   8.005 -0.0684  0.0320 -0.0298
   29SAPC  H19R 3894   1.936   0.471   7.954  2.2546  1.8078  1.7797
   29SAPC  H19S 3895   1.811   0.449   8.078 -1.8754  1.2248  0.2284
   29SAPC  C220 3896   1.897   0.631   8.091 -1.4049  0.1950  0.6392
   29SAPC  H20R 3897   1.814   0.657   8.160 -1.4999 -1.2082  1.0797
   29SAPC  H20S 3898   1.943   0.716   8.034  1.5080 -1.3735  0.4669
   29SAPC  H20T 3899   1.982   0.602   8.156 -1.7886 -0.3744  0.8863
   29SAPC   C33 3900   1.063   1.346   6.802 -0.7283  0.3054 -0.3177
   29SAPC   H3X 3901   1.019   1.389   6.895  2.8759 -0.8735  2.1417
   29SAPC   H3Y 3902   1.079   1.424   6.724 -1.3553 -0.7840 -1.5800
   29SAPC   C34 3903   1.209   1.290   6.830 -0.3207  0.2082  0.1321
   29SAPC   H4X 3904   1.256   1.256   6.735  0.3479  0.8451  0.2280
   29SAPC   H4Y 3905   1.209   1.199   6.894  0.0742  0.4099  0.4133
   29SAPC   C35 3906   1.290   1.401   6.903  0.0209 -0.0878  0.3822
   29SAPC   H5X 3907   1.235   1.416   6.998 -2.7806  1.4771 -1.3269
   29SAPC   H5Y 3908   1.291   1.493   6.841  2.8681  0.2280  0.7824
   29SAPC   C36 3909   1.439   1.367   6.913 -0.0266 -0.7445  0.4402
   29SAPC   H6X 3910   1.466   1.344   6.808  1.6406  1.0096  0.4447
   29SAPC   H6Y 3911   1.451   1.272   6.970  1.5936  0.0777  1.5340
   29SAPC   C37 3912   1.528   1.485   6.956 -0.1849 -0.6809 -1.2390
   29SAPC   H7X 3913   1.489   1.577   6.909 -0.2844 -1.3992 -2.6256
   29SAPC   H7Y 3914   1.635   1.462   6.933 -0.7470 -4.3897 -0.8374
   29SAPC   C38 3915   1.534   1.516   7.110  0.7313 -0.0826  0.4666
   29SAPC   H8X 3916   1.429   1.531   7.143  0.4957 -1.5012  0.4096
   29SAPC   H8Y 3917   1.586   1.612   7.130  2.4116 -0.0920 -3.1025
   29SAPC   C39 3918   1.599   1.408   7.190 -0.0433 -0.2788 -0.3390
   29SAPC   H9X 3919   1.702   1.402   7.148  0.6621  0.0010  1.2706
   29SAPC   H9Y 3920   1.560   1.305   7.179  0.3653 -0.7195  1.9606
   29SAPC  C310 3921   1.613   1.445   7.339  0.6892 -1.0727  0.2591
   29SAPC  H10X 3922   1.708   1.501   7.349 -0.8468  1.4474  1.9522
   29SAPC  H10Y 3923   1.616   1.355   7.404 -0.9700 -0.5158  1.1602
   29SAPC  C311 3924   1.513   1.537   7.403  0.2417 -0.3727  0.3197
   29SAPC  H11X 3925   1.412   1.492   7.386  0.9977 -2.1102  0.1699
   29SAPC  H11Y 3926   1.532   1.639   7.362  2.0749 -0.0236  1.9081
   29SAPC  C312 3927   1.527   1.543   7.557  0.3955 -0.8138 -0.0819
   29SAPC  H12X 3928   1.483   1.640   7.590  1.7499 -0.3002  0.2980
   29SAPC  H12Y 3929   1.635   1.541   7.583  0.3688 -1.7687 -0.0068
   29SAPC  C313 3930   1.443   1.434   7.633 -0.5672  0.5415  0.2286
   29SAPC  H13X 3931   1.467   1.336   7.588  0.6554  1.5124 -1.3608
   29SAPC  H13Y 3932   1.334   1.456   7.629 -0.2196  2.3019 -0.8335
   29SAPC  C314 3933   1.492   1.431   7.779 -0.2114 -0.1765 -0.1862
   29SAPC  H14X 3934   1.488   1.534   7.819  1.1953 -0.2553  0.1876
   29SAPC  H14Y 3935   1.597   1.397   7.781 -0.4697 -0.9599  0.7526
   29SAPC  C315 3936   1.413   1.338   7.873 -0.1809 -0.4226  0.5806
   29SAPC  H15X 3937   1.439   1.231   7.867 -1.4389 -0.7632  0.9269
   29SAPC  H15Y 3938   1.306   1.351   7.847  0.1759  1.9732  0.0804
   29SAPC  C316 3939   1.429   1.392   8.013  0.5404 -0.1776 -0.6905
   29SAPC  H16X 3940   1.410   1.501   8.005  0.9526 -0.1311 -1.0706
   29SAPC  H16Y 3941   1.531   1.376   8.053  0.1367 -0.9098  0.1013
   29SAPC  C317 3942   1.332   1.326   8.113 -0.3579 -0.4339 -0.3557
   29SAPC  H17X 3943   1.357   1.218   8.125 -0.0833 -0.5529 -1.8361
   29SAPC  H17Y 3944   1.228   1.340   8.076 -0.8785 -3.0635 -0.1065
   29SAPC  C318 3945   1.341   1.402   8.244 -0.3401 -0.2276  0.1382
   29SAPC  H18X 3946   1.442   1.381   8.287 -0.0313 -1.8496 -1.2482
   29SAPC  H18Y 3947   1.252   1.362   8.297 -0.0092 -1.4943 -0.2022
   29SAPC  H18Z 3948   1.330   1.512   8.238  0.5513  0.0301  2.3697
   30SAPC     N 3949   1.826   3.204   5.622  0.9093  0.1276  0.4785
   30SAPC   C12 3950   1.887   3.223   5.761 -0.2073  0.6003  0.0927
   30SAPC  H12A 3951   1.910   3.327   5.779 -0.8439  0.4244  2.1254
   30SAPC  H12B 3952   1.984   3.177   5.764  0.1901  1.4410  2.5265
   30SAPC   C13 3953   1.705   3.289   5.593  0.4861 -0.4767  0.7623
   30SAPC  H13A 3954   1.629   3.263   5.666  1.9424 -0.9579  2.1791
   30SAPC  H13B 3955   1.734   3.392   5.610 -0.6513 -0.4004  2.5712
   30SAPC  H13C 3956   1.686   3.274   5.488  0.7902  0.6088  0.5351
   30SAPC   C14 3957   1.922   3.240   5.518 -0.2510  0.0801 -0.4443
   30SAPC  H14A 3958   1.947   3.344   5.531 -0.8145  0.3003 -1.0865
   30SAPC  H14B 3959   2.009   3.176   5.525  0.5697  1.1870 -0.2306
   30SAPC  H14C 3960   1.879   3.229   5.419 -0.9171 -0.0779 -0.1446
   30SAPC   C15 3961   1.795   3.058   5.600 -0.1032  0.4274 -0.1322
   30SAPC  H15A 3962   1.708   3.024   5.653  0.1147 -1.3973 -0.8544
   30SAPC  H15B 3963   1.783   3.035   5.495  2.5134 -1.6849 -0.0864
   30SAPC  H15C 3964   1.879   2.997   5.631  0.8773 -0.2705 -3.6342
   30SAPC   C11 3965   1.817   3.174   5.889  0.6215  0.4964 -0.8562
   30SAPC  H11A 3966   1.888   3.194   5.972 -0.0412 -0.4333 -0.0297
   30SAPC  H11B 3967   1.801   3.064   5.898  0.2529  0.4424 -2.0059
   30SAPC     P 3968   1.691   3.375   6.000  0.0323  0.3445 -0.3693
   30SAPC   O13 3969   1.801   3.464   5.955 -0.1283 -0.4637  0.0837
   30SAPC   O14 3970   1.552   3.425   5.997  0.7748  0.2831  0.2299
   30SAPC   O12 3971   1.694   3.247   5.906  0.0973 -0.2739  0.4610
   30SAPC   O11 3972   1.722   3.319   6.141 -0.0952  0.2470 -0.0472
   30SAPC    C1 3973   1.697   3.182   6.187 -0.1598 -0.2953 -0.4845
   30SAPC    HA 3974   1.630   3.120   6.124 -1.0479  0.4850 -0.3311
   30SAPC    HB 3975   1.797   3.133   6.190  1.1418  2.0544 -1.9926
   30SAPC    C2 3976   1.620   3.174   6.325 -0.1389  0.1391  0.0531
   30SAPC    HS 3977   1.514   3.197   6.302  0.1966  0.6535 -1.0232
   30SAPC   O21 3978   1.680   3.265   6.416 -0.2843  0.0290  0.5004
   30SAPC   C21 3979   1.596   3.335   6.487 -0.4141 -0.5564  0.4599
   30SAPC   O22 3980   1.476   3.323   6.481  0.0619 -0.2647  0.7970
   30SAPC   C22 3981   1.678   3.414   6.596 -0.7539 -0.5465  0.9278
   30SAPC   H2R 3982   1.748   3.339   6.639  0.2706  0.3352  0.8516
   30SAPC   H2S 3983   1.739   3.496   6.551 -1.1862  0.3003  1.8351
   30SAPC    C3 3984   1.645   3.026   6.377 -0.0175 -0.0086 -0.8262
   30SAPC    HX 3985   1.754   3.011   6.388 -0.0203  0.9042  0.7017
   30SAPC    HY 3986   1.613   2.950   6.302  0.9578 -0.0681 -1.1926
   30SAPC   O31 3987   1.575   3.016   6.509  0.6636 -0.0289 -0.7043
   30SAPC   C31 3988   1.443   3.001   6.509 -0.7135  0.4314  0.5012
   30SAPC   O32 3989   1.376   3.005   6.410 -0.2174 -0.1481 -0.3165
   30SAPC   C32 3990   1.394   3.009   6.659 -0.0789  0.2524 -0.2342
   30SAPC   H2X 3991   1.377   2.902   6.686 -1.5190  0.1008 -1.6215
   30SAPC   H2Y 3992   1.300   3.067   6.670 -1.9692 -3.0399  3.7675
   30SAPC   C23 3993   1.588   3.465   6.709  0.5798 -0.0672  0.0288
   30SAPC   H3R 3994   1.545   3.374   6.756 -1.5629 -0.0372 -1.6750
   30SAPC   H3S 3995   1.500   3.526   6.678 -0.5625 -0.7801  1.7273
   30SAPC   C24 3996   1.650   3.557   6.812  0.1227  0.0995 -0.2021
   30SAPC   H4R 3997   1.575   3.593   6.887  2.8528  0.2924  2.6680
   30SAPC   H4S 3998   1.674   3.651   6.758 -0.1228 -0.4557 -1.2932
   30SAPC   C25 3999   1.775   3.490   6.869 -1.2699 -0.3305  0.8958
   30SAPC   H5R 4000   1.846   3.456   6.793 -1.2947 -2.2006  1.6631
   30SAPC   C26 4001   1.803   3.450   6.995  0.0764 -0.4988  0.4232
   30SAPC   H6R 4002   1.902   3.406   7.011  0.2841 -1.3293 -2.5201
   30SAPC   C27 4003   1.713   3.469   7.119  0.0218 -0.0831  0.4018
   30SAPC   H7R 4004   1.605   3.461   7.094  0.1188 -2.8537  0.5440
   30SAPC   H7S 4005   1.720   3.571   7.162  0.6746 -0.8719  2.2971
   30SAPC   C28 4006   1.749   3.393   7.241  0.6562  0.4542 -0.5539
   30SAPC   H8R 4007   1.737   3.286   7.217  1.2272  0.6177 -1.6676
   30SAPC   C29 4008   1.776   3.428   7.367 -0.8274 -0.3562  0.1375
   30SAPC   H9R 4009   1.810   3.356   7.443  0.9366  0.3443  0.0541
   30SAPC  C210 4010   1.780   3.572   7.419 -0.0128  0.6039  0.4284
   30SAPC  H10R 4011   1.749   3.649   7.345 -1.2804  0.7290  1.0778
   30SAPC  H10S 4012   1.884   3.598   7.450 -0.0569 -1.1918  2.2559
   30SAPC  C211 4013   1.702   3.599   7.542 -0.1857 -0.4066 -0.0330
   30SAPC  H11R 4014   1.627   3.677   7.527  2.9085  2.6080 -1.1099
   30SAPC  C212 4015   1.730   3.552   7.661  0.3463  0.0827 -0.6298
   30SAPC  H12R 4016   1.658   3.577   7.741  0.4767 -0.4977 -0.3223
   30SAPC  C213 4017   1.847   3.469   7.712  0.5822 -0.3348  0.1544
   30SAPC  H13R 4018   1.940   3.529   7.718  2.6524 -3.4212  1.2299
   30SAPC  H13S 4019   1.850   3.380   7.646 -0.4414  1.3098 -2.2748
   30SAPC  C214 4020   1.825   3.417   7.848  0.2663 -0.2996 -0.4826
   30SAPC  H14R 4021   1.815   3.308   7.857  2.1568 -0.7756 -3.0764
   30SAPC  C215 4022   1.838   3.472   7.970 -0.1771  0.5986  0.9477
   30SAPC  H15R 4023   1.806   3.409   8.054 -1.3121 -0.5254 -0.2818
   30SAPC  C216 4024   1.876   3.611   8.007  0.2243 -0.8551  0.0778
   30SAPC  H16R 4025   1.802   3.686   7.973 -1.7531 -0.9970  3.5755
   30SAPC  H16S 4026   1.959   3.649   7.943  1.8159 -1.3478  1.7638
   30SAPC  C217 4027   1.916   3.640   8.152  0.2907  0.6507 -0.0053
   30SAPC  H17R 4028   1.834   3.606   8.218  2.0532  1.8329  3.0140
   30SAPC  H17S 4029   1.939   3.747   8.174  0.3684  0.6762 -0.1989
   30SAPC  C218 4030   2.045   3.573   8.186 -0.7462 -0.2124  0.4514
   30SAPC  H18R 4031   2.127   3.617   8.126  0.8432 -3.5993 -0.0971
   30SAPC  H18S 4032   2.036   3.465   8.162  0.0363 -0.2957  0.4984
   30SAPC  C219 4033   2.079   3.587   8.335  0.3485  0.5940 -0.0848
   30SAPC  H19R 4034   1.993   3.542   8.389  0.5598  0.9409  0.5485
   30SAPC  H19S 4035   2.082   3.693   8.366 -0.0616  0.5786  0.0137
   30SAPC  C220 4036   2.209   3.515   8.379 -0.5767 -0.7183  0.1300
   30SAPC  H20R 4037   2.301   3.573   8.358 -0.3723 -1.0132  0.1969
   30SAPC  H20S 4038   2.214   3.411   8.341 -0.0631 -1.0982  1.1780
   30SAPC  H20T 4039   2.208   3.515   8.490  1.3021  0.3023  0.2042
   30SAPC   C33 4040   1.506   3.057   6.750  0.2371  0.2607 -0.3020
   30SAPC   H3X 4041   1.527   3.164   6.729 -0.6424  1.0288  2.4004
   30SAPC   H3Y 4042   1.601   3.002   6.731  1.3454  2.7318 -2.6673
   30SAPC   C34 4043   1.463   3.040   6.898 -0.0498 -0.7391 -0.0688
   30SAPC   H4X 4044   1.446   2.934   6.925 -1.0126 -0.8905 -1.1794
   30SAPC   H4Y 4045   1.372   3.100   6.916  0.8594  0.8044 -0.4447
   30SAPC   C35 4046   1.570   3.076   6.992 -0.0592  0.3611 -0.0235
   30SAPC   H5X 4047   1.592   3.184   6.979 -3.6797  1.2229 -0.0009
   30SAPC   H5Y 4048   1.668   3.032   6.964  0.4175  0.1825  1.7881
   30SAPC   C36 4049   1.535   3.066   7.146 -0.6575 -0.0544  0.4909
   30SAPC   H6X 4050   1.626   3.090   7.204 -1.3325  3.0359  0.4186
   30SAPC   H6Y 4051   1.503   2.961   7.168 -1.6097  0.2302  0.5242
   30SAPC   C37 4052   1.428   3.172   7.187 -0.3288  0.0394 -0.7525
   30SAPC   H7X 4053   1.342   3.170   7.117 -0.9208  1.6493 -0.1225
   30SAPC   H7Y 4054   1.470   3.272   7.166  2.3101 -0.8477 -0.0765
   30SAPC   C38 4055   1.383   3.163   7.328 -0.1552  0.2544 -0.1380
   30SAPC   H8X 4056   1.314   3.078   7.345 -0.3369  0.7003  1.5510
   30SAPC   H8Y 4057   1.331   3.260   7.347  1.7641  1.3344 -0.1681
   30SAPC   C39 4058   1.500   3.159   7.430  0.5914  0.8708 -0.6030
   30SAPC   H9X 4059   1.574   3.240   7.412  2.2452 -0.5690 -0.5654
   30SAPC   H9Y 4060   1.560   3.066   7.421  1.8547  1.6881 -0.8785
   30SAPC  C310 4061   1.454   3.187   7.571  0.2307  0.1804 -0.8169
   30SAPC  H10X 4062   1.386   3.104   7.600  1.5244 -0.8295 -0.6127
   30SAPC  H10Y 4063   1.389   3.278   7.569  1.9457  1.4906  0.1089
   30SAPC  C311 4064   1.569   3.196   7.671 -0.0429  0.2430  0.5193
   30SAPC  H11X 4065   1.554   3.281   7.742 -1.2494 -0.4279  1.0942
   30SAPC  H11Y 4066   1.664   3.216   7.616  1.6212 -0.1223  3.1212
   30SAPC  C312 4067   1.604   3.066   7.757  0.4646 -0.2164  0.0323
   30SAPC  H12X 4068   1.711   3.058   7.784  0.3756  0.5502  0.6493
   30SAPC  H12Y 4069   1.566   2.981   7.697 -0.6219 -0.4342  0.9931
   30SAPC  C313 4070   1.524   3.058   7.897  0.4098  0.7066 -0.4531
   30SAPC  H13X 4071   1.500   2.957   7.935 -2.6472  1.5390  0.1550
   30SAPC  H13Y 4072   1.422   3.103   7.888 -1.6290 -3.5189 -0.8624
   30SAPC  C314 4073   1.598   3.149   8.003 -0.0029 -0.4506  0.3035
   30SAPC  H14X 4074   1.617   3.243   7.946 -0.2506 -0.4136  0.2798
   30SAPC  H14Y 4075   1.697   3.103   8.020 -0.4485 -1.7256 -0.4029
   30SAPC  C315 4076   1.526   3.183   8.131 -0.7921  0.0980  0.4439
   30SAPC  H15X 4077   1.441   3.254   8.121  1.0565  2.2852 -0.7012
   30SAPC  H15Y 4078   1.594   3.238   8.199 -0.9223  1.3395 -0.4050
   30SAPC  C316 4079   1.499   3.055   8.206 -0.1803  0.5680  0.2739
   30SAPC  H16X 4080   1.593   2.996   8.204  0.3798  1.3567  1.8201
   30SAPC  H16Y 4081   1.411   3.007   8.157  0.4388  2.2654 -2.7818
   30SAPC  C317 4082   1.487   3.066   8.358  0.4294  0.6431  0.1360
   30SAPC  H17X 4083   1.557   3.144   8.396 -0.9985  1.6253  0.8220
   30SAPC  H17Y 4084   1.522   2.971   8.403  0.2585 -0.1925 -1.4399
   30SAPC  C318 4085   1.337   3.100   8.399  0.6409  0.5448 -0.5911
   30SAPC  H18X 4086   1.330   3.107   8.510  1.0492 -2.4363 -0.3009
   30SAPC  H18Y 4087   1.273   3.012   8.380  2.3045 -1.4130  2.1233
   30SAPC  H18Z 4088   1.306   3.201   8.364  1.3202  0.4691 -1.4403
   31SAPC     N 4089   6.267   4.743   6.118 -0.2357  0.0135  0.0118
   31SAPC   C12 4090   6.310   4.716   6.265  0.2140 -0.2190 -0.9244
   31SAPC  H12A 4091   6.277   4.798   6.327 -0.0144 -2.0091  1.4603
   31SAPC  H12B 4092   6.417   4.717   6.277  0.3256  1.8737 -1.6209
   31SAPC   C13 4093   6.292   4.621   6.039 -0.0040 -0.0371  0.2050
   31SAPC  H13A 4094   6.398   4.611   6.020  0.2756  2.3121  0.2513
   31SAPC  H13B 4095   6.263   4.530   6.091  2.0093 -1.2282 -0.6651
   31SAPC  H13C 4096   6.236   4.626   5.947  0.6571  0.5514 -0.1737
   31SAPC   C14 4097   6.125   4.774   6.091 -0.0533  0.5261 -0.0505
   31SAPC  H14A 4098   6.108   4.787   5.985  1.5048 -0.6579 -0.4911
   31SAPC  H14B 4099   6.064   4.691   6.123 -1.2942  0.4066 -2.4222
   31SAPC  H14C 4100   6.082   4.857   6.144  0.7381  2.2254 -1.9241
   31SAPC   C15 4101   6.358   4.844   6.059  0.3014 -0.4758  0.4465
   31SAPC  H15A 4102   6.346   4.941   6.105  1.7579  0.7677 -1.6268
   31SAPC  H15B 4103   6.464   4.822   6.064  0.5046  0.2364 -0.4807
   31SAPC  H15C 4104   6.330   4.853   5.955  0.5298  1.0482  0.4864
   31SAPC   C11 4105   6.257   4.586   6.332 -0.2957 -0.7005 -0.1588
   31SAPC  H11A 4106   6.280   4.599   6.440  2.7132 -0.4381 -0.7216
   31SAPC  H11B 4107   6.317   4.495   6.308  0.8740 -0.0138  0.0781
   31SAPC     P 4108   6.046   4.427   6.317  0.2444  0.0242 -0.0848
   31SAPC   O13 4109   5.904   4.462   6.286  0.3511  0.4181 -0.2397
   31SAPC   O14 4110   6.120   4.339   6.228 -0.8984  0.3307  0.4702
   31SAPC   O12 4111   6.115   4.571   6.315  0.3465 -0.0344  0.1471
   31SAPC   O11 4112   6.054   4.387   6.471  0.2720 -0.3388 -0.7819
   31SAPC    C1 4113   6.170   4.315   6.525  0.1334  0.0295 -0.0451
   31SAPC    HA 4114   6.175   4.212   6.484 -1.1442  0.0396 -0.2629
   31SAPC    HB 4115   6.263   4.364   6.490  1.6954 -4.0692 -2.2688
   31SAPC    C2 4116   6.154   4.306   6.685 -0.1506 -0.3465  0.4350
   31SAPC    HS 4117   6.248   4.300   6.744 -1.9427 -0.0532  3.4768
   31SAPC   O21 4118   6.060   4.201   6.715 -0.5890  0.4277  0.2959
   31SAPC   C21 4119   6.084   4.125   6.826 -0.5708 -0.1947  0.0979
   31SAPC   O22 4120   6.184   4.133   6.891  0.1808  0.3020  0.1198
   31SAPC   C22 4121   5.960   4.039   6.851  0.6240  0.2584  0.1718
   31SAPC   H2R 4122   5.874   4.101   6.819  0.3131  0.2921  1.0394
   31SAPC   H2S 4123   5.955   3.954   6.780 -1.3815  0.7216 -0.2859
   31SAPC    C3 4124   6.095   4.442   6.725 -0.1444 -0.2604 -0.3047
   31SAPC    HX 4125   5.986   4.444   6.707 -0.0054  1.3518 -1.1357
   31SAPC    HY 4126   6.141   4.518   6.659 -0.3468  0.4973  0.4118
   31SAPC   O31 4127   6.150   4.482   6.850 -0.3135  0.3711 -0.1387
   31SAPC   C31 4128   6.091   4.428   6.957 -0.7838 -0.2428  0.5086
   31SAPC   O32 4129   5.994   4.358   6.955  0.4266  0.1027 -0.4631
   31SAPC   C32 4130   6.169   4.471   7.083  0.3421  0.2322  0.0201
   31SAPC   H2X 4131   6.122   4.569   7.108  0.0865  0.1414 -0.1032
   31SAPC   H2Y 4132   6.273   4.470   7.045 -0.4022  1.1493 -2.2224
   31SAPC   C23 4133   5.942   3.986   6.995 -0.1860  0.4732  0.0488
   31SAPC   H3R 4134   5.954   4.070   7.068  0.8589 -0.7120  1.2901
   31SAPC   H3S 4135   6.010   3.899   7.003  3.0512  2.8512  0.1484
   31SAPC   C24 4136   5.801   3.926   7.008 -0.1779 -0.2746  0.1816
   31SAPC   H4R 4137   5.796   3.866   7.101 -1.4480  0.5540  0.6688
   31SAPC   H4S 4138   5.781   3.853   6.927  0.6143  1.0699 -1.2822
   31SAPC   C25 4139   5.681   4.015   7.013 -0.1757  0.6364  0.4990
   31SAPC   H5R 4140   5.613   4.000   6.928 -1.5740 -1.7350  1.9061
   31SAPC   C26 4141   5.642   4.094   7.113  0.1090 -0.8987  0.3664
   31SAPC   H6R 4142   5.542   4.138   7.101  1.2477  1.8416 -0.0482
   31SAPC   C27 4143   5.713   4.121   7.248  0.4079 -0.3082 -0.2383
   31SAPC   H7R 4144   5.787   4.045   7.281  1.8410  1.4008  0.6513
   31SAPC   H7S 4145   5.635   4.102   7.325 -0.6265  1.0367 -0.9350
   31SAPC   C28 4146   5.784   4.252   7.249 -0.3692  0.0263 -0.3147
   31SAPC   H8R 4147   5.828   4.282   7.153  2.0673 -1.4195  0.2498
   31SAPC   C29 4148   5.791   4.337   7.358  1.0563  0.6158 -0.1483
   31SAPC   H9R 4149   5.841   4.434   7.345  0.6356  0.5418 -3.0680
   31SAPC  C210 4150   5.725   4.320   7.493 -1.0577  0.5305 -0.6398
   31SAPC  H10R 4151   5.649   4.239   7.493 -0.0763 -0.4548  0.9922
   31SAPC  H10S 4152   5.673   4.415   7.519 -3.6508 -0.5767 -1.4120
   31SAPC  C211 4153   5.830   4.294   7.604 -0.0662  0.1055 -0.1543
   31SAPC  H11R 4154   5.928   4.254   7.574  0.1368 -0.6076  1.3606
   31SAPC  C212 4155   5.831   4.337   7.733  0.1765  0.5866 -0.0589
   31SAPC  H12R 4156   5.908   4.310   7.806  1.8416  0.0089 -1.9394
   31SAPC  C213 4157   5.714   4.413   7.797 -0.7215  0.5873  0.2522
   31SAPC  H13R 4158   5.701   4.375   7.900 -0.0905 -0.0430  0.1097
   31SAPC  H13S 4159   5.620   4.398   7.740  1.0086 -1.2426 -2.3387
   31SAPC  C214 4160   5.752   4.553   7.786 -0.2284 -0.1427 -0.0150
   31SAPC  H14R 4161   5.805   4.593   7.699 -1.2212  3.3868  0.8462
   31SAPC  C215 4162   5.748   4.652   7.884 -0.3252 -0.0093 -0.8107
   31SAPC  H15R 4163   5.779   4.755   7.859  3.2058 -0.3205  1.6386
   31SAPC  C216 4164   5.705   4.629   8.023 -0.4600  0.2553 -0.7233
   31SAPC  H16R 4165   5.771   4.566   8.087 -1.6739  2.3299  2.8194
   31SAPC  H16S 4166   5.607   4.578   8.026 -1.6344  2.3708 -1.1248
   31SAPC  C217 4167   5.687   4.758   8.091 -0.2348 -0.0324 -0.2054
   31SAPC  H17R 4168   5.592   4.805   8.057  0.0580 -0.4843 -1.7463
   31SAPC  H17S 4169   5.774   4.825   8.074  0.8553 -1.3195  0.1965
   31SAPC  C218 4170   5.658   4.738   8.239  0.0298 -0.1753 -0.0535
   31SAPC  H18R 4171   5.747   4.690   8.287  0.4463  0.2210 -0.4291
   31SAPC  H18S 4172   5.569   4.671   8.246 -0.5254  0.4484 -1.0010
   31SAPC  C219 4173   5.617   4.869   8.319  0.8323  0.3438 -0.0289
   31SAPC  H19R 4174   5.524   4.906   8.270  1.9043  1.5924 -1.2208
   31SAPC  H19S 4175   5.698   4.943   8.302  2.3880 -1.2442  0.2969
   31SAPC  C220 4176   5.601   4.845   8.460 -0.3699  0.0773 -0.0286
   31SAPC  H20R 4177   5.514   4.781   8.484 -0.5365  0.7283  1.2031
   31SAPC  H20S 4178   5.580   4.944   8.505  0.4255  0.0751  0.3676
   31SAPC  H20T 4179   5.689   4.794   8.504  0.0102 -0.2706 -1.1458
   31SAPC   C33 4180   6.153   4.372   7.197 -0.3324  0.5598 -0.3275
   31SAPC   H3X 4181   6.178   4.268   7.169  0.0123  0.1628  1.3438
   31SAPC   H3Y 4182   6.044   4.372   7.220 -0.1378 -0.3168  0.6612
   31SAPC   C34 4183   6.228   4.414   7.321 -0.2412 -0.6263 -0.0637
   31SAPC   H4X 4184   6.186   4.514   7.348  2.1150  0.9079 -1.6563
   31SAPC   H4Y 4185   6.330   4.454   7.302 -0.5257  0.4352  0.5331
   31SAPC   C35 4186   6.211   4.307   7.430  0.0757 -0.5911 -0.5599
   31SAPC   H5X 4187   6.271   4.217   7.404 -2.4016 -2.2510 -0.8288
   31SAPC   H5Y 4188   6.108   4.269   7.447  0.1938 -1.2475 -1.2632
   31SAPC   C36 4189   6.267   4.371   7.560  0.0871  0.5393  0.1383
   31SAPC   H6X 4190   6.229   4.475   7.568 -0.6222  0.1786  2.1527
   31SAPC   H6Y 4191   6.377   4.382   7.553  0.2996  0.5836  2.6218
   31SAPC   C37 4192   6.232   4.273   7.673  0.3402  0.1228  0.1672
   31SAPC   H7X 4193   6.275   4.174   7.649  1.7119  0.8429 -0.4964
   31SAPC   H7Y 4194   6.122   4.261   7.668  0.5469 -2.6623  1.0249
   31SAPC   C38 4195   6.276   4.324   7.811 -0.1464 -0.0642  0.7521
   31SAPC   H8X 4196   6.199   4.290   7.883  0.2833  0.0508  1.2688
   31SAPC   H8Y 4197   6.260   4.434   7.814 -2.6487 -0.2246 -2.1611
   31SAPC   C39 4198   6.421   4.288   7.856  0.0344 -0.4027 -1.0681
   31SAPC   H9X 4199   6.494   4.328   7.782  2.0384  0.3495  1.2058
   31SAPC   H9Y 4200   6.426   4.178   7.870 -1.0771 -0.3160  0.2571
   31SAPC  C310 4201   6.454   4.360   7.988 -0.7956 -0.3643 -0.1058
   31SAPC  H10X 4202   6.549   4.321   8.028 -0.1600  0.3038 -0.9282
   31SAPC  H10Y 4203   6.380   4.332   8.066  0.4208 -2.2141  0.4400
   31SAPC  C311 4204   6.482   4.514   7.976  0.1991  0.2286 -0.4994
   31SAPC  H11X 4205   6.393   4.575   7.950  0.7519  1.1659 -0.2418
   31SAPC  H11Y 4206   6.555   4.528   7.894  3.1737 -1.4819  1.6752
   31SAPC  C312 4207   6.528   4.565   8.109 -0.2070  0.0411 -0.5332
   31SAPC  H12X 4208   6.611   4.500   8.142 -0.7462 -0.0303  0.7383
   31SAPC  H12Y 4209   6.451   4.565   8.189 -1.1660  1.5149 -1.3992
   31SAPC  C313 4210   6.568   4.714   8.104 -0.2568  0.6877 -0.1466
   31SAPC  H13X 4211   6.477   4.775   8.082 -0.8434 -0.2702 -0.4357
   31SAPC  H13Y 4212   6.645   4.724   8.024  2.6269 -2.2136  2.0198
   31SAPC  C314 4213   6.637   4.764   8.234  0.0184 -0.4965  1.1942
   31SAPC  H14X 4214   6.740   4.725   8.243  0.3073 -0.0536  0.0307
   31SAPC  H14Y 4215   6.578   4.720   8.317 -1.2485  0.3142  0.7538
   31SAPC  C315 4216   6.646   4.924   8.228 -0.3909  0.5775  0.2663
   31SAPC  H15X 4217   6.555   4.972   8.271 -0.7690  0.2289 -0.1278
   31SAPC  H15Y 4218   6.651   4.952   8.121 -2.1894 -1.7223 -0.5124
   31SAPC  C316 4219   6.768   4.986   8.301  0.8241 -0.2958  0.2321
   31SAPC  H16X 4220   6.863   4.975   8.245  1.1108  1.3498  0.3437
   31SAPC  H16Y 4221   6.784   4.936   8.399  1.2588 -0.4850  0.0650
   31SAPC  C317 4222   6.759   5.137   8.331  0.0074 -0.0294  0.4515
   31SAPC  H17X 4223   6.658   5.167   8.366  0.8689 -1.4114  4.7801
   31SAPC  H17Y 4224   6.783   5.195   8.239 -1.3821 -0.0219  0.0801
   31SAPC  C318 4225   6.853   5.182   8.446 -0.2242  1.0402  0.1318
   31SAPC  H18X 4226   6.834   5.132   8.544 -1.7777 -1.2036 -1.2416
   31SAPC  H18Y 4227   6.832   5.291   8.456 -0.5880  0.9294  0.6197
   31SAPC  H18Z 4228   6.958   5.166   8.412 -0.0709 -0.5730  1.2765
   32SAPC     N 4229   2.504   2.388   5.878 -0.1046  0.6265 -0.5529
   32SAPC   C12 4230   2.509   2.528   5.820 -0.5155 -0.2966 -0.4575
   32SAPC  H12A 4231   2.411   2.572   5.824 -0.8386 -0.9951 -0.4823
   32SAPC  H12B 4232   2.535   2.528   5.715  0.5707  0.3409 -0.1996
   32SAPC   C13 4233   2.438   2.382   6.012  0.8051  0.9269 -0.0714
   32SAPC  H13A 4234   2.339   2.425   6.016  0.3260 -0.1763  2.5280
   32SAPC  H13B 4235   2.433   2.283   6.057 -1.6228  1.3324  0.7009
   32SAPC  H13C 4236   2.492   2.438   6.086  1.2598  1.0506 -0.4984
   32SAPC   C14 4237   2.438   2.297   5.777  0.1169 -0.4134 -1.2478
   32SAPC  H14A 4238   2.446   2.196   5.814  0.1352 -0.8024 -2.2811
   32SAPC  H14B 4239   2.336   2.329   5.761 -0.4033 -2.3889 -2.1694
   32SAPC  H14C 4240   2.482   2.294   5.679  0.4544 -0.6780 -1.0894
   32SAPC   C15 4241   2.642   2.333   5.889 -0.2088 -0.1834 -0.3437
   32SAPC  H15A 4242   2.707   2.389   5.955  0.3502 -0.6376 -0.4937
   32SAPC  H15B 4243   2.639   2.230   5.919 -0.1880  0.1795  0.9514
   32SAPC  H15C 4244   2.690   2.335   5.792 -1.0120  0.7934 -0.7396
   32SAPC   C11 4245   2.614   2.632   5.887 -0.2349 -0.1444 -0.3768
   32SAPC  H11A 4246   2.614   2.714   5.813 -1.9721 -0.6595 -1.0124
   32SAPC  H11B 4247   2.708   2.572   5.888 -0.1305  0.0305  0.9214
   32SAPC     P 4248   2.454   2.738   6.070 -0.2105 -0.3351  0.2381
   32SAPC   O13 4249   2.382   2.792   5.955 -0.2540  0.0005  0.3274
   32SAPC   O14 4250   2.391   2.640   6.158  0.5024  0.5643  0.1663
   32SAPC   O12 4251   2.586   2.673   6.021 -0.1931  0.2345 -0.3388
   32SAPC   O11 4252   2.500   2.856   6.154 -0.5155  0.2666 -0.5821
   32SAPC    C1 4253   2.632   2.908   6.160  0.1996 -0.5358 -0.0017
   32SAPC    HA 4254   2.697   2.844   6.223 -1.2707  0.1581  2.3082
   32SAPC    HB 4255   2.676   2.908   6.057  1.1864 -1.1160  0.4048
   32SAPC    C2 4256   2.647   3.045   6.228 -0.7022 -0.0720 -0.0622
   32SAPC    HS 4257   2.753   3.072   6.250 -0.9083  1.4120 -0.7704
   32SAPC   O21 4258   2.564   3.057   6.356 -0.3916  0.5698  0.2847
   32SAPC   C21 4259   2.614   2.988   6.455  0.3144  0.3844 -0.1746
   32SAPC   O22 4260   2.725   2.935   6.453  0.6357 -0.1090 -0.0586
   32SAPC   C22 4261   2.504   2.984   6.562  0.5198  0.2405  0.5981
   32SAPC   H2R 4262   2.431   3.060   6.528  0.8306 -0.9465 -3.1560
   32SAPC   H2S 4263   2.460   2.883   6.552  1.0138  0.2367 -2.2252
   32SAPC    C3 4264   2.600   3.176   6.139 -0.3546 -0.1170  0.0726
   32SAPC    HX 4265   2.497   3.152   6.105 -0.4704  0.2906  0.1292
   32SAPC    HY 4266   2.659   3.187   6.045 -2.6535  0.0955 -1.4315
   32SAPC   O31 4267   2.604   3.300   6.210 -0.0630 -0.1683 -0.3433
   32SAPC   C31 4268   2.715   3.379   6.195  0.0271  0.4196  0.0172
   32SAPC   O32 4269   2.816   3.350   6.130  0.2546  0.3062 -0.5144
   32SAPC   C32 4270   2.703   3.517   6.269  0.4292 -0.3035  0.4085
   32SAPC   H2X 4271   2.595   3.534   6.248  0.7563  1.2415 -0.1302
   32SAPC   H2Y 4272   2.756   3.596   6.212  0.4869 -0.4875  0.2065
   32SAPC   C23 4273   2.547   3.002   6.711 -0.4595 -0.2391 -0.3550
   32SAPC   H3R 4274   2.616   3.088   6.711 -1.0954  0.3256 -2.0804
   32SAPC   H3S 4275   2.615   2.920   6.743  0.4627  0.5020 -0.4008
   32SAPC   C24 4276   2.433   3.032   6.813 -0.2225 -0.2459 -0.4553
   32SAPC   H4R 4277   2.341   3.070   6.764 -1.1239 -2.0302 -0.2133
   32SAPC   H4S 4278   2.473   3.108   6.883  3.8482 -0.7651 -1.9402
   32SAPC   C25 4279   2.407   2.902   6.886 -0.5025 -0.3695 -0.5272
   32SAPC   H5R 4280   2.408   2.810   6.826 -1.8086 -1.6811  1.3361
   32SAPC   C26 4281   2.380   2.898   7.019  0.1765  0.2696  0.1646
   32SAPC   H6R 4282   2.365   2.797   7.060  0.0550 -1.3322 -3.4846
   32SAPC   C27 4283   2.379   3.017   7.109 -0.4468  0.1710  0.2953
   32SAPC   H7R 4284   2.302   2.993   7.185 -0.5070 -1.8905 -0.3631
   32SAPC   H7S 4285   2.344   3.106   7.052 -0.8783 -0.0772  0.1751
   32SAPC   C28 4286   2.522   3.038   7.161  0.3744 -0.1003 -0.6275
   32SAPC   H8R 4287   2.586   3.111   7.109  1.3333 -0.4320  0.0719
   32SAPC   C29 4288   2.566   2.982   7.279 -0.1306  0.0006  0.5528
   32SAPC   H9R 4289   2.664   3.008   7.321  1.2691 -2.2640 -1.0538
   32SAPC  C210 4290   2.491   2.890   7.367  0.0541  0.0818  0.1420
   32SAPC  H10R 4291   2.564   2.818   7.410  2.5132  3.4444  2.0719
   32SAPC  H10S 4292   2.409   2.836   7.316 -2.0986  3.1039  0.1258
   32SAPC  C211 4293   2.415   2.967   7.471 -0.2521  0.1694 -0.6324
   32SAPC  H11R 4294   2.317   2.995   7.431  0.2874 -0.7447 -2.7688
   32SAPC  C212 4295   2.449   3.001   7.594  0.3667  0.5885 -0.0979
   32SAPC  H12R 4296   2.382   3.056   7.662  1.2881  0.7821  0.6763
   32SAPC  C213 4297   2.579   2.971   7.659 -0.4091  0.1944 -0.5624
   32SAPC  H13R 4298   2.606   3.061   7.719  0.8033 -0.8644  0.5430
   32SAPC  H13S 4299   2.661   2.953   7.586  2.7126 -0.4158  2.8133
   32SAPC  C214 4300   2.569   2.850   7.752 -0.9852  0.2678  1.1267
   32SAPC  H14R 4301   2.522   2.762   7.705 -0.5057  0.9095 -0.5930
   32SAPC  C215 4302   2.622   2.845   7.877  0.9146  0.2693  0.4661
   32SAPC  H15R 4303   2.615   2.748   7.928 -1.0513 -0.7794 -1.6127
   32SAPC  C216 4304   2.684   2.959   7.955 -0.1745  0.9662 -0.3674
   32SAPC  H16R 4305   2.607   3.035   7.981 -2.2742 -0.7763 -1.2572
   32SAPC  H16S 4306   2.771   2.996   7.896 -0.1685 -0.2195 -1.1260
   32SAPC  C217 4307   2.730   2.912   8.102 -0.2616 -0.2837  0.4813
   32SAPC  H17R 4308   2.774   3.006   8.142 -0.7535  0.3769 -0.5041
   32SAPC  H17S 4309   2.809   2.834   8.103 -1.2460 -1.3145  1.4027
   32SAPC  C218 4310   2.613   2.885   8.192  0.0020 -0.4460 -0.1942
   32SAPC  H18R 4311   2.582   2.780   8.176 -0.2100 -1.1746  3.7957
   32SAPC  H18S 4312   2.529   2.950   8.160  0.0114  0.3294  1.2787
   32SAPC  C219 4313   2.653   2.901   8.341 -0.0136 -0.4273  0.5259
   32SAPC  H19R 4314   2.670   3.005   8.374 -1.4509 -0.3475  1.0873
   32SAPC  H19S 4315   2.748   2.843   8.344  1.1089  1.3461  0.8964
   32SAPC  C220 4316   2.554   2.826   8.427 -0.3434 -0.7031 -0.1250
   32SAPC  H20R 4317   2.581   2.820   8.535  1.3271  0.2384 -0.4547
   32SAPC  H20S 4318   2.551   2.722   8.387  0.9799 -1.0690  0.6242
   32SAPC  H20T 4319   2.459   2.882   8.418  0.6731  0.7566 -2.8221
   32SAPC   C33 4320   2.746   3.515   6.419  0.2541 -0.2985  0.1671
   32SAPC   H3X 4321   2.756   3.620   6.454  1.9626  0.2433 -1.7305
   32SAPC   H3Y 4322   2.851   3.478   6.416 -0.0169 -1.0318 -1.1623
   32SAPC   C34 4323   2.646   3.430   6.507 -0.5156  0.2438 -0.4441
   32SAPC   H4X 4324   2.647   3.320   6.490  0.4987 -0.0637  1.3119
   32SAPC   H4Y 4325   2.547   3.460   6.467 -1.1061  1.3038  1.6754
   32SAPC   C35 4326   2.664   3.452   6.661 -0.5394 -0.4890  0.3485
   32SAPC   H5X 4327   2.569   3.426   6.712 -0.4722  0.2074  0.8423
   32SAPC   H5Y 4328   2.693   3.557   6.681 -0.5759 -0.5829  0.9222
   32SAPC   C36 4329   2.776   3.368   6.721 -1.0791 -0.4740  0.0883
   32SAPC   H6X 4330   2.861   3.382   6.652 -0.3147 -2.8842  0.4407
   32SAPC   H6Y 4331   2.757   3.259   6.738 -0.1337 -0.6557  0.0221
   32SAPC   C37 4332   2.815   3.433   6.858 -0.5387  0.2889 -0.5687
   32SAPC   H7X 4333   2.843   3.539   6.845  3.5839 -0.7583 -1.7204
   32SAPC   H7Y 4334   2.909   3.376   6.876 -0.7201 -0.7568 -2.6313
   32SAPC   C38 4335   2.711   3.410   6.969  0.2997  0.5829 -0.6346
   32SAPC   H8X 4336   2.670   3.309   6.948  0.9906  0.5734 -2.1268
   32SAPC   H8Y 4337   2.629   3.485   6.965  1.3729  1.8540  0.5173
   32SAPC   C39 4338   2.771   3.418   7.108 -0.4962  0.6282 -0.7238
   32SAPC   H9X 4339   2.850   3.496   7.108  1.5878 -1.3896 -1.1743
   32SAPC   H9Y 4340   2.832   3.326   7.123 -1.5003  0.1995  1.0094
   32SAPC  C310 4341   2.671   3.444   7.224  0.1833 -0.2889 -0.1463
   32SAPC  H10X 4342   2.592   3.366   7.221 -0.4992  0.4278 -2.1940
   32SAPC  H10Y 4343   2.634   3.546   7.202 -1.1312 -0.2625  1.9289
   32SAPC  C311 4344   2.730   3.446   7.367 -0.2174 -0.1030  0.8644
   32SAPC  H11X 4345   2.664   3.494   7.443 -2.6422  0.8398 -1.6761
   32SAPC  H11Y 4346   2.818   3.512   7.356  0.6054 -0.6214  3.4887
   32SAPC  C312 4347   2.780   3.310   7.412  0.3967  0.6269  0.1473
   32SAPC  H12X 4348   2.841   3.270   7.328  0.3523 -0.4220  0.5994
   32SAPC  H12Y 4349   2.692   3.245   7.434  0.4219  0.9448  1.2725
   32SAPC  C313 4350   2.861   3.312   7.538 -0.6642 -0.5564  0.4240
   32SAPC  H13X 4351   2.940   3.389   7.529 -1.1736  0.0182  0.8081
   32SAPC  H13Y 4352   2.906   3.211   7.527  0.6263 -0.3077  2.9039
   32SAPC  C314 4353   2.769   3.331   7.651  0.1839  0.0859  0.7301
   32SAPC  H14X 4354   2.678   3.268   7.640  0.7778 -1.0001  1.7774
   32SAPC  H14Y 4355   2.728   3.434   7.642  0.1273  0.0954  1.1029
   32SAPC  C315 4356   2.831   3.308   7.788 -0.5129  0.1965  0.2978
   32SAPC  H15X 4357   2.847   3.198   7.794  1.0383  0.4357  1.1837
   32SAPC  H15Y 4358   2.757   3.340   7.864 -3.0329  2.3209 -2.7597
   32SAPC  C316 4359   2.961   3.397   7.807 -0.1253 -0.2801 -0.2676
   32SAPC  H16X 4360   3.041   3.370   7.734  0.9885 -0.0714  0.8401
   32SAPC  H16Y 4361   2.985   3.369   7.912 -1.5591  1.9434  0.7284
   32SAPC  C317 4362   2.939   3.547   7.792  0.6236  0.2038 -0.2907
   32SAPC  H17X 4363   2.843   3.572   7.842  1.6774  0.1330  1.8861
   32SAPC  H17Y 4364   2.917   3.561   7.684 -3.1871  1.5024  0.5000
   32SAPC  C318 4365   3.041   3.646   7.843 -0.1539 -0.2369 -0.5562
   32SAPC  H18X 4366   3.138   3.637   7.790 -0.9910 -0.6704 -2.0850
   32SAPC  H18Y 4367   3.050   3.627   7.952  0.2607  1.5995 -0.2349
   32SAPC  H18Z 4368   2.993   3.746   7.839  0.2116  0.2496  3.3140
   33POPC     N 4369   6.604   5.382  10.935 -0.7938 -0.2159 -0.7388
   33POPC   C12 4370   6.649   5.524  10.892  0.5825  0.0704 -0.0724
   33POPC  H12A 4371   6.572   5.598  10.907  2.2953  2.0833 -0.6352
   33POPC  H12B 4372   6.646   5.516  10.784  0.3830  2.2666 -0.2819
   33POPC   C13 4373   6.494   5.322  10.848  0.1287 -0.6183  0.1338
   33POPC  H13A 4374   6.407   5.386  10.850 -0.6571 -1.6560  0.7540
   33POPC  H13B 4375   6.536   5.314  10.749  1.4499 -0.1065  0.6429
   33POPC  H13C 4376   6.469   5.224  10.885  0.6728 -1.1116 -0.7684
   33POPC   C14 4377   6.718   5.288  10.941 -1.2974  0.6878 -0.0295
   33POPC  H14A 4378   6.794   5.330  11.005  0.6647 -1.9244 -0.4588
   33POPC  H14B 4379   6.695   5.187  10.970  2.6547 -1.4155 -3.1309
   33POPC  H14C 4380   6.764   5.278  10.843 -3.0512 -0.6216 -0.7871
   33POPC   C15 4381   6.550   5.393  11.078 -1.0616  0.1267 -0.4762
   33POPC  H15A 4382   6.483   5.476  11.097 -1.4811 -0.2487 -0.3004
   33POPC  H15B 4383   6.635   5.402  11.144 -1.3805 -0.9536  0.0974
   33POPC  H15C 4384   6.503   5.303  11.115 -0.7686  0.4551  0.7428
   33POPC   C11 4385   6.790   5.576  10.929 -0.0259 -0.4292  0.3376
   33POPC  H11A 4386   6.816   5.564  11.036  1.8341  0.1080 -0.0063
   33POPC  H11B 4387   6.784   5.681  10.892 -0.1187 -0.9486 -1.1764
   33POPC     P 4388   6.939   5.550  10.712  0.0452 -0.0482  0.0735
   33POPC   O13 4389   7.045   5.450  10.674  0.3675 -1.0243 -0.0380
   33POPC   O14 4390   6.981   5.689  10.711  0.3139 -0.2813  0.0261
   33POPC   O12 4391   6.892   5.508  10.856  0.0718 -0.3584  0.0587
   33POPC   O11 4392   6.802   5.540  10.628 -0.4270 -0.8142  0.1300
   33POPC    C1 4393   6.759   5.419  10.570 -0.2516  0.1221  0.7949
   33POPC    HA 4394   6.750   5.333  10.640  0.9882 -1.6624 -1.1025
   33POPC    HB 4395   6.656   5.426  10.528 -0.3332 -3.6833 -0.0189
   33POPC    C2 4396   6.843   5.370  10.442  0.4821  0.1253  0.0094
   33POPC    HS 4397   6.951   5.366  10.469  0.9197  3.1323 -0.9534
   33POPC   O21 4398   6.827   5.478  10.349 -0.1131  0.3641  0.3409
   33POPC   C21 4399   6.926   5.488  10.265  0.3246 -0.0247 -0.0546
   33POPC   O22 4400   7.035   5.440  10.277  0.5158 -0.0618  0.1511
   33POPC   C22 4401   6.879   5.564  10.135 -0.9671 -0.0688 -0.2804
   33POPC   H2R 4402   6.975   5.601  10.092 -0.3571 -0.8814  0.3438
   33POPC   H2S 4403   6.813   5.650  10.159 -0.1923  0.9664 -1.7268
   33POPC    C3 4404   6.799   5.229  10.391 -0.0916  0.5896 -0.0273
   33POPC    HX 4405   6.694   5.226  10.356 -0.8104  2.9712  1.6444
   33POPC    HY 4406   6.811   5.155  10.473 -0.4896 -0.7723 -1.1501
   33POPC   O31 4407   6.875   5.197  10.272  0.1977  0.1775  0.2186
   33POPC   C31 4408   6.983   5.115  10.288  0.6525 -0.4916 -0.4510
   33POPC   O32 4409   7.014   5.069  10.395 -0.3113 -0.1309  0.7475
   33POPC   C32 4410   7.038   5.072  10.154  0.2216 -0.3756  0.0869
   33POPC   H2X 4411   6.956   5.042  10.085 -0.8679  1.7862  0.3584
   33POPC   H2Y 4412   7.095   4.983  10.189  1.0370 -0.4802 -1.4260
   33POPC   C23 4413   6.815   5.479  10.021  0.6462 -0.5608  0.1037
   33POPC   H3R 4414   6.714   5.439  10.048 -1.7327  3.7136 -1.5088
   33POPC   H3S 4415   6.876   5.386  10.015  0.0587 -0.8867 -4.0015
   33POPC   C24 4416   6.790   5.550   9.888  0.0167 -0.4804  0.6643
   33POPC   H4R 4417   6.889   5.571   9.842 -0.2970 -0.7412 -0.1468
   33POPC   H4S 4418   6.733   5.645   9.900 -0.6281 -0.7772  0.0667
   33POPC   C25 4419   6.712   5.472   9.780  0.5501 -0.4371 -0.1278
   33POPC   H5R 4420   6.613   5.442   9.820  1.5447 -2.4617  0.9450
   33POPC   H5S 4421   6.775   5.381   9.780 -0.2030 -0.9852  1.5090
   33POPC   C26 4422   6.695   5.546   9.648  0.2008  0.7295 -0.5611
   33POPC   H6R 4423   6.792   5.598   9.633 -0.3029  1.9129  0.1578
   33POPC   H6S 4424   6.630   5.633   9.669 -0.2933  0.7506 -2.0775
   33POPC   C27 4425   6.664   5.453   9.536  0.2735  0.2537 -0.0541
   33POPC   H7R 4426   6.555   5.459   9.514  0.0944 -1.8264  0.0245
   33POPC   H7S 4427   6.675   5.346   9.564 -0.7128 -0.3532 -1.8155
   33POPC   C28 4428   6.751   5.486   9.412  0.5583 -0.6506  0.6852
   33POPC   H8R 4429   6.859   5.490   9.438  0.8241 -1.9286 -0.1333
   33POPC   H8S 4430   6.713   5.589   9.395  1.3874 -0.2791  1.0175
   33POPC   C29 4431   6.721   5.386   9.303 -0.4715 -0.4664  0.5342
   33POPC   H91 4432   6.699   5.285   9.340 -1.6473  0.2560  1.9658
   33POPC  C210 4433   6.692   5.415   9.179  0.2364 -0.0851  0.7069
   33POPC  H101 4434   6.661   5.333   9.114  0.9072  0.5618 -0.4567
   33POPC  C211 4435   6.681   5.547   9.111 -0.0678  0.7099 -0.8210
   33POPC  H11R 4436   6.780   5.562   9.062  0.8700 -1.4602  0.2831
   33POPC  H11S 4437   6.681   5.635   9.179  0.6083 -1.8840  2.8539
   33POPC  C212 4438   6.577   5.553   8.998  0.1635 -0.0460 -0.0456
   33POPC  H12R 4439   6.539   5.656   8.982  0.4007  0.3552  1.7503
   33POPC  H12S 4440   6.483   5.503   9.032 -0.5915  0.1746 -1.7184
   33POPC  C213 4441   6.613   5.478   8.864 -0.2787  0.0168 -0.2841
   33POPC  H13R 4442   6.654   5.378   8.888  1.5471  0.5856 -0.8522
   33POPC  H13S 4443   6.699   5.535   8.821  0.1363 -0.0262  0.4717
   33POPC  C214 4444   6.500   5.468   8.764 -0.0379 -0.0387 -0.0694
   33POPC  H14R 4445   6.461   5.568   8.734 -0.7491 -0.3858 -0.3266
   33POPC  H14S 4446   6.419   5.412   8.816  0.8708  1.2963  3.0601
   33POPC  C215 4447   6.540   5.376   8.646 -0.6869  0.0376  0.4357
   33POPC  H15R 4448   6.579   5.276   8.675 -1.4525 -0.7155 -1.0212
   33POPC  H15S 4449   6.626   5.429   8.598  0.0197 -0.7007  0.8625
   33POPC  C216 4450   6.433   5.358   8.538  0.9869 -0.7337  0.0820
   33POPC  H16R 4451   6.492   5.322   8.451  0.7787 -1.6717  0.3116
   33POPC  H16S 4452   6.382   5.454   8.514 -0.2692 -1.5657 -0.6782
   33POPC  C217 4453   6.329   5.249   8.566 -0.4389 -0.3035  1.2320
   33POPC  H17R 4454   6.261   5.296   8.641 -0.1484  0.7404  0.8598
   33POPC  H17S 4455   6.388   5.167   8.612  2.9055  1.7553  0.9607
   33POPC  C218 4456   6.254   5.202   8.444  0.4269  0.4111 -0.0926
   33POPC  H18R 4457   6.179   5.270   8.398  1.3575  1.5714  0.0512
   33POPC  H18S 4458   6.204   5.109   8.478  0.2496  0.5507  0.0286
   33POPC  H18T 4459   6.316   5.164   8.360 -0.2780 -0.3941 -0.2576
   33POPC   C33 4460   7.141   5.167  10.099 -0.3712  0.5908  0.1327
   33POPC   H3X 4461   7.228   5.162  10.168 -0.4373 -0.4879  0.1520
   33POPC   H3Y 4462   7.111   5.274  10.092 -0.5433  0.6389  1.3845
   33POPC   C34 4463   7.186   5.111   9.958 -0.1067 -0.9665 -0.3778
   33POPC   H4X 4464   7.201   5.001   9.964  1.2582 -0.8041 -0.5169
   33POPC   H4Y 4465   7.284   5.154   9.928  0.1955 -2.7544 -2.1377
   33POPC   C35 4466   7.079   5.141   9.857  0.1148 -0.2852  0.9820
   33POPC   H5X 4467   7.040   5.245   9.869  1.8641  0.7388 -1.3686
   33POPC   H5Y 4468   6.985   5.085   9.875 -1.1059  1.2585 -0.2546
   33POPC   C36 4469   7.131   5.108   9.713  0.4371  0.2398 -0.4074
   33POPC   H6X 4470   7.152   5.000   9.732 -0.8397  0.4134  2.5375
   33POPC   H6Y 4471   7.225   5.165   9.695  1.1902 -1.2958 -1.5585
   33POPC   C37 4472   7.027   5.136   9.605  0.3442  0.3716  0.2638
   33POPC   H7X 4473   6.999   5.243   9.594  2.7673  0.9683 -0.6185
   33POPC   H7Y 4474   6.933   5.081   9.630  0.7635  0.1984  1.5228
   33POPC   C38 4475   7.057   5.083   9.467 -0.1300  0.3489  0.1176
   33POPC   H8X 4476   7.087   4.976   9.476  1.4871  0.8771  1.6280
   33POPC   H8Y 4477   7.145   5.130   9.416  0.2909 -0.3269  0.2073
   33POPC   C39 4478   6.928   5.086   9.384 -0.2260 -0.9028 -0.6529
   33POPC   H9X 4479   6.896   5.192   9.397  1.6944 -0.5133  1.4433
   33POPC   H9Y 4480   6.856   5.005   9.407  0.0307 -1.2561 -1.0785
   33POPC  C310 4481   6.964   5.059   9.240  0.4870 -0.2008  0.0393
   33POPC  H10X 4482   7.017   4.961   9.233  3.5924  0.8575  4.1606
   33POPC  H10Y 4483   7.020   5.145   9.198  2.3861 -0.7102  1.3704
   33POPC  C311 4484   6.837   5.048   9.151 -0.1958 -0.8496 -0.1819
   33POPC  H11X 4485   6.779   5.141   9.163 -0.6632 -1.3822  2.1809
   33POPC  H11Y 4486   6.778   4.964   9.193 -0.5082 -0.5083  0.0634
   33POPC  C312 4487   6.871   5.015   9.004 -0.6630  0.0236  0.0795
   33POPC  H12X 4488   6.948   4.935   8.995  0.3970  1.0546 -0.3003
   33POPC  H12Y 4489   6.924   5.099   8.954 -0.5094 -0.2289 -0.1873
   33POPC  C313 4490   6.746   4.965   8.929  0.1829  0.0358 -0.3895
   33POPC  H13X 4491   6.665   5.013   8.987  3.0134  2.0115  2.3160
   33POPC  H13Y 4492   6.731   4.856   8.943 -0.3356  0.2441  0.7642
   33POPC  C314 4493   6.749   5.004   8.779 -0.6494 -0.1697 -0.8999
   33POPC  H14X 4494   6.846   4.965   8.740 -0.0778 -0.9010  1.0911
   33POPC  H14Y 4495   6.761   5.113   8.766 -0.0102 -0.2646 -1.1490
   33POPC  C315 4496   6.630   4.959   8.690  0.4899 -0.3776 -0.3090
   33POPC  H15X 4497   6.646   5.001   8.589 -1.5681 -0.9653 -0.9322
   33POPC  H15Y 4498   6.538   5.004   8.734  1.2738 -0.7181  1.7945
   33POPC  C316 4499   6.609   4.806   8.670  0.3843 -0.1911  0.0988
   33POPC  H16X 4500   6.696   4.774   8.609  1.4520  2.0553  0.3328
   33POPC  H16Y 4501   6.517   4.776   8.615  0.3188  0.2671 -0.0470
   33POPC  H16Z 4502   6.625   4.760   8.770 -0.6966  1.9121  1.3108
   34POPC     N 4503   0.813   1.212  10.532 -0.6603  0.6978  0.0500
   34POPC   C12 4504   0.783   1.087  10.448 -0.3071 -0.0908 -0.1183
   34POPC  H12A 4505   0.746   1.005  10.509  1.2350 -3.1266 -2.9395
   34POPC  H12B 4506   0.865   1.049  10.388 -1.1778  1.3105 -2.3229
   34POPC   C13 4507   0.853   1.322  10.437  0.1685 -0.2784  0.4858
   34POPC  H13A 4508   0.863   1.420  10.481  0.3247  0.7156 -1.6222
   34POPC  H13B 4509   0.937   1.299  10.373  2.7397 -0.5910  3.7380
   34POPC  H13C 4510   0.768   1.339  10.372  0.7651 -0.2364 -0.3026
   34POPC   C14 4511   0.697   1.260  10.606  0.3594  0.3153 -0.7476
   34POPC  H14A 4512   0.612   1.275  10.542  1.0306  0.7789 -1.5441
   34POPC  H14B 4513   0.678   1.190  10.686 -1.3114 -0.0296 -1.4164
   34POPC  H14C 4514   0.722   1.355  10.653 -1.6136 -0.5773  2.4459
   34POPC   C15 4515   0.933   1.187  10.614  0.1019 -0.6251 -0.4567
   34POPC  H15A 4516   0.947   1.084  10.644 -1.9774 -2.1551 -3.9705
   34POPC  H15B 4517   0.934   1.255  10.697 -1.7060 -0.0527 -0.8639
   34POPC  H15C 4518   1.019   1.210  10.553 -0.1951 -3.3359 -2.0986
   34POPC   C11 4519   0.656   1.085  10.350  0.0756 -0.9749  0.7573
   34POPC  H11A 4520   0.643   0.982  10.311  1.0485 -0.7495 -0.2266
   34POPC  H11B 4521   0.695   1.145  10.265 -1.5079 -1.8559 -0.6392
   34POPC     P 4522   0.432   1.018  10.464 -0.0942  0.1078 -0.0554
   34POPC   O13 4523   0.320   1.091  10.522 -0.1689 -0.5608 -0.2277
   34POPC   O14 4524   0.508   0.912  10.546 -0.4681 -0.2107  0.6910
   34POPC   O12 4525   0.535   1.128  10.406  0.4395  0.8303 -0.6388
   34POPC   O11 4526   0.386   0.949  10.328 -0.9204  0.1535  0.8303
   34POPC    C1 4527   0.283   1.027  10.264  0.6134 -0.0746  0.3671
   34POPC    HA 4528   0.304   1.134  10.245  1.6877 -0.7119 -2.3871
   34POPC    HB 4529   0.189   1.021  10.324 -0.7256 -1.1293 -1.7065
   34POPC    C2 4530   0.247   0.972  10.126 -0.4479 -0.7091 -0.0643
   34POPC    HS 4531   0.165   1.031  10.081  0.0973  0.2171  0.1313
   34POPC   O21 4532   0.195   0.841  10.139 -0.4858  0.8038 -0.2525
   34POPC   C21 4533   0.113   0.796  10.050 -0.1925  0.0157  0.5556
   34POPC   O22 4534   0.056   0.868   9.970 -0.4072 -0.8378  0.4855
   34POPC   C22 4535   0.093   0.649  10.082 -0.1310  0.4339  0.7800
   34POPC   H2R 4536   0.058   0.644  10.187 -2.4085 -0.1580  0.0361
   34POPC   H2S 4537   0.189   0.594  10.068 -0.8479 -1.0749  1.5835
   34POPC    C3 4538   0.371   0.970  10.027  0.1165 -0.4419  0.5421
   34POPC    HX 4539   0.445   0.903  10.077 -0.7354 -0.0118  2.4978
   34POPC    HY 4540   0.417   1.072  10.026  0.4053 -0.5688  0.7240
   34POPC   O31 4541   0.340   0.931   9.888  0.1554 -0.1720 -0.6722
   34POPC   C31 4542   0.278   1.024   9.814  0.3651 -0.5211 -0.2596
   34POPC   O32 4543   0.254   1.135   9.853 -0.3080 -0.5156  0.1355
   34POPC   C32 4544   0.246   0.965   9.681 -0.0865 -0.1554  0.1165
   34POPC   H2X 4545   0.240   0.855   9.694  2.9796 -0.2329  1.5620
   34POPC   H2Y 4546   0.342   0.982   9.628 -0.5526  0.0095 -0.6980
   34POPC   C23 4547  -0.031   0.591   9.996  0.2923 -0.3724  0.5436
   34POPC   H3R 4548  -0.127   0.633  10.032  0.3259  0.2266 -0.0507
   34POPC   H3S 4549  -0.029   0.484  10.026 -0.0610 -0.1660  1.3415
   34POPC   C24 4550  -0.013   0.600   9.838 -0.4829 -0.2889 -0.2994
   34POPC   H4R 4551   0.082   0.547   9.815  0.7652  1.2272  1.0959
   34POPC   H4S 4552  -0.008   0.706   9.803  1.0644 -1.2870 -3.3885
   34POPC   C25 4553  -0.142   0.551   9.756 -0.3710  0.3421 -0.2063
   34POPC   H5R 4554  -0.222   0.617   9.796  0.9280  1.2385  1.0548
   34POPC   H5S 4555  -0.161   0.447   9.789  0.3403  0.6697  1.3514
   34POPC   C26 4556  -0.141   0.565   9.612  0.0318 -0.7480  0.6486
   34POPC   H6R 4557  -0.061   0.500   9.568  0.3334  0.0407  0.0129
   34POPC   H6S 4558  -0.122   0.672   9.588  0.0971 -0.8516  0.2291
   34POPC   C27 4559  -0.268   0.528   9.530  0.7241 -0.4257 -0.1682
   34POPC   H7R 4560  -0.350   0.572   9.590  1.5004 -0.2334  0.7636
   34POPC   H7S 4561  -0.260   0.417   9.531  0.2990 -0.5195 -2.1965
   34POPC   C28 4562  -0.273   0.564   9.379 -0.2683  0.3795  0.1672
   34POPC   H8R 4563  -0.262   0.674   9.366 -0.4278  0.4862  0.9079
   34POPC   H8S 4564  -0.369   0.530   9.335 -0.6713  1.1658  0.4336
   34POPC   C29 4565  -0.159   0.513   9.300 -0.4569  0.5164 -0.0209
   34POPC   H91 4566  -0.066   0.501   9.358  0.4984 -0.2164 -1.6314
   34POPC  C210 4567  -0.143   0.501   9.171  0.5527  0.7869  0.1894
   34POPC  H101 4568  -0.052   0.452   9.131  0.0188 -2.2423  2.3224
   34POPC  C211 4569  -0.238   0.522   9.059 -0.1468  0.3098 -0.5988
   34POPC  H11R 4570  -0.341   0.519   9.101 -0.3747  0.0832 -1.1513
   34POPC  H11S 4571  -0.219   0.450   8.976  0.6960  0.6423 -0.7022
   34POPC  C212 4572  -0.230   0.658   8.995 -0.8888 -0.1306 -0.0306
   34POPC  H12R 4573  -0.127   0.668   8.954 -0.8936 -2.9464 -0.9929
   34POPC  H12S 4574  -0.237   0.736   9.073  1.6368  0.7642 -0.6041
   34POPC  C213 4575  -0.326   0.671   8.878 -0.0014  0.4610  0.1616
   34POPC  H13R 4576  -0.427   0.655   8.920  0.4924  0.4600  1.3771
   34POPC  H13S 4577  -0.312   0.579   8.818  0.8047 -0.1929  1.3238
   34POPC  C214 4578  -0.311   0.799   8.801 -0.0839  0.0630 -0.0956
   34POPC  H14R 4579  -0.204   0.813   8.773  0.4382 -0.2627  1.5966
   34POPC  H14S 4580  -0.342   0.865   8.885  1.6629  0.5747  0.1970
   34POPC  C215 4581  -0.407   0.813   8.688 -0.4702  0.1852 -0.4238
   34POPC  H15R 4582  -0.509   0.779   8.715 -0.3172 -0.2793 -0.4215
   34POPC  H15S 4583  -0.367   0.757   8.600 -0.1944 -1.2032  0.5382
   34POPC  C216 4584  -0.430   0.961   8.651 -0.8696  0.3054  0.5417
   34POPC  H16R 4585  -0.337   1.021   8.651 -1.0537  0.6501 -1.0580
   34POPC  H16S 4586  -0.491   1.006   8.733  0.3628  2.2213  0.4651
   34POPC  C217 4587  -0.520   0.968   8.523 -0.2749  0.1565  0.1068
   34POPC  H17R 4588  -0.604   0.897   8.534 -0.6477  0.2340 -1.8952
   34POPC  H17S 4589  -0.468   0.932   8.431 -1.6174 -1.1156 -0.2017
   34POPC  C218 4590  -0.565   1.111   8.497 -0.1294 -0.2347 -0.0459
   34POPC  H18R 4591  -0.635   1.120   8.411  0.9511  1.2931 -0.8283
   34POPC  H18S 4592  -0.478   1.176   8.473  1.5082 -1.9817  0.8832
   34POPC  H18T 4593  -0.618   1.144   8.589 -2.0183 -3.6292  0.2409
   34POPC   C33 4594   0.129   1.024   9.601  0.1184  0.4792 -0.5753
   34POPC   H3X 4595   0.174   1.100   9.535  1.5861  0.7474  0.6877
   34POPC   H3Y 4596   0.059   1.083   9.666  0.7265  3.0480 -2.1180
   34POPC   C34 4597   0.058   0.913   9.528 -1.1310  0.3396  0.5674
   34POPC   H4X 4598  -0.051   0.935   9.526 -1.5417 -1.3908  1.4809
   34POPC   H4Y 4599   0.058   0.813   9.577  1.2915  0.0093 -0.0062
   34POPC   C35 4600   0.098   0.910   9.379 -0.5172 -0.5867  1.0333
   34POPC   H5X 4601   0.129   0.807   9.355  0.2044 -0.3138  0.7623
   34POPC   H5Y 4602   0.181   0.981   9.357 -1.2577 -0.1148 -0.3388
   34POPC   C36 4603  -0.011   0.956   9.284  0.1843 -0.7449  0.1281
   34POPC   H6X 4604  -0.097   0.886   9.296  2.1934 -3.1386  1.2523
   34POPC   H6Y 4605   0.012   0.951   9.175 -0.0756  0.3716  0.0135
   34POPC   C37 4606  -0.065   1.097   9.309  0.0505  0.2059 -0.4463
   34POPC   H7X 4607   0.029   1.156   9.320  0.5662 -0.7581  0.6359
   34POPC   H7Y 4608  -0.126   1.096   9.402  1.0064  1.7542  0.2427
   34POPC   C38 4609  -0.149   1.147   9.190 -0.2801  0.6058  0.3944
   34POPC   H8X 4610  -0.073   1.174   9.113 -0.5844  0.6916  0.1190
   34POPC   H8Y 4611  -0.189   1.245   9.225  2.0043  1.6287  0.3388
   34POPC   C39 4612  -0.253   1.036   9.144 -0.1811  0.3846  0.2056
   34POPC   H9X 4613  -0.192   0.950   9.109 -0.8002 -0.8244  1.9827
   34POPC   H9Y 4614  -0.310   1.072   9.056 -3.8868 -0.8121  1.9129
   34POPC  C310 4615  -0.365   1.015   9.251 -0.1454  0.2324  1.0332
   34POPC  H10X 4616  -0.422   1.109   9.270  0.5652  0.8413  0.2517
   34POPC  H10Y 4617  -0.308   0.984   9.341  0.9943 -0.1415  0.2098
   34POPC  C311 4618  -0.459   0.892   9.212  0.0707  0.2094  0.0182
   34POPC  H11X 4619  -0.399   0.803   9.184  1.5266  0.9592  0.5994
   34POPC  H11Y 4620  -0.529   0.923   9.132 -0.7731  0.9566  1.0184
   34POPC  C312 4621  -0.532   0.853   9.338  1.1306 -0.5916  0.4708
   34POPC  H12X 4622  -0.559   0.949   9.385  3.5603  1.3175 -1.7237
   34POPC  H12Y 4623  -0.467   0.806   9.415  0.1541 -1.9967  0.4873
   34POPC  C313 4624  -0.660   0.770   9.311  0.3583  0.3704 -0.0336
   34POPC  H13X 4625  -0.649   0.677   9.250 -2.9108 -0.2480  0.1013
   34POPC  H13Y 4626  -0.740   0.824   9.256  1.2609  0.0072 -1.7667
   34POPC  C314 4627  -0.727   0.744   9.443 -0.7992 -0.1714 -0.3295
   34POPC  H14X 4628  -0.725   0.840   9.499 -1.9433 -0.2541 -0.1179
   34POPC  H14Y 4629  -0.660   0.687   9.511 -0.2239 -0.2104 -0.9222
   34POPC  C315 4630  -0.871   0.693   9.418 -0.4737 -0.3359  0.9343
   34POPC  H15X 4631  -0.862   0.607   9.347 -2.5144 -0.0089  0.2326
   34POPC  H15Y 4632  -0.929   0.776   9.372  1.2264  0.5992  0.3977
   34POPC  C316 4633  -0.940   0.634   9.542  0.2090  0.1916 -0.6060
   34POPC  H16X 4634  -1.035   0.580   9.525  0.6343 -1.2455  1.2587
   34POPC  H16Y 4635  -0.973   0.716   9.609 -0.4147  0.6245 -1.4213
   34POPC  H16Z 4636  -0.867   0.568   9.593 -1.1932 -0.0639  1.1580
   35POPC     N 4637   0.019   3.910  10.811  0.0681 -1.1817  0.8046
   35POPC   C12 4638   0.037   3.779  10.744 -0.0406  1.0205 -0.7898
   35POPC  H12A 4639   0.103   3.794  10.661 -0.2625  0.1425 -1.1348
   35POPC  H12B 4640  -0.060   3.753  10.705 -0.2949  2.1171 -0.9048
   35POPC   C13 4641   0.148   3.961  10.874 -0.4969 -0.5553  0.3159
   35POPC  H13A 4642   0.218   4.001  10.802  0.3434  0.0939  1.4579
   35POPC  H13B 4643   0.132   4.047  10.936  3.0334  0.4636 -0.0120
   35POPC  H13C 4644   0.196   3.887  10.936  0.5269  1.6039  2.2487
   35POPC   C14 4645  -0.023   4.015  10.707 -0.7184 -0.5019 -0.7224
   35POPC  H14A 4646   0.064   4.045  10.651 -0.5180  1.4173  0.5330
   35POPC  H14B 4647  -0.085   3.977  10.627 -0.6464 -3.7029  0.5622
   35POPC  H14C 4648  -0.055   4.107  10.752  1.7839 -0.1840  0.5641
   35POPC   C15 4649  -0.098   3.907  10.906 -0.9719  0.5646  0.3211
   35POPC  H15A 4650  -0.117   4.005  10.946 -2.8325  0.4645 -0.2586
   35POPC  H15B 4651  -0.069   3.833  10.979 -1.3273 -0.1072 -0.2006
   35POPC  H15C 4652  -0.194   3.872  10.871 -0.8101  1.4748 -1.1235
   35POPC   C11 4653   0.080   3.661  10.837 -0.5560  0.1419 -0.0860
   35POPC  H11A 4654   0.171   3.697  10.889 -0.6824  0.7088 -0.2501
   35POPC  H11B 4655   0.118   3.580  10.771  0.6640  1.6369 -1.2841
   35POPC     P 4656  -0.157   3.560  10.899 -0.2226  0.0061  0.2722
   35POPC   O13 4657  -0.264   3.630  10.974 -0.7835 -0.1446  0.6363
   35POPC   O14 4658  -0.145   3.411  10.923 -0.0752 -1.1806 -0.4166
   35POPC   O12 4659  -0.018   3.624  10.935  0.2929  0.0734 -0.0928
   35POPC   O11 4660  -0.180   3.582  10.745  0.1482  0.0928  0.2514
   35POPC    C1 4661  -0.312   3.630  10.704 -0.1152  0.0609  0.3862
   35POPC    HA 4662  -0.306   3.740  10.714  0.3373  0.2306 -1.3442
   35POPC    HB 4663  -0.396   3.590  10.764  2.4778 -2.9371  2.3995
   35POPC    C2 4664  -0.359   3.590  10.562 -0.7098  0.2432 -0.4474
   35POPC    HS 4665  -0.388   3.483  10.564  2.3852 -0.7063 -0.7151
   35POPC   O21 4666  -0.238   3.606  10.479 -0.1118 -0.5279  0.4368
   35POPC   C21 4667  -0.188   3.485  10.447  0.0000  0.2087  0.4835
   35POPC   O22 4668  -0.191   3.384  10.517  0.4553 -0.1837 -0.6262
   35POPC   C22 4669  -0.112   3.493  10.312 -0.0834 -0.1513  0.1685
   35POPC   H2R 4670  -0.004   3.498  10.335  0.4456 -1.9911 -1.5541
   35POPC   H2S 4671  -0.148   3.581  10.255  0.8373 -1.1013 -2.0168
   35POPC    C3 4672  -0.480   3.687  10.514  0.0013 -0.2451 -0.4652
   35POPC    HX 4673  -0.445   3.783  10.557 -3.0773 -0.1324  2.1627
   35POPC    HY 4674  -0.569   3.643  10.564 -0.9515 -0.4912 -2.2908
   35POPC   O31 4675  -0.496   3.711  10.375 -0.2204 -0.0326 -0.8743
   35POPC   C31 4676  -0.488   3.625  10.275 -0.2400 -0.0802 -0.2596
   35POPC   O32 4677  -0.484   3.507  10.287 -0.6023  0.1432  0.0508
   35POPC   C32 4678  -0.494   3.699  10.147  0.0352 -0.7028  0.0296
   35POPC   H2X 4679  -0.448   3.800  10.155 -1.4521  0.3237 -2.8375
   35POPC   H2Y 4680  -0.603   3.702  10.125 -0.0277 -2.5529 -0.0662
   35POPC   C23 4681  -0.128   3.359  10.239 -0.2405  0.2971 -0.8114
   35POPC   H3R 4682  -0.232   3.339  10.206 -0.1716  1.4147 -1.7585
   35POPC   H3S 4683  -0.098   3.271  10.299  1.6731  1.0391 -0.6021
   35POPC   C24 4684  -0.044   3.344  10.113  0.1108 -0.4683  0.0906
   35POPC   H4R 4685  -0.080   3.254  10.058  1.4407 -0.0058 -1.6475
   35POPC   H4S 4686   0.065   3.337  10.132  1.2027  1.1423 -4.3644
   35POPC   C25 4687  -0.044   3.468  10.017 -0.6162 -0.1480 -0.5644
   35POPC   H5R 4688  -0.009   3.552  10.082 -1.3513  1.4991 -2.1997
   35POPC   H5S 4689  -0.152   3.485   9.998 -0.7541 -0.7633 -0.3624
   35POPC   C26 4690   0.037   3.435   9.893  0.0413 -0.1135  0.9287
   35POPC   H6R 4691   0.134   3.390   9.922  0.0154 -0.2369  0.8230
   35POPC   H6S 4692   0.049   3.537   9.849 -2.0578  0.3842  1.3966
   35POPC   C27 4693  -0.030   3.343   9.793  0.6379 -0.2452  0.4957
   35POPC   H7R 4694  -0.117   3.395   9.746 -0.0191 -0.4861  1.4159
   35POPC   H7S 4695  -0.070   3.251   9.840 -2.1645  0.4832 -0.2683
   35POPC   C28 4696   0.053   3.298   9.671  0.0619  0.3114 -0.2124
   35POPC   H8R 4697  -0.005   3.228   9.607 -0.9090  0.8835  0.0219
   35POPC   H8S 4698   0.141   3.238   9.701  0.7436  0.6082 -1.5469
   35POPC   C29 4699   0.106   3.421   9.596 -0.4712 -0.0789 -0.0372
   35POPC   H91 4700   0.164   3.493   9.655 -0.6489  0.1401 -0.1322
   35POPC  C210 4701   0.103   3.438   9.463 -0.8765 -0.3885 -0.7260
   35POPC  H101 4702   0.157   3.528   9.430  0.6258  0.2446  2.9620
   35POPC  C211 4703   0.034   3.351   9.365  0.7861  0.0313 -0.3256
   35POPC  H11R 4704  -0.067   3.391   9.343  1.4715  1.1092 -1.6857
   35POPC  H11S 4705   0.021   3.244   9.392  4.4799 -0.5279 -0.2005
   35POPC  C212 4706   0.101   3.362   9.227  0.1112 -0.0006  0.5841
   35POPC  H12R 4707   0.210   3.341   9.238  0.1065  0.0145  0.6610
   35POPC  H12S 4708   0.089   3.464   9.186  3.0042  0.5436  0.9044
   35POPC  C213 4709   0.032   3.278   9.124 -0.0468 -0.1193  0.1174
   35POPC  H13R 4710  -0.072   3.316   9.120 -0.0040 -0.0621 -0.5553
   35POPC  H13S 4711   0.019   3.176   9.166 -0.5543  0.5467  1.6457
   35POPC  C214 4712   0.085   3.279   8.980  0.3030  0.0390 -0.5464
   35POPC  H14R 4713   0.152   3.367   8.970 -0.7122  0.5643 -4.0747
   35POPC  H14S 4714  -0.002   3.292   8.912  0.0529  0.5972 -0.1282
   35POPC  C215 4715   0.163   3.154   8.939 -0.0021  0.2758  0.9265
   35POPC  H15R 4716   0.099   3.063   8.949  0.0207  0.1002 -0.3209
   35POPC  H15S 4717   0.255   3.133   8.998  1.5398 -1.7554 -1.9429
   35POPC  C216 4718   0.198   3.163   8.787  0.2941 -0.0820 -0.2549
   35POPC  H16R 4719   0.293   3.106   8.772 -1.1391 -2.3311 -1.3655
   35POPC  H16S 4720   0.218   3.271   8.770  3.5539  0.0418  2.9505
   35POPC  C217 4721   0.093   3.097   8.684  0.6469  0.4045 -0.4605
   35POPC  H17R 4722  -0.008   3.137   8.708  0.9651  0.5601  0.7038
   35POPC  H17S 4723   0.078   2.988   8.695 -2.2902  0.7082 -0.8259
   35POPC  C218 4724   0.110   3.142   8.544  0.1647 -0.2462  0.9692
   35POPC  H18R 4725   0.025   3.102   8.485 -0.3060 -0.9009  2.0575
   35POPC  H18S 4726   0.205   3.106   8.500 -0.1405 -2.0971  1.7605
   35POPC  H18T 4727   0.111   3.253   8.537 -0.8060 -0.3406 -1.6982
   35POPC   C33 4728  -0.428   3.617  10.032  0.0800 -0.5825  0.2740
   35POPC   H3X 4729  -0.481   3.520  10.020 -0.1541 -0.5626  1.1049
   35POPC   H3Y 4730  -0.322   3.594  10.057  0.3442  0.7575  0.4628
   35POPC   C34 4731  -0.432   3.695   9.899  0.2369  0.0127  0.0803
   35POPC   H4X 4732  -0.387   3.794   9.917  0.3851  0.0147 -0.2880
   35POPC   H4Y 4733  -0.540   3.701   9.874  0.2964 -0.6633 -0.3821
   35POPC   C35 4734  -0.355   3.624   9.784 -0.4946  0.5584  0.0314
   35POPC   H5X 4735  -0.378   3.516   9.773  0.4850  0.3797 -0.3941
   35POPC   H5Y 4736  -0.245   3.632   9.798 -0.4811  0.4129  0.0102
   35POPC   C36 4737  -0.380   3.687   9.648  0.1403  0.5164  0.4459
   35POPC   H6X 4738  -0.328   3.785   9.647  0.7063  0.2205 -0.2098
   35POPC   H6Y 4739  -0.488   3.708   9.632  0.2299  2.6554  2.1817
   35POPC   C37 4740  -0.339   3.595   9.532 -0.3631  0.3454  0.1860
   35POPC   H7X 4741  -0.414   3.514   9.541  0.8342 -0.7988  0.1741
   35POPC   H7Y 4742  -0.233   3.560   9.533 -0.2123  0.6928 -1.3777
   35POPC   C38 4743  -0.359   3.663   9.394 -0.3513 -0.1289 -0.1275
   35POPC   H8X 4744  -0.302   3.756   9.412  0.3908 -0.7274  0.6666
   35POPC   H8Y 4745  -0.469   3.680   9.386 -0.8144 -1.8973  1.5787
   35POPC   C39 4746  -0.305   3.576   9.283 -0.5612 -0.2807  0.3677
   35POPC   H9X 4747  -0.351   3.478   9.260 -0.7523  0.0637 -0.7758
   35POPC   H9Y 4748  -0.198   3.564   9.312 -0.1120  2.4202  0.1046
   35POPC  C310 4749  -0.311   3.647   9.152 -0.2931 -0.0541 -0.1909
   35POPC  H10X 4750  -0.272   3.750   9.167 -0.6785 -0.0297  0.6974
   35POPC  H10Y 4751  -0.417   3.656   9.117  0.3696  0.2383 -2.2955
   35POPC  C311 4752  -0.233   3.570   9.049 -0.6191  0.4489  0.6228
   35POPC  H11X 4753  -0.291   3.476   9.038 -1.9626  1.3308 -0.1693
   35POPC  H11Y 4754  -0.134   3.536   9.086 -1.2938  0.0089  2.0905
   35POPC  C312 4755  -0.221   3.636   8.903  0.2426 -0.6356 -0.6671
   35POPC  H12X 4756  -0.155   3.725   8.912 -0.3015 -0.3423  0.6865
   35POPC  H12Y 4757  -0.321   3.677   8.877  0.2282  0.9063  1.5487
   35POPC  C313 4758  -0.173   3.528   8.803  0.1509  0.5068  0.4389
   35POPC  H13X 4759  -0.244   3.444   8.787 -1.1955  2.0249 -2.1511
   35POPC  H13Y 4760  -0.080   3.492   8.853  2.4043  1.1809 -2.9598
   35POPC  C314 4761  -0.124   3.597   8.675 -0.2827  0.1773 -0.3976
   35POPC  H14X 4762  -0.065   3.684   8.710 -0.2196 -0.1668  0.3568
   35POPC  H14Y 4763  -0.209   3.657   8.635  0.2852  1.1068 -0.2307
   35POPC  C315 4764  -0.066   3.508   8.563  1.1023 -0.2447  0.5589
   35POPC  H15X 4765   0.028   3.465   8.603  0.4848 -0.9198  1.3158
   35POPC  H15Y 4766  -0.030   3.562   8.473 -0.4904 -1.4912 -0.9059
   35POPC  C316 4767  -0.160   3.394   8.513 -0.0634  0.1109 -0.7486
   35POPC  H16X 4768  -0.245   3.462   8.492  1.5992  1.9502 -1.9019
   35POPC  H16Y 4769  -0.173   3.307   8.580 -1.0562  1.4000  0.7938
   35POPC  H16Z 4770  -0.132   3.359   8.411  1.7096 -0.2988 -0.1555
   36POPC     N 4771   0.034   1.369  10.792  0.2051 -0.2908  0.3291
   36POPC   C12 4772   0.128   1.439  10.697  0.3650 -0.6070  0.7123
   36POPC  H12A 4773   0.145   1.376  10.611  3.3805  0.0408  0.7284
   36POPC  H12B 4774   0.221   1.453  10.750  2.2477  1.8198 -2.8814
   36POPC   C13 4775   0.005   1.442  10.917 -0.2754  0.0276  0.4502
   36POPC  H13A 4776   0.090   1.464  10.981 -0.7188 -1.0810  1.4521
   36POPC  H13B 4777  -0.037   1.540  10.900  0.2458 -0.1074 -1.8739
   36POPC  H13C 4778  -0.061   1.377  10.972 -0.4581  1.3982  1.9169
   36POPC   C14 4779  -0.100   1.335  10.731  0.0765  0.1941 -0.5187
   36POPC  H14A 4780  -0.133   1.433  10.699  1.4064  0.8361  0.0139
   36POPC  H14B 4781  -0.095   1.281  10.637  1.0734 -0.4729 -0.0969
   36POPC  H14C 4782  -0.174   1.299  10.801  0.5966  0.8962  0.4152
   36POPC   C15 4783   0.089   1.233  10.822 -0.4810  0.2270 -0.1648
   36POPC  H15A 4784   0.096   1.169  10.735  1.0672 -0.1753  0.2230
   36POPC  H15B 4785   0.020   1.190  10.894 -0.5843  1.7061  0.6536
   36POPC  H15C 4786   0.188   1.242  10.864  0.8359 -1.6469 -2.5805
   36POPC   C11 4787   0.086   1.577  10.649  0.3587  0.4083  0.4768
   36POPC  H11A 4788   0.157   1.614  10.573  1.6207 -0.5955  1.1431
   36POPC  H11B 4789   0.084   1.643  10.739  0.4732  0.0042  0.7788
   36POPC     P 4790  -0.116   1.743  10.583 -0.1686  0.3257 -0.1236
   36POPC   O13 4791  -0.108   1.819  10.708 -0.0731  0.4010 -0.3084
   36POPC   O14 4792  -0.252   1.718  10.535 -0.0540 -0.1284 -0.3498
   36POPC   O12 4793  -0.053   1.596  10.609  0.3659 -0.1432 -0.4645
   36POPC   O11 4794  -0.029   1.808  10.471 -0.2323 -0.5933 -0.4203
   36POPC    C1 4795  -0.012   1.747  10.345 -0.5871  0.1696  0.2016
   36POPC    HA 4796  -0.101   1.682  10.326 -1.5133  1.6021 -0.5039
   36POPC    HB 4797   0.076   1.681  10.361 -1.4533 -0.8973  0.7478
   36POPC    C2 4798   0.021   1.844  10.224 -0.6597 -0.0961 -0.5358
   36POPC    HS 4799   0.008   1.779  10.134  1.3632  1.5419 -2.1213
   36POPC   O21 4800   0.157   1.890  10.230 -0.2790 -0.5504  0.2416
   36POPC   C21 4801   0.257   1.806  10.205  0.1690 -1.2497 -0.1113
   36POPC   O22 4802   0.244   1.696  10.167  0.1432  0.1739  0.4140
   36POPC   C22 4803   0.392   1.875  10.223  0.3559 -0.3029  0.3188
   36POPC   H2R 4804   0.456   1.794  10.181 -1.1012 -0.8676 -0.8809
   36POPC   H2S 4805   0.415   1.891  10.330  0.2459 -0.1076  0.3123
   36POPC    C3 4806  -0.075   1.961  10.223 -0.2812 -0.0645 -0.1100
   36POPC    HX 4807  -0.043   2.033  10.301  2.8865  0.1131 -1.3977
   36POPC    HY 4808  -0.177   1.937  10.258 -0.8527  1.2943 -0.7411
   36POPC   O31 4809  -0.072   2.033  10.098  0.0830 -0.3155 -0.6038
   36POPC   C31 4810  -0.001   2.146  10.094  0.1612  0.5846  0.1114
   36POPC   O32 4811   0.075   2.190  10.182  0.0054 -0.0309  0.3939
   36POPC   C32 4812  -0.020   2.210   9.962  0.1055 -0.3994 -0.5147
   36POPC   H2X 4813  -0.129   2.224   9.946 -0.0978 -0.3050  0.8464
   36POPC   H2Y 4814   0.025   2.136   9.892 -0.7539 -2.0937  0.6574
   36POPC   C23 4815   0.416   2.011  10.152  0.2067  0.0084 -0.0679
   36POPC   H3R 4816   0.503   2.057  10.201  0.0019 -1.1536  1.4463
   36POPC   H3S 4817   0.330   2.078  10.173 -0.2683 -0.3771 -0.7407
   36POPC   C24 4818   0.439   2.004  10.000  0.6765  1.1252  0.2166
   36POPC   H4R 4819   0.340   1.969   9.964  1.2846 -2.5422  1.6708
   36POPC   H4S 4820   0.513   1.926   9.972 -0.3080  0.9748 -2.1249
   36POPC   C25 4821   0.473   2.137   9.938  0.4155 -0.2288  0.2545
   36POPC   H5R 4822   0.572   2.187   9.943  0.5468  0.1357 -3.2992
   36POPC   H5S 4823   0.394   2.197   9.988  0.1365 -1.1479  0.9484
   36POPC   C26 4824   0.421   2.135   9.791 -1.0166 -1.2814 -0.2883
   36POPC   H6R 4825   0.419   2.240   9.754 -0.0055 -1.1814 -0.0956
   36POPC   H6S 4826   0.321   2.088   9.782 -1.4784 -0.3951  0.0510
   36POPC   C27 4827   0.530   2.061   9.699  0.0302  0.5886 -0.0694
   36POPC   H7R 4828   0.554   1.962   9.744  1.6429  1.8239  1.9366
   36POPC   H7S 4829   0.617   2.126   9.724  0.2038  0.5894 -0.6552
   36POPC   C28 4830   0.515   2.069   9.547 -0.6000  0.7159 -0.2274
   36POPC   H8R 4831   0.482   2.175   9.537  0.0212  1.3415  2.9896
   36POPC   H8S 4832   0.420   2.014   9.536 -1.2097  0.7866  3.3218
   36POPC   C29 4833   0.640   2.029   9.466  0.3928 -0.2094 -0.5609
   36POPC   H91 4834   0.727   2.045   9.532 -0.2623  0.5824  0.1419
   36POPC  C210 4835   0.643   1.958   9.351  0.0951 -0.4617  0.4499
   36POPC  H101 4836   0.740   1.936   9.303 -0.0728  0.4621 -0.3392
   36POPC  C211 4837   0.523   1.901   9.278  0.2704  0.0445  0.1060
   36POPC  H11R 4838   0.430   1.926   9.333  0.0401 -1.2582  0.3400
   36POPC  H11S 4839   0.532   1.790   9.269 -3.8253 -0.3725 -0.6755
   36POPC  C212 4840   0.526   1.946   9.136  0.6219 -0.5605 -0.6101
   36POPC  H12R 4841   0.610   1.909   9.074  0.7215 -0.5857 -0.4592
   36POPC  H12S 4842   0.498   2.054   9.132 -0.7256 -0.9051 -1.2448
   36POPC  C213 4843   0.409   1.892   9.056 -0.0956  0.8516 -0.2983
   36POPC  H13R 4844   0.316   1.948   9.080  0.4069  0.1761  3.9982
   36POPC  H13S 4845   0.391   1.794   9.105 -1.2057  1.1384 -0.1160
   36POPC  C214 4846   0.433   1.889   8.908  0.4101  0.5584  0.2584
   36POPC  H14R 4847   0.517   1.819   8.889  0.3240  1.0303 -2.2076
   36POPC  H14S 4848   0.449   1.989   8.863 -1.9013  0.7867 -0.1865
   36POPC  C215 4849   0.310   1.833   8.836 -0.1932 -0.5247 -0.8033
   36POPC  H15R 4850   0.222   1.900   8.847  1.4155  1.6631 -0.3387
   36POPC  H15S 4851   0.272   1.736   8.873 -3.7176  1.7514  2.2735
   36POPC  C216 4852   0.346   1.826   8.681  0.7911 -0.0612 -0.3662
   36POPC  H16R 4853   0.411   1.913   8.657 -0.3875  0.9523  0.0198
   36POPC  H16S 4854   0.258   1.846   8.616  1.4432  1.7622 -0.7579
   36POPC  C217 4855   0.400   1.690   8.632 -0.3000  0.1143 -0.2883
   36POPC  H17R 4856   0.320   1.614   8.643  0.6439 -0.9133 -0.2337
   36POPC  H17S 4857   0.491   1.665   8.690 -1.6423 -1.7723  1.1124
   36POPC  C218 4858   0.452   1.701   8.484  0.0224 -0.0977 -0.4864
   36POPC  H18R 4859   0.509   1.796   8.479  2.0825 -1.3252 -1.6673
   36POPC  H18S 4860   0.369   1.705   8.409 -0.1811  0.4737 -0.2432
   36POPC  H18T 4861   0.528   1.629   8.447  0.3797  0.7303 -1.4318
   36POPC   C33 4862   0.040   2.351   9.946 -0.0503 -1.1419  0.2306
   36POPC   H3X 4863   0.141   2.343   9.991 -1.2026 -1.6863  2.9047
   36POPC   H3Y 4864  -0.018   2.424  10.006  0.7657 -0.7095  0.5047
   36POPC   C34 4865   0.049   2.394   9.797  0.5300 -0.0200 -0.7326
   36POPC   H4X 4866  -0.049   2.432   9.759  1.3627  2.3960 -0.6577
   36POPC   H4Y 4867   0.087   2.307   9.739  0.8472 -0.1407 -0.3456
   36POPC   C35 4868   0.137   2.508   9.771  0.0825  0.1654 -0.7284
   36POPC   H5X 4869   0.241   2.492   9.807 -0.4122  0.9899  1.1927
   36POPC   H5Y 4870   0.096   2.599   9.819 -0.9878 -1.0473  0.7534
   36POPC   C36 4871   0.135   2.537   9.621  0.1046 -0.2859  0.1515
   36POPC   H6X 4872   0.182   2.638   9.623 -0.7573  0.1193  0.2298
   36POPC   H6Y 4873   0.032   2.545   9.581  0.2792 -0.4665 -0.3435
   36POPC   C37 4874   0.220   2.442   9.534 -0.2331  0.3277  1.2566
   36POPC   H7X 4875   0.165   2.346   9.523  0.7512 -0.4930  3.1545
   36POPC   H7Y 4876   0.317   2.427   9.585 -1.1246 -0.2705  2.8213
   36POPC   C38 4877   0.256   2.497   9.390 -0.4076 -0.2015 -0.2389
   36POPC   H8X 4878   0.298   2.598   9.408 -2.5738  0.5262  1.1777
   36POPC   H8Y 4879   0.157   2.511   9.341  0.0043  0.2116 -0.9598
   36POPC   C39 4880   0.346   2.406   9.298 -0.2572 -0.2900 -0.7282
   36POPC   H9X 4881   0.301   2.304   9.308 -1.0081  0.2661  3.2030
   36POPC   H9Y 4882   0.452   2.408   9.330 -0.4957 -1.4102  0.2402
   36POPC  C310 4883   0.340   2.442   9.149  0.1581 -0.4811 -0.2002
   36POPC  H10X 4884   0.367   2.547   9.127 -1.3088 -0.3421 -1.5074
   36POPC  H10Y 4885   0.231   2.433   9.130 -0.6439  0.3150  3.3533
   36POPC  C311 4886   0.426   2.348   9.067 -0.3652  0.9448  0.0155
   36POPC  H11X 4887   0.399   2.243   9.095  0.5583  0.6731 -0.0910
   36POPC  H11Y 4888   0.533   2.357   9.094 -0.5639  1.2764  0.7402
   36POPC  C312 4889   0.409   2.348   8.924  0.2103  0.0076  0.4660
   36POPC  H12X 4890   0.460   2.259   8.882  0.7147  0.4661  0.0893
   36POPC  H12Y 4891   0.458   2.431   8.868 -0.3888  2.4494  3.3054
   36POPC  C313 4892   0.258   2.349   8.874  0.7794 -0.1485 -0.3546
   36POPC  H13X 4893   0.216   2.450   8.894 -0.1665 -0.4716 -0.6506
   36POPC  H13Y 4894   0.210   2.277   8.944 -0.1141  0.5434 -0.2378
   36POPC  C314 4895   0.237   2.288   8.737  0.0689 -0.5616 -0.0889
   36POPC  H14X 4896   0.322   2.217   8.726  0.4452 -0.2268  0.5596
   36POPC  H14Y 4897   0.255   2.379   8.677 -1.1614  0.5122  1.0954
   36POPC  C315 4898   0.101   2.212   8.720 -0.1354 -0.3208  0.1003
   36POPC  H15X 4899   0.022   2.290   8.728 -1.2431 -0.5911 -4.8951
   36POPC  H15Y 4900   0.098   2.134   8.800  4.1376 -0.6275  0.2001
   36POPC  C316 4901   0.089   2.161   8.588 -0.2983  0.2181 -0.9084
   36POPC  H16X 4902  -0.017   2.149   8.559  0.1112  2.0171 -3.4596
   36POPC  H16Y 4903   0.138   2.062   8.578 -1.5235 -0.7873  1.9338
   36POPC  H16Z 4904   0.131   2.236   8.517  0.1623  1.8025  0.9246
   37POPC     N 4905   5.319   3.348   6.381 -0.5646 -0.4623 -0.0460
   37POPC   C12 4906   5.220   3.332   6.495  0.0588  0.7128 -0.0029
   37POPC  H12A 4907   5.152   3.416   6.501  3.2120  3.5533 -0.5594
   37POPC  H12B 4908   5.274   3.340   6.588  1.5506  1.9216 -0.9273
   37POPC   C13 4909   5.419   3.241   6.367 -0.2449 -0.3680  0.0142
   37POPC  H13A 4910   5.493   3.259   6.290  3.4636 -0.0951  3.2994
   37POPC  H13B 4911   5.474   3.227   6.459  1.2127 -1.3568 -0.9599
   37POPC  H13C 4912   5.368   3.150   6.338  1.2697 -1.1254 -0.4210
   37POPC   C14 4913   5.243   3.351   6.255 -0.7264 -0.2371  0.0234
   37POPC  H14A 4914   5.321   3.352   6.180  0.7950  5.1307  1.2996
   37POPC  H14B 4915   5.192   3.258   6.232 -1.4014  0.6438 -2.3844
   37POPC  H14C 4916   5.178   3.436   6.244 -1.8790 -0.9408  1.1520
   37POPC   C15 4917   5.398   3.467   6.400 -0.0144 -0.7539 -0.8231
   37POPC  H15A 4918   5.472   3.489   6.325  0.5078  0.1856 -0.0516
   37POPC  H15B 4919   5.462   3.455   6.486 -0.6381 -1.6861 -0.4784
   37POPC  H15C 4920   5.337   3.555   6.418  1.6713  0.5072 -1.0611
   37POPC   C11 4921   5.150   3.188   6.504  0.3499 -0.1894  0.5753
   37POPC  H11A 4922   5.112   3.166   6.402 -0.6309 -1.6357  1.2114
   37POPC  H11B 4923   5.058   3.200   6.565 -1.8487  0.4542 -2.6060
   37POPC     P 4924   5.306   3.068   6.680 -0.4665 -0.1956  0.1480
   37POPC   O13 4925   5.449   3.044   6.652 -0.0645  0.1322 -0.5574
   37POPC   O14 4926   5.233   2.966   6.767 -0.2560  0.5096  0.2875
   37POPC   O12 4927   5.238   3.083   6.542  0.6034  0.5172  0.9156
   37POPC   O11 4928   5.293   3.218   6.738  0.0807  0.4208 -0.5915
   37POPC    C1 4929   5.209   3.236   6.854 -0.1233 -0.1108 -0.8967
   37POPC    HA 4930   5.207   3.153   6.927 -0.7264 -0.0297 -0.8180
   37POPC    HB 4931   5.105   3.261   6.824 -0.1767 -1.3310 -1.7931
   37POPC    C2 4932   5.267   3.346   6.944 -0.0609  0.3224  0.4993
   37POPC    HS 4933   5.285   3.438   6.885  1.2230  0.3142  0.8573
   37POPC   O21 4934   5.395   3.298   6.989  0.0028 -0.3643  0.1418
   37POPC   C21 4935   5.470   3.390   7.034 -0.3665  0.3917 -0.5910
   37POPC   O22 4936   5.446   3.509   7.041 -0.7255 -0.1135  0.8037
   37POPC   C22 4937   5.598   3.330   7.082 -0.1521 -0.6705 -0.2035
   37POPC   H2R 4938   5.635   3.401   7.159  1.2085  0.4764 -1.8326
   37POPC   H2S 4939   5.671   3.332   6.998  0.0137  1.2917 -0.0536
   37POPC    C3 4940   5.177   3.386   7.058  0.0967  0.4089  0.5394
   37POPC    HX 4941   5.092   3.420   6.995 -0.7334  1.0570  1.9607
   37POPC    HY 4942   5.214   3.469   7.122  2.7672 -1.6184  1.8149
   37POPC   O31 4943   5.130   3.268   7.138 -0.5573  0.5047  0.4955
   37POPC   C31 4944   5.045   3.287   7.234 -0.1533  0.0294 -0.4075
   37POPC   O32 4945   4.992   3.393   7.259 -0.0491  0.1113 -0.1198
   37POPC   C32 4946   5.015   3.163   7.311 -0.1869 -0.1642  0.5798
   37POPC   H2X 4947   5.087   3.085   7.277  1.4514  1.3069  0.5204
   37POPC   H2Y 4948   4.910   3.132   7.299  0.3919 -1.9270 -0.2309
   37POPC   C23 4949   5.585   3.179   7.132 -0.1707  0.2613 -0.0356
   37POPC   H3R 4950   5.688   3.138   7.138  0.5648  2.1658  1.2558
   37POPC   H3S 4951   5.523   3.115   7.065  1.7441 -1.6217 -0.1176
   37POPC   C24 4952   5.510   3.171   7.267  0.0241 -0.6269  0.0855
   37POPC   H4R 4953   5.404   3.202   7.259  0.7449  2.2933  0.5339
   37POPC   H4S 4954   5.553   3.252   7.331  1.0134  0.4381 -1.8376
   37POPC   C25 4955   5.522   3.038   7.341  0.3705 -0.6923 -0.3760
   37POPC   H5R 4956   5.626   3.000   7.336 -0.1391 -2.1235 -0.8893
   37POPC   H5S 4957   5.449   2.970   7.291 -1.3878 -0.7893  2.1372
   37POPC   C26 4958   5.475   3.049   7.486  0.0494 -0.4915  0.3899
   37POPC   H6R 4959   5.431   2.950   7.507  0.4249 -0.8490 -0.4504
   37POPC   H6S 4960   5.395   3.126   7.496 -0.6195 -0.7490 -2.2416
   37POPC   C27 4961   5.594   3.067   7.586  0.1297 -0.9512  0.2492
   37POPC   H7R 4962   5.651   3.149   7.539  0.6847 -1.0979  0.6623
   37POPC   H7S 4963   5.660   2.978   7.578  0.5955 -0.7986  2.1189
   37POPC   C28 4964   5.558   3.090   7.730 -0.1077 -0.1699 -0.6049
   37POPC   H8R 4965   5.481   3.169   7.734 -0.7379 -0.6208 -2.6166
   37POPC   H8S 4966   5.639   3.112   7.803  0.1271 -1.4469 -0.4541
   37POPC   C29 4967   5.490   2.968   7.796 -0.5711 -0.4445 -0.5402
   37POPC   H91 4968   5.392   2.932   7.762 -1.2540  0.7156  0.1499
   37POPC  C210 4969   5.524   2.901   7.907  0.2804 -0.1766  0.5723
   37POPC  H101 4970   5.464   2.819   7.949 -0.7461 -0.9992 -2.2319
   37POPC  C211 4971   5.647   2.932   7.988  0.3995  0.3050 -0.9805
   37POPC  H11R 4972   5.729   2.962   7.919  0.9713 -1.6821 -1.2163
   37POPC  H11S 4973   5.684   2.836   8.031 -0.9270  0.3826  0.3878
   37POPC  C212 4974   5.620   3.033   8.100  0.8262 -0.7791 -0.7320
   37POPC  H12R 4975   5.558   2.975   8.172  0.9883 -1.5723 -1.2174
   37POPC  H12S 4976   5.560   3.110   8.047  2.1256 -0.4170 -1.7164
   37POPC  C213 4977   5.742   3.095   8.149  0.4523 -0.3080 -0.8549
   37POPC  H13R 4978   5.805   3.133   8.066  1.1564 -0.2997 -0.3340
   37POPC  H13S 4979   5.801   3.021   8.208  0.8127  1.7249  1.5265
   37POPC  C214 4980   5.716   3.221   8.244 -0.0716  0.2725 -0.7453
   37POPC  H14R 4981   5.647   3.185   8.324 -0.3236 -0.2555 -1.1987
   37POPC  H14S 4982   5.662   3.304   8.194 -1.2012  0.3096  0.4571
   37POPC  C215 4983   5.850   3.282   8.299  0.2024 -0.3260 -0.4384
   37POPC  H15R 4984   5.922   3.265   8.217 -0.4198 -0.1650 -1.0314
   37POPC  H15S 4985   5.884   3.242   8.397 -1.6959  1.4536  1.0603
   37POPC  C216 4986   5.832   3.432   8.328  0.2653 -0.3003  0.5195
   37POPC  H16R 4987   5.743   3.437   8.395 -0.1027 -0.5291  0.0534
   37POPC  H16S 4988   5.809   3.494   8.239  0.0472  0.6615  1.2399
   37POPC  C217 4989   5.950   3.480   8.415  0.2467 -0.5163  0.6633
   37POPC  H17R 4990   6.043   3.440   8.370 -0.5577 -0.4250 -1.1807
   37POPC  H17S 4991   5.932   3.437   8.516  1.3696 -0.2578  0.9801
   37POPC  C218 4992   5.958   3.633   8.410  0.0992  0.2949 -0.0925
   37POPC  H18R 4993   5.863   3.683   8.437 -1.2145 -2.1254  0.0072
   37POPC  H18S 4994   5.990   3.664   8.308 -2.3659  0.2072 -0.9598
   37POPC  H18T 4995   6.035   3.669   8.483  0.5059 -3.1598  1.3659
   37POPC   C33 4996   5.038   3.180   7.461  0.1365 -0.0592  0.6768
   37POPC   H3X 4997   4.975   3.267   7.488 -1.5742 -0.2370 -2.3163
   37POPC   H3Y 4998   5.142   3.214   7.477 -0.0277  0.6489  0.2840
   37POPC   C34 4999   5.019   3.050   7.538 -0.1197 -0.0291 -0.1279
   37POPC   H4X 5000   5.103   2.989   7.497  0.2974  0.1158  0.5068
   37POPC   H4Y 5001   4.926   3.004   7.499  0.5021 -2.7694  1.3397
   37POPC   C35 5002   5.011   3.062   7.689 -0.4127 -0.3259  0.3367
   37POPC   H5X 5003   4.997   2.962   7.736 -0.0739  0.7957  2.9789
   37POPC   H5Y 5004   4.930   3.126   7.730  1.0017  0.3294  2.2044
   37POPC   C36 5005   5.132   3.124   7.762 -0.1732  0.1380  0.0648
   37POPC   H6X 5006   5.145   3.233   7.744  1.4918  0.0333  0.4721
   37POPC   H6Y 5007   5.226   3.081   7.720 -0.4000  0.1520 -0.4610
   37POPC   C37 5008   5.138   3.102   7.916 -1.0578 -0.6719 -0.1160
   37POPC   H7X 5009   5.124   2.997   7.950 -3.0676 -0.0544  1.1287
   37POPC   H7Y 5010   5.043   3.150   7.947 -1.9856 -2.4889 -0.0413
   37POPC   C38 5011   5.258   3.180   7.988  0.1999  0.6108  0.0997
   37POPC   H8X 5012   5.254   3.289   7.964 -0.0803  0.6590  0.3623
   37POPC   H8Y 5013   5.347   3.131   7.943  0.2669  0.0770  0.8031
   37POPC   C39 5014   5.261   3.161   8.145  0.2610  0.5143  0.9456
   37POPC   H9X 5015   5.313   3.067   8.173 -0.6887 -0.7079 -1.1704
   37POPC   H9Y 5016   5.156   3.172   8.182 -0.1194 -0.9184  0.3607
   37POPC  C310 5017   5.339   3.279   8.219 -0.5574  0.5986  0.6586
   37POPC  H10X 5018   5.282   3.372   8.201 -0.2702  0.2295 -2.8511
   37POPC  H10Y 5019   5.441   3.284   8.176 -0.5070 -2.4942  0.2056
   37POPC  C311 5020   5.363   3.264   8.373 -0.1095 -0.3144 -0.3666
   37POPC  H11X 5021   5.417   3.170   8.397  1.4126  1.0476  1.8696
   37POPC  H11Y 5022   5.272   3.263   8.436  0.0722  0.0102 -0.0950
   37POPC  C312 5023   5.438   3.382   8.438  0.0185  0.1417  0.2548
   37POPC  H12X 5024   5.540   3.393   8.394 -0.7322  2.3415 -1.0973
   37POPC  H12Y 5025   5.446   3.380   8.549 -1.6460  1.0497  0.4212
   37POPC  C313 5026   5.358   3.520   8.424 -0.7713  0.7069  0.6127
   37POPC  H13X 5027   5.255   3.484   8.446 -1.4328  1.9236 -0.3279
   37POPC  H13Y 5028   5.361   3.557   8.319 -2.6331  0.2498  0.3560
   37POPC  C314 5029   5.397   3.637   8.516 -0.0940 -0.1203 -0.5322
   37POPC  H14X 5030   5.492   3.680   8.477 -0.7250  1.7536 -0.0883
   37POPC  H14Y 5031   5.428   3.602   8.617  0.6278  1.1723 -0.2838
   37POPC  C315 5032   5.300   3.746   8.531 -0.1312 -0.1140 -0.0439
   37POPC  H15X 5033   5.203   3.707   8.570 -0.4845  0.3061 -0.4876
   37POPC  H15Y 5034   5.276   3.776   8.427 -0.5107  0.2407  0.1415
   37POPC  C316 5035   5.347   3.861   8.624  0.2443  0.1317 -0.3785
   37POPC  H16X 5036   5.264   3.934   8.632 -0.0532 -0.3313  0.9871
   37POPC  H16Y 5037   5.435   3.911   8.580 -0.8496  3.0443  0.5353
   37POPC  H16Z 5038   5.385   3.818   8.719  3.8834  2.7316 -0.4898
   38POPC     N 5039   0.280   2.536   6.472 -0.0641  0.1907  1.4005
   38POPC   C12 5040   0.170   2.535   6.578  0.0969  0.6360  0.8038
   38POPC  H12A 5041   0.104   2.615   6.548  0.5511  1.3372  1.6304
   38POPC  H12B 5042   0.218   2.556   6.672  2.2747 -2.2318  0.4877
   38POPC   C13 5043   0.222   2.522   6.334  0.0887 -0.0864 -0.5912
   38POPC  H13A 5044   0.284   2.564   6.256  0.1748 -1.0900 -1.0767
   38POPC  H13B 5045   0.199   2.419   6.312  2.0675  0.1233 -4.4664
   38POPC  H13C 5046   0.126   2.570   6.331  0.1325 -0.0073 -0.7275
   38POPC   C14 5047   0.346   2.672   6.477 -0.2279  0.5096 -0.7953
   38POPC  H14A 5048   0.276   2.753   6.464 -1.9989 -1.0747 -1.5557
   38POPC  H14B 5049   0.397   2.680   6.572  1.1338 -0.8664 -1.3568
   38POPC  H14C 5050   0.421   2.685   6.400 -0.6220  0.8546 -1.1223
   38POPC   C15 5051   0.387   2.434   6.489  0.3324 -0.4394  0.3707
   38POPC  H15A 5052   0.426   2.432   6.590  1.6940  0.8615 -0.0901
   38POPC  H15B 5053   0.466   2.443   6.417 -0.9617  1.4073 -0.9095
   38POPC  H15C 5054   0.354   2.333   6.469  0.1747 -0.1292 -1.0112
   38POPC   C11 5055   0.093   2.400   6.597  0.1484 -0.7608  0.5232
   38POPC  H11A 5056   0.058   2.393   6.702  0.8309  0.9101  0.8873
   38POPC  H11B 5057   0.162   2.315   6.577  2.5504  1.0725  0.5962
   38POPC     P 5058  -0.039   2.273   6.406 -0.3210 -0.6160 -0.3163
   38POPC   O13 5059   0.082   2.265   6.316 -0.3853 -0.9700  0.2998
   38POPC   O14 5060  -0.172   2.284   6.346  0.2027 -0.1263 -0.1845
   38POPC   O12 5061  -0.020   2.394   6.505 -0.2003  0.4245 -0.3069
   38POPC   O11 5062  -0.045   2.145   6.506  0.1647  0.1818 -0.0635
   38POPC    C1 5063  -0.145   2.148   6.610 -0.5009 -0.3749  0.2148
   38POPC    HA 5064  -0.249   2.134   6.574  0.5097 -2.2764 -2.3608
   38POPC    HB 5065  -0.142   2.248   6.658 -1.9167 -0.0934 -0.2366
   38POPC    C2 5066  -0.122   2.030   6.710 -0.2435 -0.2642 -0.5395
   38POPC    HS 5067  -0.182   2.059   6.799 -0.6527 -0.4880 -0.7405
   38POPC   O21 5068   0.017   2.013   6.739  0.0011 -0.0603 -0.1303
   38POPC   C21 5069   0.084   2.105   6.809  0.1174  0.1705 -0.2802
   38POPC   O22 5070   0.042   2.197   6.875  0.0367 -0.3920  0.2235
   38POPC   C22 5071   0.231   2.061   6.812 -0.5719  0.2011  0.1061
   38POPC   H2R 5072   0.278   2.089   6.715  0.3141 -0.2617  0.3899
   38POPC   H2S 5073   0.243   1.953   6.835  2.2033 -0.2406 -2.6916
   38POPC    C3 5074  -0.175   1.902   6.653  0.2040  0.2410  0.6567
   38POPC    HX 5075  -0.144   1.895   6.546 -0.5445  3.1373  0.1517
   38POPC    HY 5076  -0.286   1.909   6.659  0.0279 -1.6105  0.0260
   38POPC   O31 5077  -0.137   1.792   6.726 -0.0712  0.2250 -0.2629
   38POPC   C31 5078  -0.026   1.720   6.695 -0.5305  0.3746  0.1125
   38POPC   O32 5079   0.046   1.731   6.601 -0.1514 -0.6628  0.4929
   38POPC   C32 5080   0.002   1.621   6.797  0.2640  0.3400  0.1842
   38POPC   H2X 5081   0.046   1.526   6.762 -0.2280 -0.1269  0.8094
   38POPC   H2Y 5082  -0.100   1.593   6.832 -0.2266 -0.0485 -1.4910
   38POPC   C23 5083   0.313   2.126   6.930  1.0017  0.9375  0.0196
   38POPC   H3R 5084   0.288   2.234   6.935  0.1335  0.7280  0.3875
   38POPC   H3S 5085   0.418   2.112   6.898  1.3629 -0.4454  1.6854
   38POPC   C24 5086   0.281   2.062   7.066  1.0031 -0.4423  0.2132
   38POPC   H4R 5087   0.266   1.955   7.043  0.0469 -0.8174  2.3810
   38POPC   H4S 5088   0.186   2.100   7.108  1.1549  1.3183 -0.9360
   38POPC   C25 5089   0.388   2.094   7.169 -0.1551 -0.2261  0.4091
   38POPC   H5R 5090   0.406   2.203   7.178 -1.0268  0.0644 -0.9839
   38POPC   H5S 5091   0.485   2.057   7.128 -0.0511 -0.8412  1.1756
   38POPC   C26 5092   0.365   2.028   7.305  0.2351 -0.2834 -0.3407
   38POPC   H6R 5093   0.360   1.919   7.285  3.0361 -0.7704  1.0276
   38POPC   H6S 5094   0.269   2.064   7.348 -0.3814 -0.7235 -1.3148
   38POPC   C27 5095   0.476   2.064   7.407  0.1005  0.5506 -0.0028
   38POPC   H7R 5096   0.485   2.173   7.421  1.1309  0.4627  0.0862
   38POPC   H7S 5097   0.569   2.023   7.363 -1.0189 -1.8888 -0.2807
   38POPC   C28 5098   0.437   2.008   7.545 -0.1778 -0.1126 -0.0633
   38POPC   H8R 5099   0.402   1.904   7.526  3.0184 -1.0224 -1.7727
   38POPC   H8S 5100   0.361   2.073   7.593  0.3339  0.4182  0.0344
   38POPC   C29 5101   0.563   2.011   7.623 -0.4281 -0.0455  0.0491
   38POPC   H91 5102   0.638   2.082   7.584  0.3432 -0.7709  0.1730
   38POPC  C210 5103   0.594   1.958   7.745  0.6187 -0.0395 -0.2091
   38POPC  H101 5104   0.694   1.976   7.786  1.8403 -1.5999 -2.2482
   38POPC  C211 5105   0.503   1.874   7.829 -0.2342  0.1542 -0.7445
   38POPC  H11R 5106   0.561   1.785   7.863  1.8483  0.2942 -3.5141
   38POPC  H11S 5107   0.417   1.833   7.772 -2.0332  1.1117  1.1677
   38POPC  C212 5108   0.447   1.945   7.953  0.0094  0.1893  0.3664
   38POPC  H12R 5109   0.392   2.030   7.907 -0.1776 -1.0830 -1.9032
   38POPC  H12S 5110   0.529   1.974   8.022  0.3125  0.0840  0.0478
   38POPC  C213 5111   0.350   1.854   8.016  0.3111  0.2972 -0.2666
   38POPC  H13R 5112   0.401   1.760   8.046 -2.3612 -1.3613 -0.5378
   38POPC  H13S 5113   0.261   1.830   7.953  0.1041 -0.8977  0.4505
   38POPC  C214 5114   0.281   1.922   8.138 -0.9049 -0.1468 -0.4147
   38POPC  H14R 5115   0.227   2.016   8.109 -0.3600  0.0371 -0.8445
   38POPC  H14S 5116   0.364   1.943   8.208  0.7452 -0.9157 -2.0831
   38POPC  C215 5117   0.172   1.830   8.197 -0.0287  0.2607 -0.5337
   38POPC  H15R 5118   0.217   1.731   8.217  1.0703  1.0075  0.7972
   38POPC  H15S 5119   0.099   1.805   8.116 -0.1055 -1.2401 -0.0377
   38POPC  C216 5120   0.095   1.881   8.320 -0.3156  0.6450  0.2072
   38POPC  H16R 5121   0.041   1.972   8.287 -1.0168  0.5507  1.0653
   38POPC  H16S 5122   0.173   1.913   8.393  0.1250  2.6984 -1.0763
   38POPC  C217 5123  -0.014   1.790   8.378  0.9155 -0.2961 -0.3577
   38POPC  H17R 5124  -0.082   1.757   8.297  0.5339  0.3075 -0.2841
   38POPC  H17S 5125  -0.076   1.853   8.445 -1.5826 -1.9278 -0.9589
   38POPC  C218 5126   0.040   1.658   8.449 -0.0477  0.2303 -0.5258
   38POPC  H18R 5127   0.104   1.693   8.533  0.2920 -1.8382  0.1585
   38POPC  H18S 5128   0.097   1.601   8.373  0.1021  1.5654 -1.4326
   38POPC  H18T 5129  -0.047   1.599   8.486 -0.9329  1.5316 -0.4560
   38POPC   C33 5130   0.086   1.675   6.918 -0.2061 -0.5421  0.1936
   38POPC   H3X 5131   0.141   1.759   6.870  0.3689 -2.1050 -2.0613
   38POPC   H3Y 5132   0.155   1.592   6.945  0.1406 -0.0519  0.8492
   38POPC   C34 5133   0.001   1.722   7.042 -0.3927 -0.0949 -0.3326
   38POPC   H4X 5134  -0.067   1.640   7.077 -1.0672  0.9858  0.9901
   38POPC   H4Y 5135  -0.066   1.801   7.003  1.2182  1.8668  0.7141
   38POPC   C35 5136   0.079   1.765   7.165 -0.0820  0.5213  0.4573
   38POPC   H5X 5137   0.055   1.864   7.209  0.4006  0.9351 -0.2000
   38POPC   H5Y 5138   0.187   1.762   7.142 -0.1589 -0.4351  0.1698
   38POPC   C36 5139   0.069   1.658   7.278  0.4633 -0.2189  0.2492
   38POPC   H6X 5140   0.106   1.563   7.233  1.2482  0.4168 -0.4939
   38POPC   H6Y 5141  -0.037   1.648   7.308 -0.5785  2.5595 -2.0206
   38POPC   C37 5142   0.153   1.696   7.399 -1.0288 -0.2986 -0.3607
   38POPC   H7X 5143   0.099   1.787   7.435  0.6082  0.3709  0.5170
   38POPC   H7Y 5144   0.252   1.730   7.363 -0.4973 -1.3278  0.0892
   38POPC   C38 5145   0.166   1.596   7.508 -0.3428 -0.2642 -0.1676
   38POPC   H8X 5146   0.227   1.509   7.475 -1.9613 -1.0085 -1.3418
   38POPC   H8Y 5147   0.073   1.542   7.536  0.6383 -2.1892 -0.4345
   38POPC   C39 5148   0.211   1.643   7.652 -0.2105  0.0580 -0.1155
   38POPC   H9X 5149   0.136   1.717   7.689  0.6807  0.3295  1.1793
   38POPC   H9Y 5150   0.310   1.691   7.635 -1.2839  1.9543 -1.4537
   38POPC  C310 5151   0.220   1.517   7.749 -0.2351 -0.2563 -0.2636
   38POPC  H10X 5152   0.275   1.438   7.694 -2.6419 -0.7440 -2.1220
   38POPC  H10Y 5153   0.124   1.466   7.775 -0.9970  0.3579 -1.7855
   38POPC  C311 5154   0.280   1.553   7.882 -0.4383  0.1015  0.5153
   38POPC  H11X 5155   0.202   1.624   7.916  1.0057  2.2220 -0.3958
   38POPC  H11Y 5156   0.370   1.614   7.857 -1.8137  2.4970  1.1524
   38POPC  C312 5157   0.301   1.430   7.970 -0.6997 -0.6309 -0.2264
   38POPC  H12X 5158   0.397   1.378   7.949  0.2896  1.4592 -1.1579
   38POPC  H12Y 5159   0.213   1.365   7.952  0.4450 -1.7898 -1.9657
   38POPC  C313 5160   0.306   1.470   8.116  0.1388  0.2045 -0.6878
   38POPC  H13X 5161   0.215   1.532   8.130 -0.5325 -1.0756  0.9046
   38POPC  H13Y 5162   0.396   1.521   8.157  0.4060 -0.5327 -0.3442
   38POPC  C314 5163   0.290   1.346   8.205  0.4257  0.7748 -0.1865
   38POPC  H14X 5164   0.346   1.265   8.155 -2.4810 -0.1391 -2.2452
   38POPC  H14Y 5165   0.189   1.299   8.198 -0.0720  1.8977 -0.9458
   38POPC  C315 5166   0.330   1.360   8.354  0.3216 -0.3500 -0.3936
   38POPC  H15X 5167   0.279   1.447   8.401 -1.5206  1.1105 -4.5590
   38POPC  H15Y 5168   0.437   1.389   8.342  0.6965 -2.3239 -2.5561
   38POPC  C316 5169   0.306   1.229   8.430 -0.0587 -0.4950  0.2696
   38POPC  H16X 5170   0.386   1.214   8.506 -0.6626  1.1259  1.2741
   38POPC  H16Y 5171   0.315   1.146   8.357  0.4517 -1.2276  1.1369
   38POPC  H16Z 5172   0.205   1.224   8.476  0.3210 -1.0118  1.0683
   39POPC     N 5173   6.735   5.455   6.068  0.0851  0.0891 -0.7154
   39POPC   C12 5174   6.750   5.560   6.187  0.6954  0.1603 -0.1231
   39POPC  H12A 5175   6.650   5.583   6.218  1.4456  0.9296  1.9066
   39POPC  H12B 5176   6.798   5.649   6.147  0.7334 -0.9205 -2.6346
   39POPC   C13 5177   6.678   5.332   6.125 -0.1338  0.1420 -0.1838
   39POPC  H13A 5178   6.684   5.249   6.056  2.4848 -1.0929  1.3918
   39POPC  H13B 5179   6.739   5.295   6.206  0.2402  0.6152 -0.2418
   39POPC  H13C 5180   6.579   5.355   6.159  0.2741 -1.7796  2.5970
   39POPC   C14 5181   6.638   5.517   5.963 -0.1399 -0.1253  0.0570
   39POPC  H14A 5182   6.612   5.443   5.888 -2.7504  1.4571 -0.7754
   39POPC  H14B 5183   6.539   5.547   5.995 -1.4894  1.0295 -4.3909
   39POPC  H14C 5184   6.695   5.600   5.923 -1.2400  0.9894  0.7309
   39POPC   C15 5185   6.863   5.418   6.003 -0.3445 -0.0366 -0.2076
   39POPC  H15A 5186   6.899   5.506   5.952 -0.5439 -0.0858 -0.4336
   39POPC  H15B 5187   6.860   5.337   5.932  1.8798 -0.1069 -0.2823
   39POPC  H15C 5188   6.937   5.391   6.076  0.9774  1.1929 -1.0314
   39POPC   C11 5189   6.830   5.519   6.317  0.2142 -0.8379  0.9349
   39POPC  H11A 5190   6.770   5.442   6.371 -0.6299 -2.4203 -2.0885
   39POPC  H11B 5191   6.823   5.612   6.378 -1.2267  0.6101 -1.2955
   39POPC     P 5192   7.081   5.586   6.255 -0.2666  0.0616  0.2323
   39POPC   O13 5193   7.015   5.696   6.184 -0.0051  0.1944  0.1706
   39POPC   O14 5194   7.207   5.528   6.188 -0.3404  0.0387  0.4047
   39POPC   O12 5195   6.966   5.477   6.280 -0.1327 -0.0766 -0.2654
   39POPC   O11 5196   7.131   5.641   6.398  0.2320 -0.7685  0.1111
   39POPC    C1 5197   7.172   5.562   6.502 -0.0652 -0.0856  0.3728
   39POPC    HA 5198   7.269   5.597   6.544 -0.2220  0.0909  0.5890
   39POPC    HB 5199   7.193   5.461   6.462 -2.3369 -0.0164 -1.1997
   39POPC    C2 5200   7.064   5.555   6.613  0.8282  0.2462 -0.3971
   39POPC    HS 5201   6.981   5.495   6.570  0.2209  1.7249 -1.3381
   39POPC   O21 5202   7.026   5.688   6.649 -0.0944  0.5846 -0.9821
   39POPC   C21 5203   6.897   5.700   6.675 -0.3335  0.1857 -0.3080
   39POPC   O22 5204   6.810   5.615   6.669 -0.1663 -0.0887  0.0605
   39POPC   C22 5205   6.881   5.849   6.718 -0.0030  0.5032  0.1925
   39POPC   H2R 5206   6.862   5.902   6.623  1.2978  1.2856  0.3375
   39POPC   H2S 5207   6.974   5.888   6.765  0.0274 -0.3385  0.8614
   39POPC    C3 5208   7.126   5.486   6.728  0.0421 -0.8512 -0.5089
   39POPC    HX 5209   7.232   5.510   6.750  0.2551 -1.5220 -0.7915
   39POPC    HY 5210   7.128   5.379   6.697 -1.1090 -1.1145  0.2492
   39POPC   O31 5211   7.055   5.499   6.856 -0.2544 -0.1099  0.3725
   39POPC   C31 5212   6.984   5.399   6.894  0.0056  0.5097 -0.1580
   39POPC   O32 5213   6.947   5.301   6.828  0.5479 -0.3342 -0.8508
   39POPC   C32 5214   6.954   5.423   7.042 -0.2221  0.2658 -0.0447
   39POPC   H2X 5215   7.055   5.425   7.088 -0.6424 -1.3951  1.0282
   39POPC   H2Y 5216   6.905   5.522   7.054 -0.3945  0.2734 -0.7609
   39POPC   C23 5217   6.757   5.871   6.810  0.8712 -0.2626  0.4353
   39POPC   H3R 5218   6.671   5.817   6.764 -0.3624 -0.1031  2.4182
   39POPC   H3S 5219   6.735   5.979   6.802 -2.2863 -0.8802 -0.7780
   39POPC   C24 5220   6.787   5.831   6.948  0.5386  0.1092 -0.6981
   39POPC   H4R 5221   6.896   5.842   6.967  0.6032 -0.5352 -0.6686
   39POPC   H4S 5222   6.749   5.727   6.958  0.5792  0.2357  1.1989
   39POPC   C25 5223   6.722   5.924   7.056  0.0643 -0.5301  0.7932
   39POPC   H5R 5224   6.617   5.923   7.022  0.1597  0.3860  0.4386
   39POPC   H5S 5225   6.767   6.024   7.038  1.7159 -0.9303  2.3245
   39POPC   C26 5226   6.749   5.891   7.204 -0.1154  0.5261 -0.2712
   39POPC   H6R 5227   6.699   5.973   7.260  1.0191  0.4471  0.9024
   39POPC   H6S 5228   6.855   5.917   7.223  0.1908 -0.1908 -0.8935
   39POPC   C27 5229   6.706   5.753   7.258 -0.3415 -0.1237  0.3402
   39POPC   H7R 5230   6.729   5.746   7.367 -2.9625  0.8624  1.0289
   39POPC   H7S 5231   6.769   5.679   7.204  0.7403  1.3802 -0.5228
   39POPC   C28 5232   6.555   5.720   7.245 -0.1966  0.4832 -0.3468
   39POPC   H8R 5233   6.520   5.728   7.140  0.7576 -2.5326 -0.9609
   39POPC   H8S 5234   6.492   5.795   7.299 -0.1988  0.4305 -0.2763
   39POPC   C29 5235   6.515   5.586   7.297  0.1078  0.3807  0.4122
   39POPC   H91 5236   6.532   5.503   7.227 -0.2473 -0.6127  1.4747
   39POPC  C210 5237   6.477   5.543   7.418  0.2995 -0.4020  0.0501
   39POPC  H101 5238   6.438   5.442   7.436 -0.7789  0.1408  0.9023
   39POPC  C211 5239   6.448   5.651   7.531  0.1244 -0.1809 -0.4465
   39POPC  H11R 5240   6.359   5.629   7.593  1.6687 -0.6131  1.7150
   39POPC  H11S 5241   6.441   5.756   7.495 -1.0571  0.1352  0.6528
   39POPC  C212 5242   6.564   5.652   7.633 -0.2911 -0.1299  0.2542
   39POPC  H12R 5243   6.647   5.690   7.569 -0.9979  1.0307 -0.0165
   39POPC  H12S 5244   6.583   5.548   7.665 -2.1365 -0.7769 -0.5972
   39POPC  C213 5245   6.549   5.748   7.751  0.3859 -0.0802 -0.9300
   39POPC  H13R 5246   6.456   5.722   7.806  2.2404 -3.6892  0.8476
   39POPC  H13S 5247   6.538   5.851   7.711  4.6319  1.1488  0.5434
   39POPC  C214 5248   6.674   5.736   7.836  0.8062 -0.3994  0.0620
   39POPC  H14R 5249   6.772   5.730   7.784  0.8338  0.3926  0.0086
   39POPC  H14S 5250   6.658   5.649   7.903 -1.5523  1.1565  1.6759
   39POPC  C215 5251   6.684   5.859   7.928  0.6945 -0.0008  0.1175
   39POPC  H15R 5252   6.596   5.858   7.995  0.1771  2.2055 -0.4477
   39POPC  H15S 5253   6.672   5.950   7.865 -1.9044 -0.1560  0.2896
   39POPC  C216 5254   6.812   5.877   8.009 -0.0176  0.3602 -0.5319
   39POPC  H16R 5255   6.900   5.869   7.942 -0.1218  2.0721 -0.9219
   39POPC  H16S 5256   6.824   5.792   8.080 -0.1082 -0.0351 -0.9833
   39POPC  C217 5257   6.812   6.016   8.065  0.1090 -0.8163 -0.0004
   39POPC  H17R 5258   6.726   6.041   8.131  2.3352 -0.1359  2.8255
   39POPC  H17S 5259   6.809   6.094   7.987  2.7590 -0.0070  0.6139
   39POPC  C218 5260   6.931   6.057   8.142 -0.2057  0.0201 -0.2489
   39POPC  H18R 5261   6.944   5.990   8.230 -1.7948 -0.2353 -0.1787
   39POPC  H18S 5262   6.913   6.156   8.189  0.7332 -0.6240  1.5416
   39POPC  H18T 5263   7.028   6.052   8.088  0.9731  0.5173  1.7565
   39POPC   C33 5264   6.868   5.310   7.088  0.6305  0.2931  0.3480
   39POPC   H3X 5265   6.923   5.213   7.080  1.9777  0.9335  1.4740
   39POPC   H3Y 5266   6.771   5.298   7.034  0.3151  0.6563  0.8225
   39POPC   C34 5267   6.825   5.320   7.239 -0.1821  0.4974 -1.5620
   39POPC   H4X 5268   6.755   5.239   7.268  0.0759  0.4541 -1.0532
   39POPC   H4Y 5269   6.777   5.418   7.262  0.0885  0.1020  0.9482
   39POPC   C35 5270   6.946   5.322   7.342 -0.5314  0.1659  0.8242
   39POPC   H5X 5271   7.010   5.409   7.319 -0.6811  0.5419  1.7926
   39POPC   H5Y 5272   7.000   5.226   7.327  0.3877  0.8405 -0.3215
   39POPC   C36 5273   6.907   5.338   7.490 -0.2658  0.0922  0.0521
   39POPC   H6X 5274   6.859   5.243   7.523 -1.1775  0.5433  0.0502
   39POPC   H6Y 5275   6.832   5.420   7.498 -0.5916 -0.2652  0.7422
   39POPC   C37 5276   7.023   5.370   7.582 -0.1686  0.2624 -0.5996
   39POPC   H7X 5277   7.072   5.467   7.558  2.0820 -0.6448  0.1192
   39POPC   H7Y 5278   7.096   5.287   7.578 -1.2771 -0.8236  0.6007
   39POPC   C38 5279   6.967   5.352   7.730  0.4604 -0.2986 -0.3463
   39POPC   H8X 5280   6.931   5.247   7.743 -3.8987  0.6433 -2.8525
   39POPC   H8Y 5281   6.871   5.405   7.747  1.0176  0.2612  1.2529
   39POPC   C39 5282   7.067   5.400   7.837 -0.0057 -0.1277 -0.1779
   39POPC   H9X 5283   7.117   5.492   7.800 -2.7738  1.8449  0.6456
   39POPC   H9Y 5284   7.143   5.322   7.859  0.5415 -0.0171 -1.5755
   39POPC  C310 5285   6.997   5.434   7.978  0.1161 -0.0368 -0.6272
   39POPC  H10X 5286   6.943   5.341   8.007  0.5814  0.1125  0.7670
   39POPC  H10Y 5287   6.917   5.510   7.957 -0.7835 -0.4160  1.2627
   39POPC  C311 5288   7.086   5.477   8.089 -0.2372  0.6913 -0.6876
   39POPC  H11X 5289   7.152   5.558   8.051  2.6259 -0.7096  0.9060
   39POPC  H11Y 5290   7.153   5.390   8.108 -0.0088  0.5584 -2.0035
   39POPC  C312 5291   6.998   5.529   8.208 -0.1080  0.5844 -0.0875
   39POPC  H12X 5292   6.945   5.437   8.239  0.8319  0.5811  1.6413
   39POPC  H12Y 5293   6.927   5.603   8.167  0.3301  1.2653  0.3584
   39POPC  C313 5294   7.077   5.583   8.322  0.1826 -0.1184  0.0860
   39POPC  H13X 5295   7.152   5.504   8.339  3.4712  2.2514 -2.1432
   39POPC  H13Y 5296   7.019   5.589   8.417 -0.6949  1.5404 -0.5080
   39POPC  C314 5297   7.139   5.715   8.283  0.8050 -0.2387 -0.7535
   39POPC  H14X 5298   7.062   5.794   8.268 -1.5693 -2.4678 -1.0431
   39POPC  H14Y 5299   7.205   5.705   8.194 -0.5566  2.4826 -2.2095
   39POPC  C315 5300   7.234   5.764   8.405  0.2971  0.0986  0.0166
   39POPC  H15X 5301   7.162   5.777   8.489 -0.0187 -1.9175  0.1045
   39POPC  H15Y 5302   7.261   5.870   8.382 -2.3654  0.6678 -0.7630
   39POPC  C316 5303   7.358   5.680   8.442 -0.2275 -0.4303  0.4970
   39POPC  H16X 5304   7.407   5.715   8.535  3.1849 -0.9642 -0.9536
   39POPC  H16Y 5305   7.433   5.687   8.360  0.9785  0.2583  1.6149
   39POPC  H16Z 5306   7.335   5.573   8.459  2.1439 -0.7584  2.0395
   40POPC     N 5307   2.508   4.466   6.347  0.7073  0.4043  0.1815
   40POPC   C12 5308   2.490   4.325   6.403 -0.5064  0.0204 -0.4200
   40POPC  H12A 5309   2.387   4.291   6.406 -0.0506 -1.7065 -2.2314
   40POPC  H12B 5310   2.537   4.330   6.500 -0.3792  1.9073 -0.5356
   40POPC   C13 5311   2.642   4.489   6.282 -0.6622  0.5748  0.1546
   40POPC  H13A 5312   2.649   4.586   6.235 -1.3778  0.0968 -0.9792
   40POPC  H13B 5313   2.724   4.467   6.349 -0.5624  0.4251 -0.0160
   40POPC  H13C 5314   2.649   4.420   6.199 -0.0425  0.0553  0.6212
   40POPC   C14 5315   2.410   4.482   6.236  0.2538  0.0047  0.2311
   40POPC  H14A 5316   2.420   4.578   6.189 -0.1375  0.8447  1.7848
   40POPC  H14B 5317   2.422   4.414   6.153 -0.5367  1.1836 -0.8748
   40POPC  H14C 5318   2.307   4.468   6.266 -0.6293  0.7542 -2.2777
   40POPC   C15 5319   2.491   4.568   6.450 -0.3696 -0.1207  0.3453
   40POPC  H15A 5320   2.515   4.666   6.413 -2.1111 -0.1404 -0.9446
   40POPC  H15B 5321   2.562   4.541   6.528 -0.7843  0.2475  0.8580
   40POPC  H15C 5322   2.391   4.557   6.491  0.1680 -1.7836  1.3523
   40POPC   C11 5323   2.546   4.204   6.321 -0.1142 -0.3462  0.9293
   40POPC  H11A 5324   2.528   4.114   6.384  3.0254 -0.8673  1.2641
   40POPC  H11B 5325   2.657   4.212   6.315 -0.2688  1.0271 -1.4290
   40POPC     P 5326   2.358   4.120   6.155 -0.0535 -0.3142 -0.0419
   40POPC   O13 5327   2.404   3.995   6.089 -0.0839 -0.7805  0.0159
   40POPC   O14 5328   2.268   4.210   6.079  0.4088  0.1893  0.1715
   40POPC   O12 5329   2.488   4.197   6.195 -0.0768  0.0180  0.3779
   40POPC   O11 5330   2.293   4.088   6.301 -0.4137 -0.7495  0.1759
   40POPC    C1 5331   2.258   3.961   6.343 -0.2926  0.3420  0.1858
   40POPC    HA 5332   2.280   3.880   6.270 -0.9782  1.3854 -1.2417
   40POPC    HB 5333   2.150   3.969   6.369 -0.4601  0.0030 -0.3824
   40POPC    C2 5334   2.317   3.918   6.485 -0.6959  1.0688  0.6953
   40POPC    HS 5335   2.243   3.840   6.511  0.9648 -0.6371  0.5775
   40POPC   O21 5336   2.325   4.029   6.578  0.0808  0.0299  0.3484
   40POPC   C21 5337   2.203   4.083   6.599  0.5769  0.4304 -0.6349
   40POPC   O22 5338   2.099   4.021   6.590 -0.4585  0.5262 -0.5544
   40POPC   C22 5339   2.209   4.226   6.653 -0.7284  0.1138 -0.1254
   40POPC   H2R 5340   2.115   4.284   6.637  0.3566  1.6694 -1.2342
   40POPC   H2S 5341   2.280   4.285   6.591 -0.2687  1.8191  1.9121
   40POPC    C3 5342   2.460   3.846   6.482 -0.1938  0.2517 -0.3155
   40POPC    HX 5343   2.531   3.922   6.443 -1.2601  1.5953  0.2719
   40POPC    HY 5344   2.459   3.762   6.409 -0.8762 -1.3072  1.4043
   40POPC   O31 5345   2.478   3.796   6.616 -0.6020 -0.0696  0.9232
   40POPC   C31 5346   2.573   3.848   6.677  0.6077  0.1207 -0.3538
   40POPC   O32 5347   2.662   3.914   6.626 -0.5100 -0.2780 -0.0499
   40POPC   C32 5348   2.563   3.817   6.832  0.1940  0.2005  0.0390
   40POPC   H2X 5349   2.666   3.815   6.873  0.6298 -0.8876 -1.0482
   40POPC   H2Y 5350   2.499   3.727   6.846  0.8799 -0.4414 -0.8373
   40POPC   C23 5351   2.238   4.228   6.808 -0.5711  0.1497  0.0448
   40POPC   H3R 5352   2.341   4.190   6.827 -0.9065 -0.9115 -0.1825
   40POPC   H3S 5353   2.166   4.171   6.870  0.5480 -0.7678  0.5332
   40POPC   C24 5354   2.217   4.370   6.865  0.3155  0.0963  0.1370
   40POPC   H4R 5355   2.107   4.375   6.876  0.3524  0.7126  0.2443
   40POPC   H4S 5356   2.242   4.444   6.786 -1.2353 -0.4658 -0.9196
   40POPC   C25 5357   2.309   4.407   6.987  0.7274  0.2680  0.5882
   40POPC   H5R 5358   2.286   4.512   7.015  0.6794  0.7634 -1.1883
   40POPC   H5S 5359   2.413   4.411   6.949  1.0455 -1.7677  1.1254
   40POPC   C26 5360   2.287   4.317   7.109  0.6710 -0.0662 -0.0319
   40POPC   H6R 5361   2.297   4.211   7.079 -2.0938 -0.5656  0.5208
   40POPC   H6S 5362   2.190   4.332   7.162  0.8463 -0.5535  0.4352
   40POPC   C27 5363   2.397   4.334   7.221  0.5523  0.4591 -0.0526
   40POPC   H7R 5364   2.389   4.434   7.269 -1.3760  0.3140  0.0200
   40POPC   H7S 5365   2.496   4.325   7.173  0.8701  2.2038  0.1958
   40POPC   C28 5366   2.391   4.226   7.332 -0.0959  0.7359 -0.8888
   40POPC   H8R 5367   2.385   4.128   7.280  1.6890  0.8348 -1.3335
   40POPC   H8S 5368   2.294   4.244   7.384  0.4082  0.5345  0.1459
   40POPC   C29 5369   2.502   4.236   7.430 -0.7115  0.0974 -0.6883
   40POPC   H91 5370   2.602   4.206   7.398  0.8210  1.9093  2.0378
   40POPC  C210 5371   2.504   4.284   7.554  0.7647 -0.3160 -0.2346
   40POPC  H101 5372   2.606   4.282   7.597  0.2113 -0.4854  1.1277
   40POPC  C211 5373   2.391   4.349   7.629  0.4717  0.1646 -0.0531
   40POPC  H11R 5374   2.289   4.320   7.596  0.8693 -2.8381  1.0931
   40POPC  H11S 5375   2.398   4.460   7.621  2.2104  0.0140 -1.1040
   40POPC  C212 5376   2.402   4.306   7.779 -0.1015  0.0140 -0.0897
   40POPC  H12R 5377   2.502   4.322   7.824  1.1235 -1.0753 -2.2515
   40POPC  H12S 5378   2.407   4.196   7.791  0.5556 -0.0571 -0.9314
   40POPC  C213 5379   2.309   4.385   7.869 -0.0695 -0.7286  0.2797
   40POPC  H13R 5380   2.345   4.490   7.872  1.1156 -1.0212 -1.8760
   40POPC  H13S 5381   2.323   4.355   7.976  0.0082 -2.4913 -0.1984
   40POPC  C214 5382   2.159   4.368   7.838  0.4925 -0.2383  0.2780
   40POPC  H14R 5383   2.122   4.267   7.862 -1.4820 -0.4191 -2.9166
   40POPC  H14S 5384   2.130   4.396   7.734 -1.7460 -1.4359  0.5244
   40POPC  C215 5385   2.071   4.460   7.926  0.3386 -0.3563 -0.1022
   40POPC  H15R 5386   2.087   4.566   7.898  0.0270 -0.7482 -1.8621
   40POPC  H15S 5387   2.114   4.448   8.028 -0.5508 -0.1031  0.3106
   40POPC  C216 5388   1.918   4.423   7.930 -0.1887 -0.5975  0.4329
   40POPC  H16R 5389   1.923   4.315   7.905  4.4559 -0.0287 -2.1981
   40POPC  H16S 5390   1.865   4.480   7.851 -1.0559  1.5314  2.4386
   40POPC  C217 5391   1.854   4.465   8.064 -1.1037  0.2601  0.3451
   40POPC  H17R 5392   1.891   4.399   8.145  3.9652  0.2316 -1.6645
   40POPC  H17S 5393   1.745   4.449   8.044 -0.5448 -0.8847 -2.1262
   40POPC  C218 5394   1.893   4.611   8.105 -0.0314  0.0244 -0.4135
   40POPC  H18R 5395   1.982   4.610   8.171  0.3764  0.6947 -0.9448
   40POPC  H18S 5396   1.813   4.659   8.165  1.8303 -0.2121  2.4554
   40POPC  H18T 5397   1.906   4.684   8.023  1.0982  2.1223  1.5286
   40POPC   C33 5398   2.496   3.932   6.916 -0.4629  1.1886 -0.6237
   40POPC   H3X 5399   2.412   3.972   6.857 -1.0461  0.7551 -0.0957
   40POPC   H3Y 5400   2.571   4.013   6.931 -0.0498  0.6136  0.6345
   40POPC   C34 5401   2.437   3.879   7.047  0.0315 -0.0597  0.0631
   40POPC   H4X 5402   2.398   3.776   7.028 -0.4754 -0.1800  1.6439
   40POPC   H4Y 5403   2.356   3.936   7.097 -0.6689 -1.6476  0.8160
   40POPC   C35 5404   2.541   3.860   7.161  0.0201 -0.5262 -0.5246
   40POPC   H5X 5405   2.579   3.960   7.191  0.0603 -1.3957  2.7616
   40POPC   H5Y 5406   2.618   3.784   7.136 -0.3112 -0.5133 -1.6218
   40POPC   C36 5407   2.474   3.799   7.289  0.7941  0.1801 -0.0486
   40POPC   H6X 5408   2.432   3.700   7.264 -1.9410  1.0600  0.7241
   40POPC   H6Y 5409   2.387   3.864   7.312  1.6702  1.1574  0.6086
   40POPC   C37 5410   2.560   3.789   7.419 -0.0732 -0.2133  0.6560
   40POPC   H7X 5411   2.660   3.746   7.398  0.9849  2.4116  0.0354
   40POPC   H7Y 5412   2.511   3.721   7.493  1.5767 -0.7104  1.3215
   40POPC   C38 5413   2.592   3.917   7.493  0.6974 -0.5806 -0.4503
   40POPC   H8X 5414   2.495   3.961   7.524  0.1609 -2.0083 -0.0198
   40POPC   H8Y 5415   2.644   3.986   7.423  0.5537 -0.0840 -0.0774
   40POPC   C39 5416   2.678   3.885   7.617  0.0524  0.4247 -0.0256
   40POPC   H9X 5417   2.778   3.878   7.569 -0.2886  0.9741 -0.8451
   40POPC   H9Y 5418   2.643   3.796   7.674 -0.3136  1.2261  1.0385
   40POPC  C310 5419   2.669   4.003   7.714  0.3826  0.2313  0.4903
   40POPC  H10X 5420   2.565   4.018   7.750  0.5084 -1.5441  1.6871
   40POPC  H10Y 5421   2.689   4.105   7.673  1.7378 -0.3702 -0.4235
   40POPC  C311 5422   2.744   3.992   7.849  0.1019 -0.4613  0.0343
   40POPC  H11X 5423   2.706   4.074   7.914  0.7518  0.5399 -0.8057
   40POPC  H11Y 5424   2.853   4.014   7.841 -0.1221  0.8728  0.3295
   40POPC  C312 5425   2.731   3.869   7.927  0.7558 -0.4850  0.0155
   40POPC  H12X 5426   2.771   3.779   7.877  0.5414 -0.4199 -0.2731
   40POPC  H12Y 5427   2.629   3.846   7.964  0.7208 -0.5354 -0.1115
   40POPC  C313 5428   2.816   3.874   8.062 -0.2050 -0.0682 -0.2876
   40POPC  H13X 5429   2.765   3.960   8.110  0.0088 -0.2176  0.2066
   40POPC  H13Y 5430   2.923   3.895   8.045 -0.4574  0.9962 -0.6670
   40POPC  C314 5431   2.792   3.761   8.161 -0.7382 -0.1727 -0.7575
   40POPC  H14X 5432   2.813   3.661   8.116 -1.3916 -1.9815  2.6254
   40POPC  H14Y 5433   2.685   3.752   8.190  0.2583 -2.2625  3.0836
   40POPC  C315 5434   2.877   3.784   8.293  0.4335  0.3640 -0.2835
   40POPC  H15X 5435   2.980   3.773   8.253  0.0158 -2.2023 -0.7939
   40POPC  H15Y 5436   2.854   3.702   8.364  0.0885 -0.2422 -1.0836
   40POPC  C316 5437   2.844   3.915   8.364 -0.2550 -0.1512  0.1118
   40POPC  H16X 5438   2.740   3.918   8.404  0.9161 -1.8317  3.7001
   40POPC  H16Y 5439   2.867   3.998   8.294  0.8717  0.2620  0.9280
   40POPC  H16Z 5440   2.910   3.939   8.450 -3.0580 -1.8598  2.9565
   41CHL1    C3 5441   5.838   1.236  10.018 -0.1716 -0.3017  0.4738
   41CHL1    H3 5442   5.946   1.248  10.043  0.3669 -2.2060 -0.7413
   41CHL1    O3 5443   5.758   1.231  10.134 -0.2240 -0.0254  0.2596
   41CHL1   H3' 5444   5.671   1.202  10.107  0.2026 -1.8876  0.7515
   41CHL1    C4 5445   5.796   1.365   9.942 -0.3051  0.5132 -0.7970
   41CHL1   H4A 5446   5.688   1.353   9.919 -0.2126 -0.8164 -0.6509
   41CHL1   H4B 5447   5.805   1.455  10.007 -1.7105  1.0578 -1.3350
   41CHL1    C5 5448   5.881   1.384   9.819  0.4382 -0.9006 -0.0541
   41CHL1    C6 5449   5.956   1.494   9.798 -0.1999  1.4706 -0.1800
   41CHL1    H6 5450   5.961   1.571   9.876  2.3561 -1.1473  2.5136
   41CHL1    C7 5451   6.046   1.507   9.682  0.5710 -0.8324 -0.1437
   41CHL1   H7A 5452   6.049   1.613   9.649  0.4625 -0.6866  0.3076
   41CHL1   H7B 5453   6.151   1.481   9.707  1.4721  1.0672 -1.7283
   41CHL1    C8 5454   5.993   1.418   9.560 -0.3472 -0.1422  0.5054
   41CHL1    H8 5455   5.899   1.463   9.523  0.1644 -0.0554 -0.7621
   41CHL1   C14 5456   6.096   1.432   9.445 -0.1675 -0.3392  1.1610
   41CHL1   H14 5457   6.192   1.394   9.488 -0.2476 -0.1601  1.5012
   41CHL1   C15 5458   6.125   1.576   9.387  0.7782 -0.1782  0.6957
   41CHL1  H15A 5459   6.030   1.634   9.382  0.6151 -0.4737  0.2755
   41CHL1  H15B 5460   6.203   1.625   9.449  0.4382  1.6111 -0.2291
   41CHL1   C16 5461   6.177   1.549   9.243  0.4452  0.6968  0.0838
   41CHL1  H16A 5462   6.122   1.600   9.161  2.3913  0.8485 -1.1990
   41CHL1  H16B 5463   6.284   1.576   9.230  0.9006 -1.1849 -0.3425
   41CHL1   C17 5464   6.177   1.391   9.225 -0.1717  0.2571 -0.6559
   41CHL1   H17 5465   6.275   1.365   9.271 -0.8659 -1.2339  0.0685
   41CHL1   C13 5466   6.062   1.346   9.326 -0.2608  0.9775  0.0059
   41CHL1   C18 5467   5.918   1.369   9.274  0.5359  0.0183 -0.2862
   41CHL1  H18A 5468   5.837   1.318   9.331  1.0005 -0.3537  0.0528
   41CHL1  H18B 5469   5.901   1.469   9.229  1.0461 -0.6622 -2.0513
   41CHL1  H18C 5470   5.911   1.304   9.185 -2.8389  0.9889 -0.8628
   41CHL1   C12 5471   6.077   1.196   9.378  0.3447  0.4563 -0.3074
   41CHL1  H12A 5472   6.074   1.126   9.292  0.6593  2.4777 -2.0431
   41CHL1  H12B 5473   6.174   1.179   9.430  0.5714 -0.2849 -0.9695
   41CHL1   C11 5474   5.972   1.165   9.492  0.2038 -0.3792 -0.2624
   41CHL1  H11A 5475   5.870   1.169   9.449 -0.3968  0.1862  1.1512
   41CHL1  H11B 5476   5.988   1.063   9.533 -1.9867  0.1198  2.0963
   41CHL1    C9 5477   5.984   1.270   9.607 -0.5248  0.1190 -0.1369
   41CHL1    H9 5478   6.078   1.246   9.661 -0.0495  0.9180 -0.5845
   41CHL1   C10 5479   5.874   1.258   9.721 -0.4628 -0.5553  0.1516
   41CHL1   C19 5480   5.731   1.259   9.651 -0.4503 -0.2732 -0.0212
   41CHL1  H19A 5481   5.716   1.169   9.587 -0.7290 -0.1981 -0.0625
   41CHL1  H19B 5482   5.643   1.265   9.718 -0.1949 -0.3382  0.3208
   41CHL1  H19C 5483   5.723   1.349   9.586  1.3444  0.1532  0.2982
   41CHL1    C1 5484   5.893   1.124   9.791  0.2809  0.5400 -0.2693
   41CHL1   H1A 5485   5.848   1.052   9.720 -0.2137  2.4775 -2.0229
   41CHL1   H1B 5486   6.000   1.105   9.814  0.4127  3.0909  1.7660
   41CHL1    C2 5487   5.813   1.112   9.926  0.4976 -0.5854 -0.5809
   41CHL1   H2A 5488   5.833   1.023   9.990 -3.3330  0.7098  2.8431
   41CHL1   H2B 5489   5.705   1.099   9.907  0.1132  0.5661  0.6903
   41CHL1   C20 5490   6.171   1.344   9.076 -0.7077 -0.5002 -0.5997
   41CHL1   H20 5491   6.073   1.382   9.041 -0.8409  0.2420  0.5498
   41CHL1   C21 5492   6.181   1.190   9.062 -0.5892 -0.7938 -0.5197
   41CHL1  H21A 5493   6.253   1.159   9.140  1.6002  1.6753 -1.4158
   41CHL1  H21B 5494   6.224   1.165   8.962  1.2513 -1.7925  0.4795
   41CHL1  H21C 5495   6.082   1.147   9.088 -0.5887 -0.4094  0.1203
   41CHL1   C22 5496   6.272   1.407   8.981 -0.3772  0.3370  0.2418
   41CHL1  H22A 5497   6.258   1.377   8.875 -1.4537 -0.8264  0.6955
   41CHL1  H22B 5498   6.259   1.516   8.999 -0.5064  0.1153  1.5798
   41CHL1   C23 5499   6.416   1.379   9.019 -0.1259 -0.3587  0.0204
   41CHL1  H23A 5500   6.431   1.411   9.124  2.2713 -1.3734  0.0425
   41CHL1  H23B 5501   6.427   1.269   9.009 -0.7992 -0.2781 -2.2597
   41CHL1   C24 5502   6.521   1.458   8.941  0.0883 -0.1331 -0.1351
   41CHL1  H24A 5503   6.505   1.564   8.968  0.8725 -0.2155  0.6725
   41CHL1  H24B 5504   6.623   1.432   8.975 -0.1527 -0.5341  0.3008
   41CHL1   C25 5505   6.515   1.458   8.783  0.5351  0.5165  0.2799
   41CHL1   H25 5506   6.412   1.488   8.756  0.7361 -0.4104 -1.6999
   41CHL1   C26 5507   6.613   1.564   8.737 -0.2741 -0.0692  0.0865
   41CHL1  H26A 5508   6.581   1.669   8.756 -1.4621  0.1442 -2.5826
   41CHL1  H26B 5509   6.717   1.549   8.773 -0.4098  1.4202  1.1999
   41CHL1  H26C 5510   6.602   1.561   8.627 -0.1439 -0.2783  0.0786
   41CHL1   C27 5511   6.541   1.320   8.721 -0.2865  0.2705 -0.5395
   41CHL1  H27A 5512   6.651   1.299   8.721  0.4636  3.6793 -1.4712
   41CHL1  H27B 5513   6.490   1.237   8.775  2.8116 -1.3832  0.0928
   41CHL1  H27C 5514   6.510   1.320   8.614  0.0327  0.1772 -0.6353
   42CHL1    C3 5515   0.832   6.171  10.011  0.2633 -0.6296  0.9594
   42CHL1    H3 5516   0.919   6.131   9.955 -2.2560 -2.0258 -2.2896
   42CHL1    O3 5517   0.847   6.172  10.154  0.0741 -0.1740 -0.2325
   42CHL1   H3' 5518   0.914   6.240  10.170  1.0867 -1.1298 -0.2926
   42CHL1    C4 5519   0.792   6.310   9.955 -0.7351  0.0444 -0.6198
   42CHL1   H4A 5520   0.699   6.339  10.008  0.3357 -0.4785  1.6579
   42CHL1   H4B 5521   0.860   6.395   9.974 -1.3843  0.1725  1.3073
   42CHL1    C5 5522   0.754   6.297   9.805 -0.4345 -0.5632 -0.0047
   42CHL1    C6 5523   0.812   6.378   9.711  0.2483  0.0604 -0.7430
   42CHL1    H6 5524   0.875   6.464   9.739  0.8556 -0.3714 -0.7665
   42CHL1    C7 5525   0.784   6.379   9.566  0.4380 -0.0413 -0.1270
   42CHL1   H7A 5526   0.766   6.487   9.545 -1.5657 -0.2582  0.2670
   42CHL1   H7B 5527   0.875   6.349   9.511  0.5263 -0.8231  0.4307
   42CHL1    C8 5528   0.664   6.285   9.524 -0.5673 -0.0929  0.3840
   42CHL1    H8 5529   0.572   6.343   9.545 -0.8483  0.0189 -1.0417
   42CHL1   C14 5530   0.673   6.253   9.376 -0.2116  0.0250  0.2042
   42CHL1   H14 5531   0.768   6.196   9.368  0.1651  0.2314  2.5072
   42CHL1   C15 5532   0.689   6.368   9.279 -0.1381 -0.4674  0.3071
   42CHL1  H15A 5533   0.617   6.448   9.307 -0.2716 -0.0244 -1.2024
   42CHL1  H15B 5534   0.792   6.408   9.287 -0.0042 -0.1707 -2.0090
   42CHL1   C16 5535   0.647   6.310   9.142 -0.0185 -1.0069  0.4895
   42CHL1  H16A 5536   0.569   6.381   9.108  1.6283  1.6311  1.8392
   42CHL1  H16B 5537   0.730   6.307   9.067 -1.2316  1.8314 -1.1543
   42CHL1   C17 5538   0.591   6.165   9.172  0.5484  0.5212 -0.2942
   42CHL1   H17 5539   0.683   6.104   9.166  1.0885  0.8250  3.0584
   42CHL1   C13 5540   0.561   6.160   9.320 -0.6254  0.2541  0.2476
   42CHL1   C18 5541   0.431   6.236   9.341  0.5238  0.6792  0.2549
   42CHL1  H18A 5542   0.429   6.336   9.293 -3.2596  0.2050 -0.8753
   42CHL1  H18B 5543   0.348   6.183   9.289  0.3331  1.1471  0.0780
   42CHL1  H18C 5544   0.398   6.239   9.447 -0.8948  1.0070 -0.1808
   42CHL1   C12 5545   0.576   6.026   9.395  0.1836  0.5461 -0.2142
   42CHL1  H12A 5546   0.491   5.960   9.368  1.6574 -1.6067  0.1080
   42CHL1  H12B 5547   0.672   5.977   9.365 -0.2138 -0.6193  0.3448
   42CHL1   C11 5548   0.569   6.045   9.551  0.0059 -0.5700  0.0464
   42CHL1  H11A 5549   0.461   6.062   9.569  0.1529 -0.6194  1.0314
   42CHL1  H11B 5550   0.593   5.953   9.609 -0.3293 -0.0737  0.9857
   42CHL1    C9 5551   0.668   6.152   9.607  1.3081 -0.3331 -0.0636
   42CHL1    H9 5552   0.761   6.094   9.590  0.4002 -1.8723  0.1011
   42CHL1   C10 5553   0.657   6.179   9.764 -0.5697  0.5068  0.4836
   42CHL1   C19 5554   0.509   6.216   9.794 -0.5712  0.2668  0.9929
   42CHL1  H19A 5555   0.497   6.235   9.902  1.8169  1.7369  1.0726
   42CHL1  H19B 5556   0.480   6.307   9.736  0.6150 -0.1975 -0.4042
   42CHL1  H19C 5557   0.440   6.135   9.764  0.1883  0.7081 -2.3870
   42CHL1    C1 5558   0.696   6.051   9.836 -0.2576 -0.1804  0.2769
   42CHL1   H1A 5559   0.619   5.973   9.818 -1.0200  0.4370  0.7872
   42CHL1   H1B 5560   0.795   6.020   9.795  0.9186  0.8075  2.1832
   42CHL1    C2 5561   0.718   6.074   9.986  0.3759  0.2991 -0.4385
   42CHL1   H2A 5562   0.749   5.975  10.028  2.0766  1.1653  0.4631
   42CHL1   H2B 5563   0.623   6.096  10.039 -0.0184 -0.6852 -0.7136
   42CHL1   C20 5564   0.494   6.106   9.069 -0.3094  0.1357  1.0078
   42CHL1   H20 5565   0.407   6.174   9.075 -1.8377 -1.2347 -2.6184
   42CHL1   C21 5566   0.449   5.961   9.094  0.3941  0.0518 -0.3934
   42CHL1  H21A 5567   0.378   5.963   9.179  0.6344 -2.4402 -0.0691
   42CHL1  H21B 5568   0.541   5.902   9.113  1.9840  1.7234 -2.3672
   42CHL1  H21C 5569   0.391   5.921   9.008  0.7445 -0.3803 -0.4366
   42CHL1   C22 5570   0.541   6.121   8.916 -0.0645  0.1079  0.5696
   42CHL1  H22A 5571   0.601   6.214   8.905  0.8847 -0.3901  1.3148
   42CHL1  H22B 5572   0.605   6.033   8.891  0.3120  0.2346  1.0770
   42CHL1   C23 5573   0.431   6.118   8.810  0.1467  0.2779 -0.9454
   42CHL1  H23A 5574   0.381   6.020   8.821 -1.7240  1.3996  1.5893
   42CHL1  H23B 5575   0.363   6.202   8.836  0.7093  0.2038  0.8870
   42CHL1   C24 5576   0.486   6.145   8.670 -0.2519 -0.5855 -0.2800
   42CHL1  H24A 5577   0.547   6.237   8.675 -0.0501 -0.7744  1.7378
   42CHL1  H24B 5578   0.561   6.067   8.645 -0.9282 -1.0575 -0.8762
   42CHL1   C25 5579   0.375   6.152   8.564  0.6945 -0.2982  0.7208
   42CHL1   H25 5580   0.327   6.053   8.582  2.0759 -1.6401 -2.3165
   42CHL1   C26 5581   0.267   6.263   8.572  0.3381  0.2869  0.7196
   42CHL1  H26A 5582   0.214   6.263   8.670 -0.4069 -0.4735  0.3232
   42CHL1  H26B 5583   0.317   6.362   8.563 -0.5397  0.7861  1.1851
   42CHL1  H26C 5584   0.192   6.252   8.492  3.3208  0.4154 -2.3191
   42CHL1   C27 5585   0.434   6.134   8.420  1.1828  0.1628 -0.2633
   42CHL1  H27A 5586   0.486   6.038   8.404  1.1829  0.1184 -0.0011
   42CHL1  H27B 5587   0.368   6.152   8.332 -1.5153 -2.1675  1.0984
   42CHL1  H27C 5588   0.501   6.222   8.407 -0.8805  1.5515 -2.2915
   43CHL1    C3 5589   1.849   6.134   9.718  0.4295 -0.5292 -0.5995
   43CHL1    H3 5590   1.935   6.090   9.664  0.0649 -0.4530 -1.2556
   43CHL1    O3 5591   1.882   6.188   9.838  0.2561 -0.3679 -0.4560
   43CHL1   H3' 5592   1.931   6.268   9.819 -1.9218  1.3574  0.7334
   43CHL1    C4 5593   1.768   6.238   9.643  0.2008 -0.9645  0.1740
   43CHL1   H4A 5594   1.681   6.274   9.702  0.2535  0.1249 -0.3787
   43CHL1   H4B 5595   1.827   6.330   9.626 -2.2416  0.6767  0.0021
   43CHL1    C5 5596   1.723   6.188   9.512 -0.3437  0.9863  0.2731
   43CHL1    C6 5597   1.750   6.255   9.402 -0.5836  0.0310  0.3035
   43CHL1    H6 5598   1.805   6.350   9.413  1.0929 -1.2160  4.4637
   43CHL1    C7 5599   1.698   6.213   9.261 -0.6605  0.3919 -0.0525
   43CHL1   H7A 5600   1.643   6.302   9.225 -0.1576  1.2288  1.1819
   43CHL1   H7B 5601   1.778   6.185   9.189 -0.2215  0.6263  0.3383
   43CHL1    C8 5602   1.603   6.091   9.266  0.0149  0.1351 -0.6268
   43CHL1    H8 5603   1.507   6.139   9.293  0.3641  0.8034 -0.5621
   43CHL1   C14 5604   1.589   6.020   9.130  0.4615  0.0568 -0.2127
   43CHL1   H14 5605   1.688   5.974   9.109  1.2785  2.1051 -1.1235
   43CHL1   C15 5606   1.560   6.109   9.007 -0.2716  0.1713 -0.0365
   43CHL1  H15A 5607   1.481   6.184   9.029 -0.8218 -0.3747 -0.1324
   43CHL1  H15B 5608   1.645   6.168   8.967 -0.1893 -0.5906 -1.0312
   43CHL1   C16 5609   1.500   6.015   8.897  0.1316 -0.1942 -0.2244
   43CHL1  H16A 5610   1.402   6.047   8.856  0.2774 -0.9468 -1.2106
   43CHL1  H16B 5611   1.576   6.002   8.817 -1.0187 -3.1079 -0.9715
   43CHL1   C17 5612   1.487   5.872   8.971 -0.1307 -0.2970  0.0578
   43CHL1   H17 5613   1.580   5.821   8.937 -0.7126 -0.0794 -1.9868
   43CHL1   C13 5614   1.483   5.904   9.125  0.1780  0.3858  0.3991
   43CHL1   C18 5615   1.339   5.963   9.155 -0.6470  0.5167  0.6777
   43CHL1  H18A 5616   1.258   5.888   9.144 -1.1293  0.7627  2.1907
   43CHL1  H18B 5617   1.335   5.996   9.261 -3.2248  0.8096  0.5528
   43CHL1  H18C 5618   1.320   6.051   9.090 -1.5551 -0.9712 -1.1694
   43CHL1   C12 5619   1.534   5.806   9.232 -0.6939 -0.0480  0.7635
   43CHL1  H12A 5620   1.471   5.715   9.243  0.8453 -1.1720  0.6848
   43CHL1  H12B 5621   1.632   5.764   9.200 -1.9344 -2.3271 -0.2950
   43CHL1   C11 5622   1.541   5.863   9.370  0.4433  0.7457 -0.6844
   43CHL1  H11A 5623   1.440   5.888   9.410  0.7719  0.0155  0.6757
   43CHL1  H11B 5624   1.583   5.781   9.432  0.2189  0.7120 -0.5751
   43CHL1    C9 5625   1.631   5.991   9.377 -0.4493  0.4262 -0.1931
   43CHL1    H9 5626   1.731   5.953   9.347 -0.3935  0.7244 -0.3859
   43CHL1   C10 5627   1.647   6.046   9.518 -0.3380  0.2643 -0.4812
   43CHL1   C19 5628   1.506   6.081   9.570  0.0455 -0.1901  0.1513
   43CHL1  H19A 5629   1.462   6.148   9.493  0.5501  1.5628  1.3261
   43CHL1  H19B 5630   1.432   5.998   9.577  0.6374 -0.6542  1.1779
   43CHL1  H19C 5631   1.498   6.132   9.668  1.1142  1.3265 -0.5141
   43CHL1    C1 5632   1.726   5.943   9.615 -0.7422 -0.1131 -0.1692
   43CHL1   H1A 5633   1.664   5.855   9.643 -0.1471  0.0664  1.8948
   43CHL1   H1B 5634   1.821   5.921   9.562 -1.9315 -0.4867 -2.2758
   43CHL1    C2 5635   1.754   6.015   9.746 -0.4252 -0.0355 -0.2713
   43CHL1   H2A 5636   1.798   5.930   9.803 -1.5441  0.2326  1.0630
   43CHL1   H2B 5637   1.667   6.041   9.811 -1.1210 -4.1607  0.7272
   43CHL1   C20 5638   1.371   5.787   8.913 -0.6336 -0.0204 -0.2378
   43CHL1   H20 5639   1.271   5.823   8.944 -0.4215 -0.2023  0.6774
   43CHL1   C21 5640   1.395   5.642   8.956 -0.6359 -0.4371 -0.1852
   43CHL1  H21A 5641   1.499   5.609   8.938 -0.5551  0.3544 -1.2268
   43CHL1  H21B 5642   1.322   5.576   8.904 -1.0962  0.7605 -1.0925
   43CHL1  H21C 5643   1.387   5.628   9.066  0.2771 -0.6188 -0.1363
   43CHL1   C22 5644   1.369   5.789   8.760 -0.0564 -0.6984 -0.1938
   43CHL1  H22A 5645   1.353   5.890   8.717 -3.2923 -2.2255 -3.0903
   43CHL1  H22B 5646   1.459   5.752   8.708  0.5008  1.9389 -1.2494
   43CHL1   C23 5647   1.249   5.718   8.702  0.0757 -0.0417  0.8104
   43CHL1  H23A 5648   1.264   5.608   8.709 -0.6081 -0.1176  1.1391
   43CHL1  H23B 5649   1.155   5.750   8.752  0.0787 -1.2095  1.5886
   43CHL1   C24 5650   1.235   5.758   8.551 -0.9122  0.0907  0.4326
   43CHL1  H24A 5651   1.251   5.866   8.531  1.2165 -0.4141 -0.8990
   43CHL1  H24B 5652   1.299   5.685   8.497 -0.0991 -1.2040  2.9883
   43CHL1   C25 5653   1.095   5.717   8.493 -0.3587 -0.1067  0.0320
   43CHL1   H25 5654   1.029   5.787   8.550 -0.0784 -0.6563  1.0518
   43CHL1   C26 5655   1.090   5.744   8.351 -0.1691 -0.2078  0.0674
   43CHL1  H26A 5656   0.989   5.730   8.307 -0.5040 -2.9442  1.5055
   43CHL1  H26B 5657   1.117   5.851   8.334  2.3139 -0.8237 -0.1726
   43CHL1  H26C 5658   1.162   5.679   8.297 -0.7423  0.9403 -2.1997
   43CHL1   C27 5659   1.040   5.583   8.507 -0.5437 -0.4142  0.3554
   43CHL1  H27A 5660   1.093   5.510   8.442  1.3037 -0.7286  2.1034
   43CHL1  H27B 5661   1.065   5.543   8.608 -0.4689 -0.3509  0.3616
   43CHL1  H27C 5662   0.931   5.581   8.483 -0.1769 -1.9788 -1.4128
   44CHL1    C3 5663   5.354   2.141   9.997 -0.0417  0.2043  0.7050
   44CHL1    H3 5664   5.458   2.117   9.966 -1.7262 -3.9292 -2.7122
   44CHL1    O3 5665   5.349   2.192  10.129 -0.4385  0.4885 -0.0398
   44CHL1   H3' 5666   5.260   2.185  10.163  0.1336  0.4180  1.5557
   44CHL1    C4 5667   5.302   2.255   9.906 -0.4081 -0.0005  0.7251
   44CHL1   H4A 5668   5.201   2.290   9.933  0.1374  1.9195  0.4225
   44CHL1   H4B 5669   5.371   2.341   9.922 -0.3166 -0.1608  1.2111
   44CHL1    C5 5670   5.319   2.210   9.761 -0.5284  0.0144  0.3558
   44CHL1    C6 5671   5.403   2.261   9.677  0.3509 -0.0926  0.1991
   44CHL1    H6 5672   5.462   2.350   9.705 -1.6574  1.0193  1.0956
   44CHL1    C7 5673   5.424   2.213   9.531  0.0895 -0.1006 -0.6953
   44CHL1   H7A 5674   5.450   2.295   9.462  3.7121  0.7815  1.4433
   44CHL1   H7B 5675   5.519   2.154   9.520  0.4514 -0.0904  1.8114
   44CHL1    C8 5676   5.302   2.133   9.484 -0.3679  0.8378 -0.0225
   44CHL1    H8 5677   5.217   2.204   9.480 -0.6368  0.8412  3.1846
   44CHL1   C14 5678   5.332   2.064   9.343 -0.3736 -0.8840 -0.9215
   44CHL1   H14 5679   5.425   2.008   9.365 -0.3646 -0.1365  1.1650
   44CHL1   C15 5680   5.365   2.165   9.229 -0.5860 -0.2919 -0.8759
   44CHL1  H15A 5681   5.304   2.258   9.225 -0.5425 -0.2633 -0.8677
   44CHL1  H15B 5682   5.468   2.201   9.248 -0.5310 -1.2430  0.8431
   44CHL1   C16 5683   5.350   2.084   9.102  0.1038  0.0563 -0.0456
   44CHL1  H16A 5684   5.270   2.120   9.033 -1.2145 -0.0935  1.3366
   44CHL1  H16B 5685   5.450   2.080   9.054  0.0976 -0.3516 -0.0199
   44CHL1   C17 5686   5.291   1.942   9.147 -0.2348 -0.3019 -0.0195
   44CHL1   H17 5687   5.382   1.884   9.173  0.2089 -0.2942 -1.4323
   44CHL1   C13 5688   5.227   1.967   9.287  0.0040  0.5241  0.4167
   44CHL1   C18 5689   5.095   2.041   9.269  0.3665 -0.3784 -0.0908
   44CHL1  H18A 5690   5.001   1.984   9.255 -0.2797  0.5651  0.2760
   44CHL1  H18B 5691   5.075   2.104   9.359  0.5263  0.6444 -0.7499
   44CHL1  H18C 5692   5.105   2.120   9.192  0.6523 -0.4297 -0.1074
   44CHL1   C12 5693   5.216   1.859   9.392 -0.8882 -0.8828 -1.0818
   44CHL1  H12A 5694   5.152   1.774   9.360 -0.7024 -0.5859 -2.3109
   44CHL1  H12B 5695   5.315   1.813   9.412 -1.6980 -2.9995 -1.6536
   44CHL1   C11 5696   5.173   1.914   9.528  0.3273  0.0900 -0.5665
   44CHL1  H11A 5697   5.070   1.952   9.513 -0.0999 -0.6085  0.5086
   44CHL1  H11B 5698   5.165   1.824   9.593  0.0041 -0.1823 -0.9824
   44CHL1    C9 5699   5.272   2.019   9.587 -0.0882 -0.5441 -0.4872
   44CHL1    H9 5700   5.363   1.957   9.597 -0.7126 -1.3242  0.5497
   44CHL1   C10 5701   5.242   2.077   9.725  0.2894 -1.2266  0.5762
   44CHL1   C19 5702   5.088   2.101   9.723 -0.2168  0.5390 -0.4534
   44CHL1  H19A 5703   5.060   2.150   9.627  1.3406  1.5962 -0.3955
   44CHL1  H19B 5704   5.043   2.001   9.742  0.4325 -0.3595 -3.2505
   44CHL1  H19C 5705   5.052   2.170   9.803  0.2786 -0.3989  0.6015
   44CHL1    C1 5706   5.268   1.969   9.841 -0.3023 -0.8522  0.4179
   44CHL1   H1A 5707   5.206   1.877   9.829  1.7115 -2.3617  1.0383
   44CHL1   H1B 5708   5.373   1.937   9.826  0.1931  1.2092 -0.9598
   44CHL1    C2 5709   5.266   2.024   9.985 -0.2120  0.3378  0.1156
   44CHL1   H2A 5710   5.285   1.953  10.068 -0.5269  1.2045  0.9388
   44CHL1   H2B 5711   5.160   2.050  10.008  0.1397  2.6882 -0.7153
   44CHL1   C20 5712   5.206   1.865   9.043  0.3873 -0.1791 -0.3529
   44CHL1   H20 5713   5.109   1.919   9.031  0.7070  0.6880  0.8267
   44CHL1   C21 5714   5.187   1.710   9.083 -0.6658 -0.9117  0.3842
   44CHL1  H21A 5715   5.129   1.691   9.176  0.4300 -2.0517  0.8654
   44CHL1  H21B 5716   5.290   1.672   9.102 -0.0496  1.7862  3.3932
   44CHL1  H21C 5717   5.136   1.665   8.996 -0.7279  0.4834 -0.3302
   44CHL1   C22 5718   5.257   1.877   8.897  0.3787  0.0860  0.8808
   44CHL1  H22A 5719   5.282   1.983   8.878  0.4017 -0.0677  0.0208
   44CHL1  H22B 5720   5.353   1.822   8.884  1.3080  1.8660 -0.2738
   44CHL1   C23 5721   5.161   1.835   8.784  0.8901 -0.0144  0.3293
   44CHL1  H23A 5722   5.134   1.728   8.799 -2.3312  0.7158  0.4088
   44CHL1  H23B 5723   5.074   1.903   8.783  0.8972  0.0384  1.4633
   44CHL1   C24 5724   5.235   1.839   8.646  0.7079  0.4240 -0.5615
   44CHL1  H24A 5725   5.284   1.938   8.637 -2.6297  2.2119 -0.4498
   44CHL1  H24B 5726   5.303   1.751   8.656 -1.0350 -0.6660  3.9277
   44CHL1   C25 5727   5.145   1.802   8.525 -0.3754  0.0401  0.5112
   44CHL1   H25 5728   5.058   1.873   8.524  0.6668  1.3661 -0.6747
   44CHL1   C26 5729   5.212   1.832   8.390  0.4800  0.2992 -0.7924
   44CHL1  H26A 5730   5.149   1.802   8.304 -0.9221 -2.0128  0.9065
   44CHL1  H26B 5731   5.230   1.940   8.371  1.7481  0.0001 -1.3440
   44CHL1  H26C 5732   5.307   1.775   8.387 -0.0313 -0.6535  0.0648
   44CHL1   C27 5733   5.081   1.662   8.535 -0.1615  0.2104 -0.2373
   44CHL1  H27A 5734   5.018   1.641   8.445 -1.4789  1.3506  0.3757
   44CHL1  H27B 5735   5.163   1.588   8.528  0.0341  0.4525 -0.5364
   44CHL1  H27C 5736   5.018   1.647   8.625 -1.4251 -0.0458 -1.1241
   45CHL1    C3 5737   3.790   0.959  10.109  0.0131 -0.2813 -0.0963
   45CHL1    H3 5738   3.707   1.033  10.121 -0.0766 -0.3808 -0.1014
   45CHL1    O3 5739   3.862   0.965  10.231  0.2039  0.0641 -0.3329
   45CHL1   H3' 5740   3.953   0.940  10.213 -0.0539 -0.2433 -1.2834
   45CHL1    C4 5741   3.741   0.823  10.072 -0.2407 -0.0043 -0.8758
   45CHL1   H4A 5742   3.829   0.757  10.061 -1.7863 -2.6506  1.1743
   45CHL1   H4B 5743   3.675   0.797  10.158 -0.7913  0.4088 -1.1627
   45CHL1    C5 5744   3.663   0.813   9.946  0.8091 -0.3689 -0.0339
   45CHL1    C6 5745   3.540   0.768   9.951  0.6125 -0.3618 -0.2890
   45CHL1    H6 5746   3.492   0.722  10.038  0.3387  0.4796  0.0186
   45CHL1    C7 5747   3.452   0.778   9.836 -0.0898  0.1725 -0.2636
   45CHL1   H7A 5748   3.386   0.689   9.835  0.5981 -0.3811  0.9146
   45CHL1   H7B 5749   3.388   0.867   9.853  1.6717  2.0474 -2.5540
   45CHL1    C8 5750   3.518   0.805   9.697 -1.0605 -0.1740  0.1653
   45CHL1    H8 5751   3.434   0.849   9.640  0.5961  2.1490 -0.6416
   45CHL1   C14 5752   3.570   0.680   9.625  0.1321  0.1769 -0.1820
   45CHL1   H14 5753   3.629   0.630   9.705 -2.4905 -0.5503  1.4414
   45CHL1   C15 5754   3.451   0.580   9.594  0.2241  0.1821 -0.0957
   45CHL1  H15A 5755   3.488   0.477   9.612  1.6561  0.8023  0.6547
   45CHL1  H15B 5756   3.370   0.618   9.661  0.9679 -0.3825  1.1642
   45CHL1   C16 5757   3.427   0.591   9.446 -0.5395  0.2041  0.3229
   45CHL1  H16A 5758   3.451   0.492   9.402  2.5590  1.2582 -0.5814
   45CHL1  H16B 5759   3.320   0.618   9.430 -0.8905 -0.5800  1.2299
   45CHL1   C17 5760   3.525   0.702   9.395 -0.0201  0.4362  1.1494
   45CHL1   H17 5761   3.480   0.802   9.409 -2.0671 -0.4037  0.9519
   45CHL1   C13 5762   3.645   0.698   9.487  0.0559 -0.0575 -0.2565
   45CHL1   C18 5763   3.732   0.566   9.474 -0.3982  0.5210  1.3578
   45CHL1  H18A 5764   3.784   0.566   9.376  1.1532 -0.1950  2.1546
   45CHL1  H18B 5765   3.811   0.555   9.552  2.1375 -0.5587 -1.1983
   45CHL1  H18C 5766   3.671   0.475   9.494 -0.0985  0.4415  1.9483
   45CHL1   C12 5767   3.740   0.821   9.487  0.7841  0.4141  0.3920
   45CHL1  H12A 5768   3.845   0.783   9.496  0.9711  0.4354 -1.3291
   45CHL1  H12B 5769   3.749   0.852   9.381  1.7337 -0.4057  0.2090
   45CHL1   C11 5770   3.689   0.936   9.565 -0.6084 -0.5182  0.0621
   45CHL1  H11A 5771   3.774   1.007   9.570 -0.6983 -0.4658  1.5146
   45CHL1  H11B 5772   3.613   0.991   9.506  0.2548  0.5698 -0.0571
   45CHL1    C9 5773   3.633   0.905   9.708  0.0161  0.7309 -0.3353
   45CHL1    H9 5774   3.586   1.003   9.729 -0.4736  0.6067 -0.8118
   45CHL1   C10 5775   3.735   0.878   9.827  0.9393  0.2729  0.5211
   45CHL1   C19 5776   3.846   0.780   9.779  0.3923 -0.0022  0.1328
   45CHL1  H19A 5777   3.803   0.692   9.727 -2.2040  0.7257  0.8857
   45CHL1  H19B 5778   3.899   0.828   9.695 -0.4243  0.3571 -0.1851
   45CHL1  H19C 5779   3.924   0.758   9.855 -0.8394  0.9434  1.7390
   45CHL1    C1 5780   3.809   1.006   9.866  0.9376 -0.7625 -0.4202
   45CHL1   H1A 5781   3.865   1.045   9.779 -0.9528  2.9174 -0.1670
   45CHL1   H1B 5782   3.734   1.086   9.880 -1.6995 -3.0768 -0.3093
   45CHL1    C2 5783   3.881   1.011   9.997  0.8197 -0.1252 -0.3075
   45CHL1   H2A 5784   3.911   1.117  10.011  0.6074 -0.0138 -0.6919
   45CHL1   H2B 5785   3.967   0.940   9.993  0.1374 -0.8996 -1.4894
   45CHL1   C20 5786   3.549   0.717   9.235 -0.7847 -0.4469  0.1403
   45CHL1   H20 5787   3.622   0.799   9.219 -1.7593  0.1372 -1.5674
   45CHL1   C21 5788   3.414   0.759   9.187  0.2626 -0.4954  0.5064
   45CHL1  H21A 5789   3.345   0.684   9.230 -0.2631 -0.6241 -0.5278
   45CHL1  H21B 5790   3.416   0.778   9.078 -1.5666  0.9471  0.6711
   45CHL1  H21C 5791   3.384   0.857   9.231  2.4401  0.7405 -0.5903
   45CHL1   C22 5792   3.602   0.590   9.160 -0.0477 -0.4681  0.1700
   45CHL1  H22A 5793   3.695   0.554   9.209 -0.7922 -1.1314  1.1502
   45CHL1  H22B 5794   3.527   0.514   9.193  0.2670 -0.3363  1.2418
   45CHL1   C23 5795   3.605   0.586   9.003  0.0784 -0.3203 -0.5767
   45CHL1  H23A 5796   3.508   0.610   8.955  0.9352  0.6855 -1.8624
   45CHL1  H23B 5797   3.681   0.660   8.970  0.4383  0.1468  1.1789
   45CHL1   C24 5798   3.663   0.452   8.964 -0.1771  0.5557 -0.2282
   45CHL1  H24A 5799   3.753   0.429   9.024  0.1510  1.7933 -0.2199
   45CHL1  H24B 5800   3.591   0.375   8.998  0.1460  0.4967  0.3209
   45CHL1   C25 5801   3.681   0.436   8.814 -0.6413  0.4005 -0.7036
   45CHL1   H25 5802   3.594   0.469   8.754 -1.6017 -0.9801 -0.1475
   45CHL1   C26 5803   3.805   0.521   8.764 -0.0717  0.5046 -0.4773
   45CHL1  H26A 5804   3.833   0.504   8.658  1.8235  2.3961 -0.3609
   45CHL1  H26B 5805   3.806   0.632   8.775 -0.7044  0.3258  1.9460
   45CHL1  H26C 5806   3.881   0.474   8.830 -1.5947 -1.9148 -0.3229
   45CHL1   C27 5807   3.685   0.282   8.769  0.8185 -0.1528  0.2522
   45CHL1  H27A 5808   3.749   0.239   8.848 -0.9845  0.9559  2.4423
   45CHL1  H27B 5809   3.592   0.222   8.777  1.0222 -0.4928  0.0837
   45CHL1  H27C 5810   3.727   0.267   8.667 -2.0137 -3.8912 -0.5820
   46CHL1    C3 5811   2.499   4.811   9.911  0.7343 -0.2533 -0.3718
   46CHL1    H3 5812   2.442   4.904   9.892  1.1938  1.4020  4.6747
   46CHL1    O3 5813   2.541   4.816  10.045 -0.2565  0.0169  0.0927
   46CHL1   H3' 5814   2.623   4.768  10.054 -0.2763 -0.1255 -0.4332
   46CHL1    C4 5815   2.407   4.684   9.900 -0.0395  0.5359  0.1469
   46CHL1   H4A 5816   2.462   4.596   9.940  1.4482 -0.1376 -3.0035
   46CHL1   H4B 5817   2.322   4.698   9.970 -1.2550 -0.0560 -1.1557
   46CHL1    C5 5818   2.356   4.651   9.765 -0.4058  0.3261  0.3668
   46CHL1    C6 5819   2.229   4.635   9.739  0.1693 -0.3373  0.4162
   46CHL1    H6 5820   2.162   4.657   9.823  1.4524 -1.2922  1.7280
   46CHL1    C7 5821   2.165   4.616   9.600 -0.0650  0.8455 -0.1149
   46CHL1   H7A 5822   2.092   4.532   9.600 -0.8394  1.4816  1.5409
   46CHL1   H7B 5823   2.110   4.705   9.564  1.6636  1.5778 -1.0774
   46CHL1    C8 5824   2.269   4.580   9.487 -1.0274 -0.1630  0.0745
   46CHL1    H8 5825   2.293   4.472   9.503  0.1460  0.1020  0.2222
   46CHL1   C14 5826   2.224   4.607   9.347  1.1177  0.0132  0.5876
   46CHL1   H14 5827   2.199   4.715   9.345  1.2383  0.0371 -0.6687
   46CHL1   C15 5828   2.096   4.529   9.310 -0.1778 -1.1691 -0.3800
   46CHL1  H15A 5829   2.109   4.424   9.341  1.5169 -1.9004 -3.2155
   46CHL1  H15B 5830   2.009   4.569   9.367 -0.5850  0.5188 -2.0429
   46CHL1   C16 5831   2.086   4.546   9.157 -0.3228 -0.6093 -0.5807
   46CHL1  H16A 5832   2.047   4.452   9.112 -3.8658  0.4851 -0.1654
   46CHL1  H16B 5833   2.010   4.623   9.133  0.4163  0.9268  1.6595
   46CHL1   C17 5834   2.220   4.599   9.109 -0.3395 -0.2060 -0.3192
   46CHL1   H17 5835   2.189   4.706   9.112 -0.7905 -0.2985 -1.4180
   46CHL1   C13 5836   2.319   4.574   9.230  0.3040 -0.0377 -0.0389
   46CHL1   C18 5837   2.361   4.428   9.223 -0.1053 -0.1321 -0.3228
   46CHL1  H18A 5838   2.417   4.404   9.130  1.0353 -0.0681  0.3365
   46CHL1  H18B 5839   2.425   4.387   9.303 -0.2084 -0.5745 -0.4645
   46CHL1  H18C 5840   2.266   4.371   9.217 -1.2597  1.8295 -2.7454
   46CHL1   C12 5841   2.440   4.665   9.252 -0.0012 -0.4506  0.1686
   46CHL1  H12A 5842   2.528   4.649   9.186 -0.2387  4.5838 -1.8111
   46CHL1  H12B 5843   2.410   4.771   9.241  1.5699  0.1965  1.7150
   46CHL1   C11 5844   2.504   4.653   9.400  0.2171 -0.6995 -0.4563
   46CHL1  H11A 5845   2.545   4.553   9.424  2.7449  0.3650 -0.0599
   46CHL1  H11B 5846   2.592   4.719   9.411  1.2233 -1.9814 -0.6397
   46CHL1    C9 5847   2.398   4.662   9.516  0.1627  0.0565  0.4024
   46CHL1    H9 5848   2.363   4.767   9.528 -0.9760 -0.4299  1.5520
   46CHL1   C10 5849   2.466   4.643   9.656 -0.0250 -0.3165 -0.5794
   46CHL1   C19 5850   2.535   4.501   9.687  0.0029 -0.9617  0.5841
   46CHL1  H19A 5851   2.582   4.512   9.787 -0.7640  0.3858  0.8102
   46CHL1  H19B 5852   2.455   4.424   9.673 -0.7532  0.0513 -0.9098
   46CHL1  H19C 5853   2.614   4.481   9.611 -0.4295 -2.5309  0.5084
   46CHL1    C1 5854   2.572   4.752   9.676  0.1765  0.1381  0.5199
   46CHL1   H1A 5855   2.655   4.734   9.605 -0.3596  0.9775 -0.3419
   46CHL1   H1B 5856   2.519   4.843   9.642  0.4747  0.2369  0.3150
   46CHL1    C2 5857   2.617   4.793   9.816  0.1085 -0.1243 -0.2815
   46CHL1   H2A 5858   2.672   4.890   9.819  0.8865 -0.5151 -1.2240
   46CHL1   H2B 5859   2.691   4.718   9.852  1.3387  1.2446  0.1374
   46CHL1   C20 5860   2.264   4.558   8.970 -1.0599  0.2227  0.5106
   46CHL1   H20 5861   2.297   4.452   8.971 -2.0141 -0.0930 -0.2222
   46CHL1   C21 5862   2.386   4.645   8.928 -0.2236  0.0852 -0.3078
   46CHL1  H21A 5863   2.358   4.751   8.947 -1.0390 -0.7023  3.7654
   46CHL1  H21B 5864   2.418   4.630   8.822 -1.2052 -2.3483 -0.3147
   46CHL1  H21C 5865   2.474   4.619   8.990  0.0205 -1.1526 -1.1239
   46CHL1   C22 5866   2.147   4.571   8.871 -0.1543  0.4706 -0.9034
   46CHL1  H22A 5867   2.045   4.547   8.909  0.1133  1.6866  0.6948
   46CHL1  H22B 5868   2.140   4.674   8.832 -2.3832  0.8743  0.3868
   46CHL1   C23 5869   2.156   4.472   8.752  0.3142  0.0343  0.4880
   46CHL1  H23A 5870   2.248   4.487   8.692  0.7278 -1.3803  0.7326
   46CHL1  H23B 5871   2.141   4.370   8.793 -0.4144 -0.6437 -1.3732
   46CHL1   C24 5872   2.022   4.503   8.677  0.1412  0.2481  0.8601
   46CHL1  H24A 5873   1.934   4.510   8.745 -1.0361 -1.5305 -0.3905
   46CHL1  H24B 5874   2.031   4.600   8.623 -0.3076 -0.6728 -0.9251
   46CHL1   C25 5875   1.978   4.396   8.585 -0.3425  0.2581 -0.3713
   46CHL1   H25 5876   1.950   4.310   8.649 -0.0777  2.2710  2.6726
   46CHL1   C26 5877   1.873   4.445   8.487 -0.1175  0.1156  0.7768
   46CHL1  H26A 5878   1.917   4.525   8.424  1.8521 -1.2654  0.3161
   46CHL1  H26B 5879   1.830   4.363   8.425 -3.2074  1.3504  1.0769
   46CHL1  H26C 5880   1.791   4.482   8.553 -0.7790 -2.2623  1.3831
   46CHL1   C27 5881   2.104   4.352   8.499 -0.2876 -0.0214 -0.1029
   46CHL1  H27A 5882   2.187   4.304   8.554  1.1670  0.9593 -1.3414
   46CHL1  H27B 5883   2.061   4.279   8.427  0.2115 -0.9107  0.4826
   46CHL1  H27C 5884   2.138   4.438   8.437  2.4883  0.2508  1.6170
   47CHL1    C3 5885   0.905   1.202  10.074 -0.2314 -0.1240 -0.1068
   47CHL1    H3 5886   0.798   1.216  10.101 -0.5175  0.3012 -1.3529
   47CHL1    O3 5887   0.991   1.232  10.178  0.1993  0.0874  0.9805
   47CHL1   H3' 5888   1.006   1.151  10.228  0.9004  0.9818  2.2672
   47CHL1    C4 5889   0.915   1.056  10.026 -0.4006  0.1900 -0.2780
   47CHL1   H4A 5890   1.022   1.041   9.998 -0.6706 -0.3916 -1.0378
   47CHL1   H4B 5891   0.887   0.994  10.114  2.0170 -0.7885 -0.1153
   47CHL1    C5 5892   0.828   1.023   9.901  0.3390 -0.3892 -0.5484
   47CHL1    C6 5893   0.737   0.928   9.894 -0.0029  0.8406 -0.0430
   47CHL1    H6 5894   0.727   0.850   9.971  2.0475 -0.0566 -0.6070
   47CHL1    C7 5895   0.662   0.899   9.764  0.5281 -0.1451 -0.2060
   47CHL1   H7A 5896   0.669   0.791   9.739 -0.9747  0.4119 -3.3978
   47CHL1   H7B 5897   0.556   0.930   9.764  0.0235 -1.7841 -0.0627
   47CHL1    C8 5898   0.723   0.972   9.646  0.1893 -0.5885 -1.4378
   47CHL1    H8 5899   0.818   0.917   9.628  0.3476 -1.2392  1.0548
   47CHL1   C14 5900   0.628   0.966   9.522  0.2685 -0.3909  0.3290
   47CHL1   H14 5901   0.538   1.027   9.549 -0.2350  0.2669 -2.5287
   47CHL1   C15 5902   0.571   0.832   9.490 -0.1290  0.0485 -0.7303
   47CHL1  H15A 5903   0.655   0.760   9.499 -1.8944 -1.9622  0.2950
   47CHL1  H15B 5904   0.481   0.806   9.549 -0.8012  0.5588 -1.5099
   47CHL1   C16 5905   0.530   0.843   9.347 -0.3940  0.4050  0.7453
   47CHL1  H16A 5906   0.585   0.765   9.291 -3.4883 -1.9037  0.6529
   47CHL1  H16B 5907   0.421   0.825   9.335 -0.3598  0.4233  0.4100
   47CHL1   C17 5908   0.579   0.990   9.299 -0.4472 -0.2207  0.4448
   47CHL1   H17 5909   0.497   1.064   9.312  0.3411  0.7614 -0.0767
   47CHL1   C13 5910   0.683   1.027   9.400 -0.5706 -0.0312 -0.6380
   47CHL1   C18 5911   0.818   0.972   9.370 -0.7561 -0.9686  0.1892
   47CHL1  H18A 5912   0.815   0.863   9.352  0.9131 -0.6977 -2.0709
   47CHL1  H18B 5913   0.855   1.017   9.275 -0.1913 -0.7290  0.5211
   47CHL1  H18C 5914   0.893   0.998   9.447 -0.8743  0.7959 -0.2374
   47CHL1   C12 5915   0.683   1.183   9.433  0.0974  0.1046  0.1192
   47CHL1  H12A 5916   0.730   1.233   9.346 -0.4116 -0.7526 -0.6707
   47CHL1  H12B 5917   0.579   1.220   9.446 -0.3561 -0.6649 -1.1041
   47CHL1   C11 5918   0.766   1.212   9.556  0.2552 -0.2103  0.4978
   47CHL1  H11A 5919   0.874   1.208   9.529  0.3081 -0.2315  0.7126
   47CHL1  H11B 5920   0.746   1.321   9.564  1.4503  0.2501 -1.9117
   47CHL1    C9 5921   0.746   1.118   9.677 -0.2422 -0.2539  0.1009
   47CHL1    H9 5922   0.648   1.143   9.721 -1.0933 -1.2291 -1.1797
   47CHL1   C10 5923   0.853   1.126   9.788 -0.4772 -0.4152  0.2791
   47CHL1   C19 5924   0.994   1.094   9.729  0.1210 -0.3132 -0.0996
   47CHL1  H19A 5925   1.016   1.177   9.658  0.8658 -0.5952 -0.2068
   47CHL1  H19B 5926   1.072   1.106   9.807  1.4825  0.3993 -1.4949
   47CHL1  H19C 5927   0.997   0.990   9.690  1.4324 -0.1361 -0.5132
   47CHL1    C1 5928   0.845   1.274   9.836 -1.1341  0.1044 -0.0514
   47CHL1   H1A 5929   0.893   1.338   9.759  1.1855 -2.0362 -0.5366
   47CHL1   H1B 5930   0.742   1.302   9.868 -1.1154 -0.0669  0.1682
   47CHL1    C2 5931   0.938   1.293   9.961 -0.4254 -0.0025 -0.7686
   47CHL1   H2A 5932   0.922   1.396   9.998  0.3694 -0.2434  0.2749
   47CHL1   H2B 5933   1.038   1.293   9.913  0.7451  0.8630  1.5849
   47CHL1   C20 5934   0.626   0.992   9.144 -0.0808 -0.4135  0.4211
   47CHL1   H20 5935   0.713   0.923   9.137 -0.2568 -0.7623  1.3969
   47CHL1   C21 5936   0.661   1.136   9.097  0.0407 -0.5570  0.5575
   47CHL1  H21A 5937   0.760   1.168   9.136  0.3399  1.0815 -1.3820
   47CHL1  H21B 5938   0.595   1.213   9.142 -1.2259 -0.2207 -1.7389
   47CHL1  H21C 5939   0.669   1.135   8.987 -1.4538  1.0858  0.3883
   47CHL1   C22 5940   0.518   0.930   9.052  0.2548  0.5011 -0.2053
   47CHL1  H22A 5941   0.555   0.908   8.950  0.3662 -2.3998  0.3631
   47CHL1  H22B 5942   0.497   0.831   9.097  1.4932  0.4365  0.2930
   47CHL1   C23 5943   0.385   1.009   9.056  0.4333  0.1714 -0.1861
   47CHL1  H23A 5944   0.334   1.022   9.154  0.5867 -0.1346 -0.0660
   47CHL1  H23B 5945   0.392   1.115   9.025  2.0332 -0.1114 -0.8670
   47CHL1   C24 5946   0.268   0.947   8.972 -0.3376 -0.2646 -0.5151
   47CHL1  H24A 5947   0.228   0.853   9.016  0.9750  0.0561  1.4862
   47CHL1  H24B 5948   0.188   1.024   8.969 -0.6081 -0.4447  1.2885
   47CHL1   C25 5949   0.315   0.920   8.826  0.6244 -0.0495  0.4401
   47CHL1   H25 5950   0.381   0.830   8.828  0.2547 -0.4646 -2.1754
   47CHL1   C26 5951   0.195   0.874   8.739  0.5382  0.0855 -0.3640
   47CHL1  H26A 5952   0.130   0.799   8.791 -0.0458  0.2985 -0.7752
   47CHL1  H26B 5953   0.240   0.821   8.653  0.9209 -0.1965  0.0081
   47CHL1  H26C 5954   0.137   0.963   8.709  0.0695 -0.1654 -0.2159
   47CHL1   C27 5955   0.398   1.026   8.750  0.0755 -0.6171 -0.1805
   47CHL1  H27A 5956   0.329   1.105   8.715  0.9507 -0.4216 -1.5573
   47CHL1  H27B 5957   0.480   1.063   8.815  0.1318 -0.9526 -0.0586
   47CHL1  H27C 5958   0.437   0.985   8.654 -0.5977  0.2114 -0.8177
   48CHL1    C3 5959   0.004   0.134   9.924 -0.1436  0.5147 -0.0499
   48CHL1    H3 5960  -0.040   0.234   9.943  0.4705  0.6787  0.5406
   48CHL1    O3 5961   0.047   0.090  10.053  0.4021  0.3418 -0.4825
   48CHL1   H3' 5962   0.109   0.023  10.025  0.3858  0.4820 -0.8641
   48CHL1    C4 5963  -0.110   0.041   9.882 -0.5531 -0.1657 -0.1303
   48CHL1   H4A 5964  -0.077  -0.065   9.886 -1.6433 -0.6479 -2.3054
   48CHL1   H4B 5965  -0.192   0.051   9.956 -1.0895 -0.0755 -0.7288
   48CHL1    C5 5966  -0.158   0.066   9.742 -0.3411 -0.2006 -0.2000
   48CHL1    C6 5967  -0.288   0.094   9.713 -0.2562 -0.0290 -0.2410
   48CHL1    H6 5968  -0.366   0.096   9.791  0.6129 -2.2450  0.7619
   48CHL1    C7 5969  -0.331   0.112   9.566 -0.1757 -0.1032  0.4852
   48CHL1   H7A 5970  -0.433   0.069   9.551 -0.6173  1.1022 -0.1183
   48CHL1   H7B 5971  -0.337   0.222   9.551  2.8809 -0.1428 -2.0228
   48CHL1    C8 5972  -0.229   0.065   9.458  0.3277 -0.7457  0.0864
   48CHL1    H8 5973  -0.238  -0.045   9.461  0.6375 -0.7950 -0.6104
   48CHL1   C14 5974  -0.271   0.124   9.324  0.4885 -0.1193  0.2249
   48CHL1   H14 5975  -0.246   0.232   9.333  2.6579 -0.4237 -1.1983
   48CHL1   C15 5976  -0.416   0.119   9.277 -0.5768  0.1555 -0.1575
   48CHL1  H15A 5977  -0.451   0.014   9.293 -1.0279  0.1597 -1.0268
   48CHL1  H15B 5978  -0.488   0.188   9.326 -0.3996 -0.6800  1.3314
   48CHL1   C16 5979  -0.405   0.153   9.126 -0.0825 -0.3378  0.2437
   48CHL1  H16A 5980  -0.467   0.087   9.061 -0.6844  0.5435 -0.0994
   48CHL1  H16B 5981  -0.444   0.256   9.116 -0.0193 -0.5064 -2.8350
   48CHL1   C17 5982  -0.255   0.153   9.089  0.4816 -0.2050 -0.9033
   48CHL1   H17 5983  -0.226   0.260   9.089  0.6833 -0.2553 -0.2081
   48CHL1   C13 5984  -0.186   0.082   9.206 -0.6635 -0.8072  0.4118
   48CHL1   C18 5985  -0.198  -0.070   9.189 -0.2597 -0.2140 -0.6532
   48CHL1  H18A 5986  -0.146  -0.105   9.097  2.0005  1.8895 -0.2559
   48CHL1  H18B 5987  -0.150  -0.121   9.275 -1.9143  0.9792  1.0660
   48CHL1  H18C 5988  -0.302  -0.108   9.187  0.3721 -2.0110 -1.3641
   48CHL1   C12 5989  -0.038   0.121   9.239 -0.7984  0.0437 -0.0288
   48CHL1  H12A 5990   0.038   0.085   9.166 -0.0026  2.9848 -0.7913
   48CHL1  H12B 5991  -0.036   0.232   9.232 -1.0191 -0.0100 -5.2402
   48CHL1   C11 5992   0.010   0.077   9.379  0.0677 -0.5425  0.4895
   48CHL1  H11A 5993   0.027  -0.032   9.365 -1.9370 -1.2690  3.0341
   48CHL1  H11B 5994   0.102   0.135   9.401 -0.0994  0.0699 -0.3577
   48CHL1    C9 5995  -0.091   0.114   9.493  0.4872 -0.5125  0.2863
   48CHL1    H9 5996  -0.089   0.225   9.499 -1.0351 -0.5213  2.2981
   48CHL1   C10 5997  -0.046   0.076   9.630 -0.0070  0.0273  1.0202
   48CHL1   C19 5998   0.017  -0.070   9.614  0.1166  0.0800 -1.0341
   48CHL1  H19A 5999   0.047  -0.106   9.715  0.1283  0.2249 -0.9852
   48CHL1  H19B 6000  -0.052  -0.145   9.570  0.6863 -0.4317 -1.0714
   48CHL1  H19C 6001   0.111  -0.079   9.556  1.2194  0.3813  0.6239
   48CHL1    C1 6002   0.065   0.177   9.684 -0.2145 -0.5743  0.3997
   48CHL1   H1A 6003   0.148   0.178   9.610 -1.1118  0.4347 -0.6328
   48CHL1   H1B 6004   0.014   0.275   9.677  0.1197 -0.2560  2.0560
   48CHL1    C2 6005   0.124   0.147   9.829  0.2165  0.6237  1.0733
   48CHL1   H2A 6006   0.181   0.237   9.858 -1.1198  1.8515  0.0602
   48CHL1   H2B 6007   0.178   0.049   9.827  1.6383  1.3766  1.3812
   48CHL1   C20 6008  -0.223   0.108   8.941 -0.6114  0.1015 -0.9748
   48CHL1   H20 6009  -0.260   0.003   8.931  1.8334 -0.7240 -2.4261
   48CHL1   C21 6010  -0.067   0.115   8.912 -0.1524  0.4081 -0.7229
   48CHL1  H21A 6011  -0.044   0.105   8.803  0.4219  1.3449 -0.6968
   48CHL1  H21B 6012  -0.015   0.040   8.975  2.5852  3.0512  0.4242
   48CHL1  H21C 6013  -0.028   0.217   8.933 -0.3684  0.1474  1.0372
   48CHL1   C22 6014  -0.296   0.195   8.834 -0.0447  0.6912 -0.3051
   48CHL1  H22A 6015  -0.405   0.193   8.852  0.1418 -2.0218  0.9607
   48CHL1  H22B 6016  -0.255   0.297   8.856 -0.5839  1.1000 -1.1653
   48CHL1   C23 6017  -0.281   0.158   8.678 -0.5570  0.1408 -0.1706
   48CHL1  H23A 6018  -0.182   0.196   8.642 -0.8250  1.2448  0.2007
   48CHL1  H23B 6019  -0.275   0.048   8.671 -0.0200  0.2049 -0.8692
   48CHL1   C24 6020  -0.394   0.203   8.583  0.0873 -0.6504  0.1897
   48CHL1  H24A 6021  -0.496   0.175   8.617 -1.0060  0.6598 -1.8246
   48CHL1  H24B 6022  -0.398   0.312   8.562  2.4340 -0.9982 -2.7333
   48CHL1   C25 6023  -0.381   0.118   8.450  1.3160  0.5482  0.3145
   48CHL1   H25 6024  -0.367   0.013   8.482  0.0007 -0.1385 -1.2102
   48CHL1   C26 6025  -0.516   0.128   8.370 -0.9244  0.0861 -0.3364
   48CHL1  H26A 6026  -0.588   0.073   8.434  1.4706 -1.4001  1.2605
   48CHL1  H26B 6027  -0.536   0.237   8.361  2.0465  0.9136  1.6412
   48CHL1  H26C 6028  -0.501   0.076   8.273 -0.7297 -0.4232 -0.0338
   48CHL1   C27 6029  -0.261   0.142   8.360  0.9971  0.0851 -0.1939
   48CHL1  H27A 6030  -0.161   0.142   8.409  0.8071 -0.1890  0.1935
   48CHL1  H27B 6031  -0.254   0.062   8.283 -0.1462  0.0681 -0.2942
   48CHL1  H27C 6032  -0.266   0.242   8.311  0.5197 -0.0436 -0.4174
   49CHL1    C3 6033   0.038   4.678  10.025  0.7282 -0.2460 -0.3499
   49CHL1    H3 6034  -0.069   4.662  10.048  1.0813 -0.6291  1.1368
   49CHL1    O3 6035   0.088   4.713  10.155  0.1037 -0.0792  0.6237
   49CHL1   H3' 6036   0.021   4.775  10.187  0.8546  1.6759 -1.0140
   49CHL1    C4 6037   0.115   4.559   9.973 -0.1107 -0.2542  0.5179
   49CHL1   H4A 6038   0.225   4.575   9.976 -0.1236  1.0586 -2.2850
   49CHL1   H4B 6039   0.117   4.465  10.032  4.6246  0.1562  1.4020
   49CHL1    C5 6040   0.071   4.535   9.828  0.7165 -0.3654 -0.9514
   49CHL1    C6 6041   0.007   4.416   9.797 -0.2652 -0.2263 -0.1408
   49CHL1    H6 6042  -0.012   4.341   9.874 -0.5804 -0.3666 -0.3510
   49CHL1    C7 6043  -0.044   4.379   9.660 -0.1719  0.0408 -0.4006
   49CHL1   H7A 6044  -0.019   4.272   9.641 -0.1224  0.0588 -0.4369
   49CHL1   H7B 6045  -0.153   4.387   9.645 -0.7733 -1.6434  2.3769
   49CHL1    C8 6046   0.041   4.463   9.554  0.1423  0.2569 -0.0841
   49CHL1    H8 6047   0.145   4.423   9.553  0.4297  0.9999 -0.6810
   49CHL1   C14 6048  -0.027   4.447   9.420  0.1413  0.4970  0.5053
   49CHL1   H14 6049  -0.129   4.488   9.436 -0.2189 -0.2369  0.1232
   49CHL1   C15 6050  -0.047   4.300   9.374 -0.5067 -0.0401 -0.3124
   49CHL1  H15A 6051   0.033   4.234   9.414 -1.7740 -0.6946  1.2645
   49CHL1  H15B 6052  -0.140   4.272   9.428 -0.1894 -1.4202 -0.4385
   49CHL1   C16 6053  -0.077   4.322   9.228  1.0179  0.1613  0.4214
   49CHL1  H16A 6054  -0.028   4.238   9.174  0.3062 -0.3298  0.5257
   49CHL1  H16B 6055  -0.187   4.311   9.215  0.6556  0.9595  2.5060
   49CHL1   C17 6056  -0.045   4.469   9.185 -0.0271  0.5410 -1.0955
   49CHL1   H17 6057  -0.144   4.520   9.191  0.3440  1.0822  1.3238
   49CHL1   C13 6058   0.033   4.519   9.306 -0.6360 -0.6446  0.3124
   49CHL1   C18 6059   0.179   4.466   9.286  0.2183  0.3608 -0.1502
   49CHL1  H18A 6060   0.181   4.356   9.270 -4.2972  0.2959 -1.6617
   49CHL1  H18B 6061   0.241   4.524   9.213  0.0531 -0.8098 -1.2551
   49CHL1  H18C 6062   0.228   4.468   9.386  1.1915  0.9992 -0.6200
   49CHL1   C12 6063   0.032   4.667   9.345  0.1425  0.6438 -0.0259
   49CHL1  H12A 6064   0.084   4.727   9.268  0.8614  1.0025  0.7195
   49CHL1  H12B 6065  -0.074   4.699   9.355  0.1643  0.3241  1.6348
   49CHL1   C11 6066   0.106   4.699   9.478 -0.4081  0.4018  0.6320
   49CHL1  H11A 6067   0.212   4.685   9.451 -0.2178  0.6312  1.2437
   49CHL1  H11B 6068   0.085   4.807   9.492 -0.8441  0.4167 -0.0792
   49CHL1    C9 6069   0.043   4.614   9.598 -0.0432  0.8520  0.9209
   49CHL1    H9 6070  -0.066   4.638   9.596 -0.2699 -0.0574 -1.1289
   49CHL1   C10 6071   0.100   4.652   9.734  0.1403  0.3452 -0.8837
   49CHL1   C19 6072   0.253   4.668   9.722 -0.5628 -1.1345  0.6252
   49CHL1  H19A 6073   0.291   4.753   9.662  0.4282 -0.7212  1.8181
   49CHL1  H19B 6074   0.276   4.696   9.827 -4.1108  1.9829  0.7804
   49CHL1  H19C 6075   0.295   4.574   9.681 -2.5691 -1.3075 -1.2296
   49CHL1    C1 6076   0.031   4.779   9.790 -0.2987  0.0014  0.5718
   49CHL1   H1A 6077   0.053   4.872   9.733  1.4274 -1.1857 -0.8144
   49CHL1   H1B 6078  -0.079   4.768   9.798 -0.3670  1.1757  1.5707
   49CHL1    C2 6079   0.073   4.801   9.939 -0.0594 -0.3680  0.3490
   49CHL1   H2A 6080   0.015   4.882   9.989  0.8807  0.0722  0.7351
   49CHL1   H2B 6081   0.181   4.818   9.954  0.4342 -0.3311 -2.6548
   49CHL1   C20 6082  -0.001   4.492   9.043 -0.3345 -0.2236  0.1519
   49CHL1   H20 6083   0.087   4.426   9.030 -0.7659 -0.9189  0.6814
   49CHL1   C21 6084   0.050   4.637   9.016 -0.6112 -0.1622 -0.0249
   49CHL1  H21A 6085  -0.018   4.721   9.043 -2.2877 -1.1001 -1.1625
   49CHL1  H21B 6086   0.079   4.660   8.911  1.8232  0.4915  0.7251
   49CHL1  H21C 6087   0.143   4.643   9.076 -0.9504 -0.6757  0.5647
   49CHL1   C22 6088  -0.117   4.453   8.946 -0.0467 -0.1833  0.2151
   49CHL1  H22A 6089  -0.150   4.349   8.964  0.5766 -0.4838 -0.3418
   49CHL1  H22B 6090  -0.202   4.521   8.971 -0.0195  0.1334 -0.5214
   49CHL1   C23 6091  -0.091   4.466   8.799  0.6039  0.3431 -0.4334
   49CHL1  H23A 6092  -0.062   4.570   8.774 -0.0427  0.7920  0.6180
   49CHL1  H23B 6093  -0.002   4.404   8.777  0.3176 -0.8003  1.4181
   49CHL1   C24 6094  -0.214   4.422   8.715  0.4547 -0.0449  0.0490
   49CHL1  H24A 6095  -0.271   4.340   8.764  1.7567 -0.6467  0.6295
   49CHL1  H24B 6096  -0.285   4.506   8.704  1.4418  0.9091  0.6450
   49CHL1   C25 6097  -0.178   4.370   8.581 -0.2483 -0.4079 -0.3801
   49CHL1   H25 6098  -0.125   4.274   8.600  2.9577  1.6144  1.8358
   49CHL1   C26 6099  -0.302   4.335   8.503 -0.7882  0.4259 -0.2649
   49CHL1  H26A 6100  -0.267   4.271   8.420  1.2113 -0.9976  1.5730
   49CHL1  H26B 6101  -0.370   4.266   8.556  1.1321 -2.4446 -1.2747
   49CHL1  H26C 6102  -0.355   4.420   8.455 -1.7864 -2.2874 -4.4929
   49CHL1   C27 6103  -0.085   4.463   8.499  0.6028 -0.1792 -0.1015
   49CHL1  H27A 6104  -0.135   4.560   8.477  0.8454  0.1758  0.8422
   49CHL1  H27B 6105   0.013   4.482   8.547  0.6320  2.1799 -1.0027
   49CHL1  H27C 6106  -0.059   4.425   8.398  0.5760 -0.1925 -0.1036
   50CHL1    C3 6107   5.437   3.384  10.161 -0.0579  0.0445  0.1101
   50CHL1    H3 6108   5.344   3.323  10.170 -1.7165  2.2783 -0.7919
   50CHL1    O3 6109   5.472   3.421  10.290  0.4952 -0.2664 -0.3126
   50CHL1   H3' 6110   5.558   3.385  10.308  0.3475  0.0189  1.0720
   50CHL1    C4 6111   5.562   3.308  10.104 -0.2085  0.2274 -0.6630
   50CHL1   H4A 6112   5.654   3.368  10.116  0.0145 -0.3300  0.6238
   50CHL1   H4B 6113   5.567   3.221  10.173  0.1791  0.3946 -0.4786
   50CHL1    C5 6114   5.524   3.273   9.959 -0.0659  0.4090  0.0158
   50CHL1    C6 6115   5.523   3.140   9.929  1.0479 -0.2419  0.3958
   50CHL1    H6 6116   5.558   3.063  10.000  2.4861 -0.4365 -0.4755
   50CHL1    C7 6117   5.509   3.089   9.787  0.1724  0.0248 -0.2859
   50CHL1   H7A 6118   5.595   3.025   9.759 -0.6605 -0.7279 -1.2055
   50CHL1   H7B 6119   5.413   3.033   9.788  0.2452 -0.2599  3.0859
   50CHL1    C8 6120   5.510   3.204   9.682 -0.2799 -0.1961  0.2687
   50CHL1    H8 6121   5.614   3.237   9.661 -0.2550 -1.2338 -1.4672
   50CHL1   C14 6122   5.458   3.146   9.553  0.3979  0.3741 -0.0681
   50CHL1   H14 6123   5.351   3.131   9.578  0.0523  2.4499 -0.1260
   50CHL1   C15 6124   5.519   3.015   9.489  0.9758 -0.0771 -0.1099
   50CHL1  H15A 6125   5.628   2.995   9.497  0.8078 -0.7705  0.5590
   50CHL1  H15B 6126   5.487   2.923   9.543 -1.0186  1.3217  1.2555
   50CHL1   C16 6127   5.468   3.012   9.348 -0.1012 -0.1116 -0.4395
   50CHL1  H16A 6128   5.559   2.986   9.290  0.8942 -0.3185  1.1422
   50CHL1  H16B 6129   5.384   2.940   9.334 -0.1997  0.0353 -0.5997
   50CHL1   C17 6130   5.399   3.151   9.319  0.1596  0.1037 -0.3613
   50CHL1   H17 6131   5.289   3.145   9.335 -0.3805 -0.6781 -3.6221
   50CHL1   C13 6132   5.452   3.241   9.432 -0.1495  0.0132  0.3798
   50CHL1   C18 6133   5.596   3.275   9.404  0.7940 -0.4433  0.6567
   50CHL1  H18A 6134   5.655   3.318   9.488  1.1988  1.8936 -0.7436
   50CHL1  H18B 6135   5.649   3.183   9.371 -0.3496 -1.3875  1.3587
   50CHL1  H18C 6136   5.596   3.349   9.321  0.6400 -0.7332  0.3969
   50CHL1   C12 6137   5.370   3.360   9.484 -0.0357 -0.5648 -0.4292
   50CHL1  H12A 6138   5.364   3.425   9.394  0.3234  1.8992  1.2340
   50CHL1  H12B 6139   5.268   3.324   9.508 -0.6698  1.5119  0.2148
   50CHL1   C11 6140   5.421   3.431   9.613 -0.8882 -0.2835  0.2689
   50CHL1  H11A 6141   5.521   3.470   9.582  0.0013 -2.1346  0.6386
   50CHL1  H11B 6142   5.348   3.514   9.625  0.8632  1.6230 -1.4352
   50CHL1    C9 6143   5.434   3.325   9.730  0.7089 -0.2429  0.0941
   50CHL1    H9 6144   5.334   3.280   9.749  1.1967 -2.2413 -1.6588
   50CHL1   C10 6145   5.482   3.382   9.869  0.6313 -0.3617 -0.2300
   50CHL1   C19 6146   5.607   3.467   9.850  1.0586 -0.5175  0.2173
   50CHL1  H19A 6147   5.700   3.409   9.830  0.7983 -1.0056  0.3928
   50CHL1  H19B 6148   5.578   3.542   9.774 -1.0596  0.0769  1.5102
   50CHL1  H19C 6149   5.622   3.537   9.935 -0.4259  1.5235 -1.1250
   50CHL1    C1 6150   5.370   3.465   9.932  0.2283 -0.5491  0.1654
   50CHL1   H1A 6151   5.345   3.557   9.875  0.8515  0.2016  1.0820
   50CHL1   H1B 6152   5.280   3.401   9.917  1.4035 -1.8978 -1.3906
   50CHL1    C2 6153   5.395   3.509  10.082  0.5496 -0.1742  0.0862
   50CHL1   H2A 6154   5.310   3.558  10.133  0.5124  0.5668 -0.6607
   50CHL1   H2B 6155   5.477   3.583  10.071  1.0274 -0.7160 -0.0629
   50CHL1   C20 6156   5.422   3.193   9.175  0.1687 -0.5919  0.4618
   50CHL1   H20 6157   5.531   3.200   9.154 -0.1086  1.8036 -0.4215
   50CHL1   C21 6158   5.357   3.336   9.145 -0.3439  1.2665 -0.1819
   50CHL1  H21A 6159   5.359   3.343   9.034 -1.7728  1.5825 -0.2109
   50CHL1  H21B 6160   5.414   3.423   9.186 -0.3541  1.5523 -0.7720
   50CHL1  H21C 6161   5.251   3.336   9.178 -0.5721 -2.8362 -0.4485
   50CHL1   C22 6162   5.363   3.093   9.074  0.5274 -0.1199 -0.0773
   50CHL1  H22A 6163   5.368   2.986   9.104 -3.7518 -0.4488  0.0554
   50CHL1  H22B 6164   5.254   3.111   9.064 -0.1498 -1.5335  3.3804
   50CHL1   C23 6165   5.438   3.110   8.936 -0.3164  0.3853  0.5235
   50CHL1  H23A 6166   5.424   3.213   8.896  0.1046  0.0896 -0.4128
   50CHL1  H23B 6167   5.547   3.096   8.952 -0.7803 -1.7919  2.3897
   50CHL1   C24 6168   5.390   3.009   8.824  0.1498 -0.6061 -0.7606
   50CHL1  H24A 6169   5.411   2.908   8.864 -0.3193 -0.4194 -0.0156
   50CHL1  H24B 6170   5.280   3.024   8.814  0.4016  0.5985 -1.9310
   50CHL1   C25 6171   5.450   3.029   8.687  0.1196  0.6260  0.1676
   50CHL1   H25 6172   5.413   3.125   8.647 -1.3737 -0.5729 -1.4636
   50CHL1   C26 6173   5.604   3.022   8.699  0.2912 -0.1478  0.4080
   50CHL1  H26A 6174   5.658   3.020   8.603  0.3370  0.9818  0.3949
   50CHL1  H26B 6175   5.623   3.118   8.752 -1.0508 -0.0400  0.7349
   50CHL1  H26C 6176   5.634   2.940   8.768  0.7043 -0.7347 -0.4550
   50CHL1   C27 6177   5.401   2.924   8.581 -0.0565  0.4989  0.0070
   50CHL1  H27A 6178   5.293   2.900   8.595  0.3446 -0.7888  1.2288
   50CHL1  H27B 6179   5.425   2.956   8.478  0.6112 -1.0605 -0.3578
   50CHL1  H27C 6180   5.456   2.830   8.604 -2.1818 -1.0376 -0.8478
   51CHL1    C3 6181   3.104   1.354  10.128  0.4847  0.4536 -0.2661
   51CHL1    H3 6182   3.047   1.265  10.162  0.0682  0.9340  0.3103
   51CHL1    O3 6183   3.159   1.414  10.240 -0.3488  0.1740  0.8571
   51CHL1   H3' 6184   3.213   1.482  10.200 -1.3236 -0.7145 -2.2852
   51CHL1    C4 6185   3.224   1.307  10.043 -0.2115  0.0625 -0.4223
   51CHL1   H4A 6186   3.294   1.391  10.026  0.8414 -0.4824  0.9909
   51CHL1   H4B 6187   3.270   1.232  10.111 -0.2874  1.6350  1.4423
   51CHL1    C5 6188   3.192   1.245   9.907 -0.2695 -0.2955 -0.8423
   51CHL1    C6 6189   3.247   1.131   9.860 -0.6558  0.3294  0.2186
   51CHL1    H6 6190   3.331   1.091   9.918 -0.0197  1.9102  0.4315
   51CHL1    C7 6191   3.224   1.072   9.718  0.0757  0.5013  0.7741
   51CHL1   H7A 6192   3.319   1.045   9.666  0.0748 -1.4247  1.6978
   51CHL1   H7B 6193   3.168   0.977   9.723 -0.3479  0.7239  0.3902
   51CHL1    C8 6194   3.138   1.171   9.636 -0.0307  0.0309  0.0253
   51CHL1    H8 6195   3.217   1.240   9.602  0.6077 -0.7752 -0.1520
   51CHL1   C14 6196   3.082   1.088   9.523 -0.6896  0.2122  0.4163
   51CHL1   H14 6197   3.018   1.011   9.569 -0.1336 -0.5012  0.0228
   51CHL1   C15 6198   3.187   1.017   9.431  0.6416 -0.3625 -0.4222
   51CHL1  H15A 6199   3.273   1.083   9.408  1.5472 -1.4564 -0.2464
   51CHL1  H15B 6200   3.220   0.931   9.493 -1.7998  0.0791  1.6374
   51CHL1   C16 6201   3.099   0.971   9.313  0.7852  0.2000  0.6818
   51CHL1  H16A 6202   3.148   0.989   9.214  0.6868 -1.8924  0.2049
   51CHL1  H16B 6203   3.079   0.862   9.307 -0.3763  0.4126  0.5620
   51CHL1   C17 6204   2.956   1.033   9.327  0.2189  0.4127 -0.0822
   51CHL1   H17 6205   2.888   0.965   9.383 -0.2305  0.8630 -0.0783
   51CHL1   C13 6206   2.984   1.150   9.425 -0.1190  0.2296  0.4903
   51CHL1   C18 6207   3.058   1.270   9.351  0.5861 -0.7739 -0.5931
   51CHL1  H18A 6208   2.987   1.332   9.293 -1.1485 -0.7188  1.4687
   51CHL1  H18B 6209   3.106   1.330   9.431  0.2883 -1.1510 -0.1268
   51CHL1  H18C 6210   3.143   1.234   9.288 -0.0660  1.1883 -2.7354
   51CHL1   C12 6211   2.865   1.204   9.505 -0.2564  0.2564 -0.1173
   51CHL1  H12A 6212   2.789   1.257   9.444 -1.2371 -0.6628  0.2669
   51CHL1  H12B 6213   2.803   1.114   9.528  0.6928 -0.3552  0.1153
   51CHL1   C11 6214   2.908   1.296   9.625 -0.5160 -0.9715  0.3039
   51CHL1  H11A 6215   2.952   1.385   9.575  2.6257 -2.1243  0.8203
   51CHL1  H11B 6216   2.823   1.331   9.688 -0.9235 -1.7713  0.2079
   51CHL1    C9 6217   3.022   1.236   9.710 -0.0636  0.5667 -0.0060
   51CHL1    H9 6218   2.974   1.155   9.769 -0.4039  0.4757 -0.4062
   51CHL1   C10 6219   3.074   1.324   9.828 -0.3497 -0.3018  0.5862
   51CHL1   C19 6220   3.135   1.448   9.757  0.1431  0.4824 -0.0171
   51CHL1  H19A 6221   3.070   1.504   9.686 -0.9562  1.0786  1.4275
   51CHL1  H19B 6222   3.176   1.521   9.829 -0.0364  1.0733 -0.5086
   51CHL1  H19C 6223   3.223   1.417   9.697 -0.6116 -0.2052 -0.8000
   51CHL1    C1 6224   2.957   1.374   9.919  0.3939 -1.0524  0.3856
   51CHL1   H1A 6225   2.888   1.442   9.865  1.0860 -1.0988 -0.5927
   51CHL1   H1B 6226   2.893   1.287   9.947 -1.8758  0.6052  0.6823
   51CHL1    C2 6227   2.996   1.440  10.055  0.1231  0.4625  0.3486
   51CHL1   H2A 6228   2.906   1.470  10.113 -1.0900 -1.3676 -0.5171
   51CHL1   H2B 6229   3.059   1.528  10.029 -0.0872  0.9979  1.5636
   51CHL1   C20 6230   2.891   1.065   9.195 -0.3025  0.3571  0.7267
   51CHL1   H20 6231   2.944   1.147   9.142 -0.0299 -0.7400 -0.7594
   51CHL1   C21 6232   2.750   1.118   9.221 -0.3798  1.2288  0.4238
   51CHL1  H21A 6233   2.757   1.229   9.221  0.5862  1.2654 -2.7746
   51CHL1  H21B 6234   2.698   1.079   9.311  1.1002 -0.3026  0.6615
   51CHL1  H21C 6235   2.689   1.082   9.135  1.3251 -1.2009  0.1349
   51CHL1   C22 6236   2.892   0.945   9.088  0.2487  0.1038  0.5566
   51CHL1  H22A 6237   2.997   0.910   9.086  0.4818  0.7849  0.3903
   51CHL1  H22B 6238   2.828   0.860   9.120 -0.3832  0.2185 -0.3452
   51CHL1   C23 6239   2.857   0.989   8.951  0.0315 -0.8694 -0.4080
   51CHL1  H23A 6240   2.763   1.047   8.948  0.3517 -0.1202  2.0018
   51CHL1  H23B 6241   2.928   1.060   8.904 -2.3297  0.7699 -1.7043
   51CHL1   C24 6242   2.829   0.866   8.860 -0.7783  0.0018  0.2983
   51CHL1  H24A 6243   2.744   0.812   8.909  0.4365 -1.1026  1.2758
   51CHL1  H24B 6244   2.788   0.906   8.765  0.6805 -0.8986 -0.7520
   51CHL1   C25 6245   2.941   0.758   8.829 -1.0328  0.2871 -0.1547
   51CHL1   H25 6246   2.976   0.714   8.925  0.4050 -0.8275 -1.1450
   51CHL1   C26 6247   2.892   0.651   8.740 -0.3763  0.1109  0.5447
   51CHL1  H26A 6248   2.847   0.689   8.646  2.0205  0.1536 -0.6636
   51CHL1  H26B 6249   2.972   0.583   8.704 -2.8352 -2.1467 -1.0207
   51CHL1  H26C 6250   2.816   0.584   8.786  0.1024 -1.5744 -0.9999
   51CHL1   C27 6251   3.060   0.834   8.764 -0.7490 -0.1148 -0.8292
   51CHL1  H27A 6252   3.133   0.769   8.711 -0.1430  1.1610 -1.6132
   51CHL1  H27B 6253   3.021   0.916   8.701 -1.1646  0.0013 -0.4201
   51CHL1  H27C 6254   3.127   0.881   8.840  2.2757 -2.8637 -1.5692
   52CHL1    C3 6255   0.994   0.678  10.064  0.1401  0.5963 -0.5948
   52CHL1    H3 6256   0.898   0.729  10.043  0.7129  1.7078 -0.5515
   52CHL1    O3 6257   1.030   0.697  10.200 -0.1453  0.3513  0.0758
   52CHL1   H3' 6258   1.105   0.639  10.216  1.7006  2.6076  0.2194
   52CHL1    C4 6259   0.988   0.530  10.045 -0.6783  0.6257  0.0643
   52CHL1   H4A 6260   1.090   0.485  10.051 -0.1290  1.6042 -1.2818
   52CHL1   H4B 6261   0.926   0.475  10.119  0.8008 -0.8644  0.2656
   52CHL1    C5 6262   0.939   0.498   9.903  0.1781 -0.6308  0.6140
   52CHL1    C6 6263   0.830   0.425   9.884 -0.0354  0.1304  0.3670
   52CHL1    H6 6264   0.785   0.372   9.969  0.9280 -0.9880  0.2050
   52CHL1    C7 6265   0.760   0.411   9.748  0.9164 -0.4856 -0.4990
   52CHL1   H7A 6266   0.722   0.309   9.727 -0.1244 -0.2189  0.0140
   52CHL1   H7B 6267   0.669   0.474   9.743 -0.0139 -1.6798  0.5512
   52CHL1    C8 6268   0.864   0.443   9.639  0.1306  0.5687 -0.9825
   52CHL1    H8 6269   0.937   0.360   9.643 -1.1881 -0.6292 -0.7198
   52CHL1   C14 6270   0.795   0.439   9.505 -0.1353  0.7345 -0.2471
   52CHL1   H14 6271   0.727   0.525   9.518  1.9740  2.6119 -0.9543
   52CHL1   C15 6272   0.709   0.313   9.466 -0.4106 -0.2479 -0.2263
   52CHL1  H15A 6273   0.762   0.218   9.490 -1.3792 -1.1330 -1.4717
   52CHL1  H15B 6274   0.614   0.323   9.523 -0.8311  2.5592 -1.2697
   52CHL1   C16 6275   0.678   0.329   9.318 -1.0390  0.2486 -0.4403
   52CHL1  H16A 6276   0.715   0.231   9.281 -2.1576 -0.9225  1.3551
   52CHL1  H16B 6277   0.572   0.351   9.290 -2.7831 -1.6465  3.8137
   52CHL1   C17 6278   0.775   0.441   9.270 -0.1900  0.1762  0.2433
   52CHL1   H17 6279   0.718   0.537   9.270  0.7970  0.7951 -0.4188
   52CHL1   C13 6280   0.881   0.474   9.385  0.0505 -0.1604  0.6812
   52CHL1   C18 6281   0.996   0.371   9.375  0.1433 -0.1744 -0.0026
   52CHL1  H18A 6282   0.963   0.268   9.351  2.5417 -1.1430  0.5993
   52CHL1  H18B 6283   1.068   0.398   9.294  0.5405  0.6325  0.6041
   52CHL1  H18C 6284   1.057   0.375   9.468  0.3382 -1.3810 -0.0556
   52CHL1   C12 6285   0.940   0.613   9.393 -0.6191  0.0961  0.2423
   52CHL1  H12A 6286   1.005   0.644   9.308  0.3786  1.5012  1.4555
   52CHL1  H12B 6287   0.853   0.682   9.404 -1.6833 -1.0023 -0.9323
   52CHL1   C11 6288   1.012   0.621   9.529 -0.3293 -0.3055  0.2507
   52CHL1  H11A 6289   1.105   0.560   9.523  1.1124  1.2269  3.8811
   52CHL1  H11B 6290   1.025   0.731   9.541 -1.3164  0.3764 -3.4886
   52CHL1    C9 6291   0.935   0.571   9.657 -0.0201  0.4274 -0.0672
   52CHL1    H9 6292   0.853   0.646   9.667 -0.7513 -0.3978  0.2557
   52CHL1   C10 6293   1.014   0.569   9.790  0.0168  0.1945  0.2366
   52CHL1   C19 6294   1.136   0.477   9.777  0.2645 -0.4189 -0.5718
   52CHL1  H19A 6295   1.198   0.495   9.867 -0.1097  3.1127 -0.8799
   52CHL1  H19B 6296   1.113   0.371   9.753 -1.9495 -0.0812 -0.1694
   52CHL1  H19C 6297   1.194   0.513   9.689  0.2705 -2.8727 -1.6485
   52CHL1    C1 6298   1.056   0.716   9.822 -0.4274  0.1580  0.3143
   52CHL1   H1A 6299   1.143   0.750   9.763 -1.1297  0.1265 -0.7588
   52CHL1   H1B 6300   0.971   0.782   9.796 -1.8381 -2.6058 -2.7188
   52CHL1    C2 6301   1.099   0.738   9.968 -0.2933 -0.2726  0.6241
   52CHL1   H2A 6302   1.120   0.845   9.993 -1.5075 -0.1841  1.3081
   52CHL1   H2B 6303   1.194   0.685   9.989 -0.1391 -1.1497 -1.9421
   52CHL1   C20 6304   0.843   0.431   9.126 -0.1130  0.6231 -0.1709
   52CHL1   H20 6305   0.947   0.470   9.127  1.5168 -3.1702 -1.2411
   52CHL1   C21 6306   0.752   0.516   9.033  0.1822 -0.4808  1.0873
   52CHL1  H21A 6307   0.645   0.490   9.039  0.3302 -1.3162  0.2545
   52CHL1  H21B 6308   0.785   0.497   8.929  1.6970  0.4208  1.3659
   52CHL1  H21C 6309   0.776   0.621   9.061 -1.0579  0.0209  0.3346
   52CHL1   C22 6310   0.850   0.290   9.063  0.8520 -0.4768  0.1355
   52CHL1  H22A 6311   0.906   0.226   9.135 -0.1523  0.6433  2.0191
   52CHL1  H22B 6312   0.748   0.245   9.060  0.3679  0.6140 -0.4244
   52CHL1   C23 6313   0.920   0.291   8.925 -0.6098 -0.0676 -0.6448
   52CHL1  H23A 6314   0.842   0.320   8.851 -0.7246  0.2574 -0.3950
   52CHL1  H23B 6315   1.016   0.346   8.917 -0.1090 -0.7206  0.5944
   52CHL1   C24 6316   0.968   0.151   8.888 -0.0941 -0.0177  0.3618
   52CHL1  H24A 6317   1.051   0.141   8.961  0.0295 -0.6652  0.1397
   52CHL1  H24B 6318   0.893   0.071   8.907 -0.3930  0.2686  0.4026
   52CHL1   C25 6319   1.027   0.129   8.747  0.1089 -0.2939 -0.3381
   52CHL1   H25 6320   1.112   0.195   8.721  0.0028  0.0243  0.1061
   52CHL1   C26 6321   1.087  -0.009   8.734 -0.3128 -0.5577  0.1832
   52CHL1  H26A 6322   1.022  -0.091   8.772  1.0421 -1.4990  0.5541
   52CHL1  H26B 6323   1.110  -0.036   8.629  1.8807 -0.6876  0.6485
   52CHL1  H26C 6324   1.175  -0.016   8.801 -0.6139  0.1987  0.6726
   52CHL1   C27 6325   0.911   0.146   8.650  0.6201 -0.4240 -0.0836
   52CHL1  H27A 6326   0.877   0.252   8.658  0.2052 -0.5273 -0.4132
   52CHL1  H27B 6327   0.939   0.123   8.545 -0.5663  0.7888 -0.7001
   52CHL1  H27C 6328   0.829   0.074   8.671 -0.4678  1.0832  1.0841
   53CHL1    C3 6329   4.240   4.430  10.140 -0.6553 -0.3806 -0.0511
   53CHL1    H3 6330   4.218   4.538  10.138 -1.9940 -0.6453 -0.5506
   53CHL1    O3 6331   4.277   4.389  10.270  0.1121  0.2615 -0.5146
   53CHL1   H3' 6332   4.284   4.293  10.269 -1.8351  0.0785 -1.6001
   53CHL1    C4 6333   4.115   4.361  10.111  0.4544 -1.1803  0.0345
   53CHL1   H4A 6334   4.133   4.252  10.125 -0.0471 -1.0491  1.9679
   53CHL1   H4B 6335   4.042   4.387  10.191  0.8581  1.0855 -0.2666
   53CHL1    C5 6336   4.063   4.388   9.976  0.1689  0.0478  0.2346
   53CHL1    C6 6337   3.936   4.431   9.961  0.7510  0.2617  0.5336
   53CHL1    H6 6338   3.870   4.435  10.048 -2.1461 -0.4774 -1.4611
   53CHL1    C7 6339   3.878   4.449   9.823 -0.0252  0.2157 -0.6051
   53CHL1   H7A 6340   3.776   4.404   9.818 -1.3057  2.9453 -1.4904
   53CHL1   H7B 6341   3.866   4.556   9.794  0.8708  0.9174  1.4422
   53CHL1    C8 6342   3.959   4.384   9.703  0.0305 -0.2557 -0.1942
   53CHL1    H8 6343   3.939   4.274   9.708  1.6502 -0.6920 -2.2295
   53CHL1   C14 6344   3.915   4.434   9.574 -0.3117 -0.5138 -0.1991
   53CHL1   H14 6345   3.939   4.542   9.572 -1.3575 -0.2066 -3.4436
   53CHL1   C15 6346   3.758   4.423   9.551 -0.3988 -0.0707 -0.0767
   53CHL1  H15A 6347   3.734   4.321   9.587  1.1578  0.1981  1.9384
   53CHL1  H15B 6348   3.708   4.498   9.616 -0.2020 -0.4807  0.5550
   53CHL1   C16 6349   3.745   4.430   9.398  0.1200  0.3252 -0.3584
   53CHL1  H16A 6350   3.688   4.345   9.355 -1.0158  0.3928  0.9520
   53CHL1  H16B 6351   3.691   4.520   9.362  0.1261 -0.0873 -1.4241
   53CHL1   C17 6352   3.893   4.431   9.345 -0.3693  0.0708  0.6541
   53CHL1   H17 6353   3.932   4.534   9.334  0.5252 -0.1587  1.4894
   53CHL1   C13 6354   3.979   4.369   9.456  0.1280 -0.3433 -0.5743
   53CHL1   C18 6355   3.959   4.219   9.454 -0.5057  0.6874  0.7314
   53CHL1  H18A 6356   3.997   4.186   9.553  0.0809  1.3474  0.7329
   53CHL1  H18B 6357   3.852   4.191   9.443 -1.0840  2.4730  1.4072
   53CHL1  H18C 6358   4.011   4.166   9.371 -0.4431  0.1743  1.0885
   53CHL1   C12 6359   4.135   4.396   9.454  0.0602 -0.0523 -0.2429
   53CHL1  H12A 6360   4.195   4.346   9.375 -0.4688 -0.5894 -0.3091
   53CHL1  H12B 6361   4.146   4.504   9.430  0.6233  0.0919  0.6340
   53CHL1   C11 6362   4.187   4.368   9.601 -0.2504 -0.1680  0.0908
   53CHL1  H11A 6363   4.193   4.257   9.609 -0.4179 -0.2510 -0.8125
   53CHL1  H11B 6364   4.290   4.409   9.605 -1.1126  2.0590  1.5637
   53CHL1    C9 6365   4.103   4.411   9.727  0.6589 -1.1743 -0.7276
   53CHL1    H9 6366   4.112   4.522   9.720 -1.6508 -1.0267 -2.5912
   53CHL1   C10 6367   4.166   4.369   9.864  0.5645  0.5231  0.2031
   53CHL1   C19 6368   4.170   4.212   9.854 -0.6179  0.1531 -0.3330
   53CHL1  H19A 6369   4.078   4.164   9.814  0.6724  0.1291 -3.6055
   53CHL1  H19B 6370   4.253   4.186   9.785  0.6164 -0.0399  1.1679
   53CHL1  H19C 6371   4.192   4.167   9.953  0.2025  0.0014 -0.5793
   53CHL1    C1 6372   4.298   4.438   9.897 -0.2311  0.7677 -0.0382
   53CHL1   H1A 6373   4.370   4.407   9.818 -0.3705  1.7368 -0.5725
   53CHL1   H1B 6374   4.300   4.548   9.883  0.9198  0.7060 -0.4835
   53CHL1    C2 6375   4.346   4.397  10.036  0.6739 -0.3105 -0.3868
   53CHL1   H2A 6376   4.438   4.454  10.062  0.4472  0.1422 -0.5479
   53CHL1   H2B 6377   4.372   4.290  10.033  3.8698  0.2325  2.5774
   53CHL1   C20 6378   3.894   4.372   9.201 -0.1663 -0.4598 -0.2073
   53CHL1   H20 6379   3.875   4.262   9.200 -0.9907 -0.3208  0.0329
   53CHL1   C21 6380   4.041   4.394   9.149  0.0497  0.0273  0.2406
   53CHL1  H21A 6381   4.050   4.380   9.039 -1.6213 -0.8990  0.1880
   53CHL1  H21B 6382   4.115   4.326   9.195  1.7388  2.7815  1.8668
   53CHL1  H21C 6383   4.089   4.491   9.174  0.5651  0.5585 -2.5058
   53CHL1   C22 6384   3.786   4.439   9.103 -0.4000  0.0973 -0.0830
   53CHL1  H22A 6385   3.685   4.417   9.144  0.2908 -3.0690  0.2222
   53CHL1  H22B 6386   3.815   4.545   9.116 -2.9441  0.6957  1.5449
   53CHL1   C23 6387   3.796   4.404   8.956  0.0835 -0.5451 -0.3606
   53CHL1  H23A 6388   3.895   4.432   8.913 -1.0711 -1.0437 -3.6856
   53CHL1  H23B 6389   3.783   4.294   8.947  0.5409 -0.8684  2.2477
   53CHL1   C24 6390   3.690   4.483   8.881  0.4272 -0.9335  0.7972
   53CHL1  H24A 6391   3.588   4.465   8.921 -1.0783  0.0364 -2.2889
   53CHL1  H24B 6392   3.712   4.592   8.883  0.6149 -0.9132 -1.0467
   53CHL1   C25 6393   3.676   4.449   8.721 -0.2194  0.5243 -0.1729
   53CHL1   H25 6394   3.645   4.344   8.702 -2.4216  1.2824 -1.1195
   53CHL1   C26 6395   3.558   4.533   8.665 -0.0836 -0.5520 -0.2865
   53CHL1  H26A 6396   3.532   4.515   8.559 -2.6666  0.0278  0.1747
   53CHL1  H26B 6397   3.464   4.495   8.711  0.3819 -2.6680 -0.9748
   53CHL1  H26C 6398   3.566   4.644   8.663 -0.1331 -0.4958  1.3340
   53CHL1   C27 6399   3.801   4.498   8.645  0.3417  0.1988  0.0715
   53CHL1  H27A 6400   3.894   4.446   8.676 -0.4737 -0.1838  1.9804
   53CHL1  H27B 6401   3.794   4.484   8.535  2.1009  0.4804 -0.1056
   53CHL1  H27C 6402   3.825   4.604   8.671 -1.2770  0.4131  0.8242
   54CHL1    C3 6403   2.123   1.443   9.899 -0.3604 -0.0427  0.0792
   54CHL1    H3 6404   2.186   1.533   9.885 -0.9117  0.1392 -1.5290
   54CHL1    O3 6405   2.158   1.411  10.032 -0.1574 -0.0185 -0.5014
   54CHL1   H3' 6406   2.153   1.316  10.041 -0.2447  0.0473  0.2056
   54CHL1    C4 6407   1.974   1.466   9.890  0.5593  0.6194 -0.7743
   54CHL1   H4A 6408   1.917   1.383   9.936  0.5857  1.7907  1.4873
   54CHL1   H4B 6409   1.938   1.549   9.955 -1.4443  0.6159 -1.7933
   54CHL1    C5 6410   1.913   1.480   9.757  0.1075  0.3288  0.0701
   54CHL1    C6 6411   1.821   1.576   9.722  0.6263  0.0731 -0.5950
   54CHL1    H6 6412   1.775   1.649   9.790  0.5005  0.7022 -1.3439
   54CHL1    C7 6413   1.758   1.583   9.587 -0.0403  0.1797  0.3143
   54CHL1   H7A 6414   1.648   1.590   9.601 -0.1443 -1.7797  0.8131
   54CHL1   H7B 6415   1.788   1.681   9.545 -1.4943  0.5476  0.0862
   54CHL1    C8 6416   1.775   1.461   9.494 -0.2697  0.4227 -0.7554
   54CHL1    H8 6417   1.704   1.386   9.535  0.5265  0.3181  0.5082
   54CHL1   C14 6418   1.751   1.491   9.348  0.5441 -0.0106 -0.2644
   54CHL1   H14 6419   1.833   1.559   9.316 -0.2369  1.3295  0.4790
   54CHL1   C15 6420   1.619   1.566   9.314  0.1263  0.0536 -0.4438
   54CHL1  H15A 6421   1.541   1.525   9.380 -0.3554  0.6185 -0.6460
   54CHL1  H15B 6422   1.615   1.677   9.323 -2.0921  0.0643 -0.8814
   54CHL1   C16 6423   1.591   1.534   9.161 -0.6364  0.1572 -0.5181
   54CHL1  H16A 6424   1.498   1.475   9.145 -0.5403  0.8763 -4.9102
   54CHL1  H16B 6425   1.587   1.631   9.108 -3.4088 -0.2495 -1.1954
   54CHL1   C17 6426   1.707   1.438   9.126 -0.2092 -0.2275  0.4797
   54CHL1   H17 6427   1.794   1.497   9.090 -0.3594 -1.9258 -3.2312
   54CHL1   C13 6428   1.755   1.368   9.259 -0.1474 -0.3734  0.5807
   54CHL1   C18 6429   1.651   1.254   9.299  0.5240 -0.3746  0.0036
   54CHL1  H18A 6430   1.650   1.165   9.232  1.9930 -0.5008  0.1295
   54CHL1  H18B 6431   1.677   1.201   9.393  0.5565  2.5326  1.7486
   54CHL1  H18C 6432   1.548   1.296   9.299  0.4175 -0.5645 -1.7614
   54CHL1   C12 6433   1.899   1.313   9.262 -0.7582  0.1237 -0.5629
   54CHL1  H12A 6434   1.905   1.219   9.203  0.4498  1.4903 -2.7688
   54CHL1  H12B 6435   1.974   1.387   9.226 -0.2670 -0.4892 -0.8228
   54CHL1   C11 6436   1.943   1.282   9.407 -0.1038 -0.0996  0.6783
   54CHL1  H11A 6437   1.877   1.195   9.430  2.1437 -2.5207 -1.3929
   54CHL1  H11B 6438   2.051   1.261   9.419  0.7323  3.7364  1.2075
   54CHL1    C9 6439   1.915   1.399   9.505  0.7703 -0.4208 -0.4670
   54CHL1    H9 6440   1.986   1.480   9.474  1.5368 -0.6343  0.6530
   54CHL1   C10 6441   1.961   1.374   9.653  0.0403  0.4763 -0.5078
   54CHL1   C19 6442   1.891   1.248   9.690 -0.1381  0.4630 -0.2749
   54CHL1  H19A 6443   1.942   1.160   9.645 -1.3252 -0.0037 -0.7448
   54CHL1  H19B 6444   1.905   1.222   9.797 -1.8877 -0.8940 -0.3252
   54CHL1  H19C 6445   1.782   1.249   9.668 -0.2585  0.3069  0.2917
   54CHL1    C1 6446   2.117   1.351   9.666  0.0787 -0.2275  0.3754
   54CHL1   H1A 6447   2.145   1.267   9.599  0.9848  0.2345  0.1607
   54CHL1   H1B 6448   2.147   1.451   9.629  1.9726 -0.8209  0.2315
   54CHL1    C2 6449   2.172   1.328   9.805  0.0571  0.0653 -0.0683
   54CHL1   H2A 6450   2.283   1.324   9.793  0.1635 -2.1554  1.1732
   54CHL1   H2B 6451   2.138   1.233   9.850  2.3162 -0.4709  0.6181
   54CHL1   C20 6452   1.674   1.349   9.007  0.4303  0.0698 -0.4424
   54CHL1   H20 6453   1.584   1.286   9.026  0.2462  0.3208 -0.4682
   54CHL1   C21 6454   1.790   1.254   8.968 -0.4717 -0.2866 -0.5641
   54CHL1  H21A 6455   1.807   1.174   9.044 -0.4770 -0.4944 -0.7791
   54CHL1  H21B 6456   1.878   1.321   8.965  0.9822 -2.1270 -0.5346
   54CHL1  H21C 6457   1.775   1.206   8.869 -2.5260 -0.5060 -0.1875
   54CHL1   C22 6458   1.643   1.438   8.887  0.5487 -0.3257 -0.1979
   54CHL1  H22A 6459   1.576   1.520   8.921  0.7971 -1.0994  2.3571
   54CHL1  H22B 6460   1.741   1.480   8.854  0.4171  1.0990  1.0987
   54CHL1   C23 6461   1.569   1.372   8.769  0.3988 -0.1014  0.0243
   54CHL1  H23A 6462   1.579   1.448   8.688  0.6346 -0.5614 -0.3901
   54CHL1  H23B 6463   1.633   1.283   8.750 -0.7305 -0.5042 -2.2399
   54CHL1   C24 6464   1.422   1.334   8.800 -0.1368 -0.3095  0.5647
   54CHL1  H24A 6465   1.418   1.245   8.867  0.1741 -1.2187 -0.5884
   54CHL1  H24B 6466   1.370   1.421   8.847 -0.3770 -0.6178  0.8758
   54CHL1   C25 6467   1.344   1.285   8.664 -0.1373 -0.2332  0.0285
   54CHL1   H25 6468   1.344   1.367   8.589 -0.9193  0.2545  0.5430
   54CHL1   C26 6469   1.415   1.169   8.590 -0.1500  0.1264 -0.3777
   54CHL1  H26A 6470   1.460   1.100   8.665  1.2329  1.3729 -0.0214
   54CHL1  H26B 6471   1.338   1.124   8.523  1.5222 -2.7049 -0.5509
   54CHL1  H26C 6472   1.501   1.205   8.530  0.5770  0.6380  0.9206
   54CHL1   C27 6473   1.194   1.253   8.698 -0.0758 -0.6270  0.1300
   54CHL1  H27A 6474   1.142   1.239   8.601  0.0406  0.2711 -0.0711
   54CHL1  H27B 6475   1.178   1.162   8.759  0.8335 -0.8028  0.1157
   54CHL1  H27C 6476   1.148   1.336   8.756 -0.3937  0.1687 -1.2220
   55CHL1    C3 6477   6.130   6.042   9.944  0.3054  0.1064  0.0080
   55CHL1    H3 6478   6.152   5.944   9.896  3.1925  0.0298  1.2695
   55CHL1    O3 6479   6.189   6.048  10.072 -0.5287 -0.5251 -0.5398
   55CHL1   H3' 6480   6.168   6.135  10.106  0.4705 -0.8610  1.0769
   55CHL1    C4 6481   6.171   6.158   9.860  0.4269  0.2577 -0.0601
   55CHL1   H4A 6482   6.154   6.257   9.906  3.0093 -0.2222  2.1214
   55CHL1   H4B 6483   6.282   6.159   9.854  0.3737 -0.3805 -2.3104
   55CHL1    C5 6484   6.106   6.144   9.722 -0.6214  0.0321 -0.6038
   55CHL1    C6 6485   6.186   6.106   9.619 -0.5318 -0.2034  0.6151
   55CHL1    H6 6486   6.295   6.094   9.625 -0.3034  1.0627 -0.4780
   55CHL1    C7 6487   6.133   6.086   9.484 -0.2435  0.0760  0.7308
   55CHL1   H7A 6488   6.212   6.112   9.410  0.2949 -1.9027  0.5438
   55CHL1   H7B 6489   6.113   5.981   9.455 -1.2569  0.7949 -1.3589
   55CHL1    C8 6490   5.999   6.163   9.465 -0.0676 -0.4666  0.7096
   55CHL1    H8 6491   6.024   6.271   9.463  0.5512 -0.5949 -1.7413
   55CHL1   C14 6492   5.944   6.135   9.328  0.6527  0.2439 -0.0774
   55CHL1   H14 6493   5.923   6.026   9.316 -4.1421  0.9822 -0.5014
   55CHL1   C15 6494   6.036   6.162   9.210 -0.2385 -0.6279 -0.8150
   55CHL1  H15A 6495   6.070   6.265   9.235  0.1497 -1.3660  2.1312
   55CHL1  H15B 6496   6.128   6.099   9.207  0.6889  0.5763  0.5751
   55CHL1   C16 6497   5.934   6.154   9.089 -0.6343  0.2653  0.1284
   55CHL1  H16A 6498   5.953   6.253   9.042 -0.1274  0.7290  1.2734
   55CHL1  H16B 6499   5.955   6.075   9.013 -1.9655  0.2814 -0.2867
   55CHL1   C17 6500   5.794   6.142   9.146  0.2411 -0.4275 -1.1169
   55CHL1   H17 6501   5.770   6.034   9.154  1.0016 -0.5799 -0.7982
   55CHL1   C13 6502   5.815   6.197   9.297  0.7027  0.4266  0.4682
   55CHL1   C18 6503   5.822   6.352   9.285 -0.1167  0.3416 -0.6529
   55CHL1  H18A 6504   5.868   6.398   9.376  0.4642 -2.3997  0.5340
   55CHL1  H18B 6505   5.878   6.389   9.196  1.6277 -1.0725 -0.2038
   55CHL1  H18C 6506   5.717   6.385   9.273 -0.4091 -0.0159  0.7082
   55CHL1   C12 6507   5.707   6.145   9.399 -0.3410 -0.8644  0.2274
   55CHL1  H12A 6508   5.607   6.193   9.386 -0.2488 -0.4203  1.0971
   55CHL1  H12B 6509   5.689   6.038   9.376  0.1369 -0.9953  0.4620
   55CHL1   C11 6510   5.752   6.173   9.543 -0.5042  0.5238  0.1950
   55CHL1  H11A 6511   5.763   6.284   9.546  1.8033  0.3255  2.9525
   55CHL1  H11B 6512   5.679   6.155   9.624 -0.2383 -0.4274  0.2276
   55CHL1    C9 6513   5.895   6.125   9.568  0.0013 -0.2802  0.0870
   55CHL1    H9 6514   5.896   6.015   9.556  0.7008 -0.2022 -0.6909
   55CHL1   C10 6515   5.953   6.161   9.711 -0.1781 -0.1195  0.2959
   55CHL1   C19 6516   5.925   6.307   9.740  0.1230 -0.6324  0.6986
   55CHL1  H19A 6517   5.963   6.336   9.840  0.8472 -0.8645  0.4915
   55CHL1  H19B 6518   5.968   6.373   9.662 -1.0646  0.9202  1.2926
   55CHL1  H19C 6519   5.818   6.337   9.742 -0.3941 -1.5768 -3.2565
   55CHL1    C1 6520   5.895   6.072   9.820 -0.2418  0.1372 -0.0362
   55CHL1   H1A 6521   5.790   6.104   9.839 -0.8520 -2.3399  1.0366
   55CHL1   H1B 6522   5.870   5.972   9.780 -1.3981  1.2294 -2.2551
   55CHL1    C2 6523   5.975   6.050   9.959 -0.6030  0.3386 -0.2114
   55CHL1   H2A 6524   5.940   5.960  10.013  1.2713 -0.2744  0.0648
   55CHL1   H2B 6525   5.943   6.129  10.030  0.3410 -0.5015  1.2030
   55CHL1   C20 6526   5.680   6.200   9.059  0.3475  0.9375 -0.8258
   55CHL1   H20 6527   5.701   6.309   9.050  3.0021  0.5163 -0.7897
   55CHL1   C21 6528   5.539   6.169   9.114 -0.1283  0.2675 -0.0889
   55CHL1  H21A 6529   5.528   6.061   9.139 -0.7517  0.4119  0.2744
   55CHL1  H21B 6530   5.463   6.197   9.038 -0.7465 -3.4389 -1.0692
   55CHL1  H21C 6531   5.515   6.232   9.203  2.0965  1.5276 -0.3196
   55CHL1   C22 6532   5.694   6.153   8.911 -0.3471  0.0978  0.0974
   55CHL1  H22A 6533   5.798   6.163   8.872 -0.5988 -1.9495 -1.2326
   55CHL1  H22B 6534   5.681   6.043   8.922  1.6820 -0.0094  2.3042
   55CHL1   C23 6535   5.611   6.208   8.800  0.0906 -0.9007  0.5256
   55CHL1  H23A 6536   5.501   6.201   8.816 -0.2456  1.2885 -0.4914
   55CHL1  H23B 6537   5.641   6.315   8.796  0.5353 -1.0536 -0.7903
   55CHL1   C24 6538   5.629   6.149   8.660 -0.1652 -0.0897  0.4394
   55CHL1  H24A 6539   5.738   6.145   8.638  0.3088 -0.5910  2.6108
   55CHL1  H24B 6540   5.588   6.046   8.655 -0.2270 -0.0267 -0.3351
   55CHL1   C25 6541   5.546   6.207   8.542  0.0106 -0.4113 -0.3723
   55CHL1   H25 6542   5.447   6.229   8.589  0.1646 -1.6350  0.5787
   55CHL1   C26 6543   5.601   6.344   8.506 -0.8229  0.9380 -0.3277
   55CHL1  H26A 6544   5.638   6.409   8.588 -2.8674 -0.8006  2.1467
   55CHL1  H26B 6545   5.686   6.321   8.439  0.3761  2.1709  0.7248
   55CHL1  H26C 6546   5.528   6.410   8.455 -0.9783  1.0425  0.0287
   55CHL1   C27 6547   5.521   6.118   8.422  0.7377  0.2963 -0.6167
   55CHL1  H27A 6548   5.471   6.020   8.436  0.4773  0.5353  0.2094
   55CHL1  H27B 6549   5.457   6.173   8.350  0.6393  0.3949 -0.4539
   55CHL1  H27C 6550   5.619   6.105   8.372  1.2732  2.8544 -0.4022
   56CHL1    C3 6551   0.492   4.213  10.032  0.1220  0.3281 -0.7435
   56CHL1    H3 6552   0.602   4.230  10.028  0.4481 -0.2817  2.5243
   56CHL1    O3 6553   0.457   4.234  10.165  0.1160 -0.3452 -0.6178
   56CHL1   H3' 6554   0.362   4.221  10.166  0.1457 -0.5488 -0.3847
   56CHL1    C4 6555   0.425   4.312   9.941  0.4346  0.6577  0.1401
   56CHL1   H4A 6556   0.319   4.283   9.953  0.5145 -1.1932 -2.6848
   56CHL1   H4B 6557   0.439   4.417   9.976  2.2519  1.1038 -1.6883
   56CHL1    C5 6558   0.471   4.307   9.798  0.0870 -0.0292 -0.3524
   56CHL1    C6 6559   0.519   4.407   9.728  0.1553  0.3970 -0.0712
   56CHL1    H6 6560   0.522   4.507   9.774 -2.2983 -0.1474  1.4966
   56CHL1    C7 6561   0.545   4.399   9.575  0.3289 -0.5711  0.4248
   56CHL1   H7A 6562   0.507   4.490   9.524  0.4880  1.4985  3.7678
   56CHL1   H7B 6563   0.654   4.415   9.574  0.2225  0.2040 -0.1114
   56CHL1    C8 6564   0.490   4.270   9.503 -1.0031  1.0580 -0.4409
   56CHL1    H8 6565   0.380   4.283   9.492 -1.2445 -0.8392 -0.6623
   56CHL1   C14 6566   0.576   4.240   9.378  0.6783 -0.2541  0.6177
   56CHL1   H14 6567   0.676   4.226   9.423  1.7283 -0.0882 -1.5304
   56CHL1   C15 6568   0.593   4.349   9.271  0.4153 -0.0480 -0.0390
   56CHL1  H15A 6569   0.497   4.402   9.250 -0.4107 -1.5755 -0.2908
   56CHL1  H15B 6570   0.669   4.425   9.298 -0.1921  0.5343  0.0935
   56CHL1   C16 6571   0.640   4.269   9.143 -0.7281 -0.0890 -1.1430
   56CHL1  H16A 6572   0.582   4.302   9.055  2.8404  0.5570 -3.4513
   56CHL1  H16B 6573   0.745   4.300   9.125 -0.0830 -0.3193  1.7129
   56CHL1   C17 6574   0.640   4.118   9.179  0.7631 -0.0076  0.2510
   56CHL1   H17 6575   0.738   4.088   9.223  0.6905 -0.3408  0.1840
   56CHL1   C13 6576   0.544   4.117   9.297 -0.3566 -0.0337 -0.4471
   56CHL1   C18 6577   0.400   4.134   9.235  0.4351 -0.0844  0.3466
   56CHL1  H18A 6578   0.318   4.158   9.306  0.6743  3.2767 -0.3578
   56CHL1  H18B 6579   0.393   4.212   9.156 -1.0316  0.5456  1.0530
   56CHL1  H18C 6580   0.376   4.040   9.180 -1.0932  1.2488 -1.4158
   56CHL1   C12 6581   0.552   3.991   9.385 -0.6047  0.5913 -0.2586
   56CHL1  H12A 6582   0.493   3.910   9.338 -1.7955  1.4570 -0.3125
   56CHL1  H12B 6583   0.658   3.959   9.395 -0.7489  0.2226  0.1193
   56CHL1   C11 6584   0.485   4.011   9.517  0.0550  0.3071 -0.1368
   56CHL1  H11A 6585   0.375   4.003   9.503  0.3585 -0.5619 -2.5643
   56CHL1  H11B 6586   0.511   3.936   9.594 -0.1659  1.7531  1.4161
   56CHL1    C9 6587   0.515   4.147   9.598  0.2844  0.0660  0.7966
   56CHL1    H9 6588   0.623   4.134   9.620  0.8547 -1.3045 -2.2468
   56CHL1   C10 6589   0.446   4.167   9.740 -0.1566  0.1742  0.0230
   56CHL1   C19 6590   0.294   4.152   9.720  0.5847  0.2289 -0.3890
   56CHL1  H19A 6591   0.228   4.143   9.809  1.9321 -1.7846  0.4726
   56CHL1  H19B 6592   0.259   4.227   9.646  1.3410  1.1807  0.1813
   56CHL1  H19C 6593   0.270   4.055   9.671  0.8868  0.0169 -0.1205
   56CHL1    C1 6594   0.499   4.054   9.839  0.2211 -0.2371 -0.1160
   56CHL1   H1A 6595   0.479   3.955   9.792  1.4941 -0.2795 -0.6088
   56CHL1   H1B 6596   0.606   4.082   9.850 -0.7777  2.8367  4.3194
   56CHL1    C2 6597   0.455   4.067   9.990 -0.3270 -0.4478 -0.1410
   56CHL1   H2A 6598   0.500   3.986  10.052 -0.8135  1.5491  3.0621
   56CHL1   H2B 6599   0.344   4.064   9.992 -0.3176 -0.7487  0.2569
   56CHL1   C20 6600   0.618   4.031   9.054 -0.2640 -0.2772 -0.6378
   56CHL1   H20 6601   0.510   4.032   9.025  0.2595  2.9505 -3.0569
   56CHL1   C21 6602   0.652   3.886   9.097  1.0728  0.3438 -0.2709
   56CHL1  H21A 6603   0.666   3.818   9.010  0.0231 -1.0683  0.6116
   56CHL1  H21B 6604   0.576   3.849   9.170  0.0630  1.0578 -0.9261
   56CHL1  H21C 6605   0.749   3.874   9.150  0.0806 -1.1426  1.3128
   56CHL1   C22 6606   0.698   4.077   8.926  0.0842  0.6005  0.0658
   56CHL1  H22A 6607   0.673   4.185   8.914 -2.7896  0.7262  4.6121
   56CHL1  H22B 6608   0.805   4.064   8.956  0.3744  1.9647 -0.2746
   56CHL1   C23 6609   0.641   4.001   8.803  0.6739  0.4826 -0.1840
   56CHL1  H23A 6610   0.653   3.892   8.823  1.3220  0.7348  0.8270
   56CHL1  H23B 6611   0.531   4.016   8.802  0.3308 -1.3921  1.5737
   56CHL1   C24 6612   0.706   4.053   8.679 -0.2082 -0.0399 -0.9406
   56CHL1  H24A 6613   0.676   4.160   8.676  0.6386  0.1972 -0.9813
   56CHL1  H24B 6614   0.817   4.050   8.682 -0.1903  0.3064  2.7174
   56CHL1   C25 6615   0.663   3.982   8.552  0.0204 -0.5812  0.1009
   56CHL1   H25 6616   0.552   3.975   8.556  0.1135 -1.7409  2.6982
   56CHL1   C26 6617   0.714   4.073   8.435  0.0753  0.2414 -0.4588
   56CHL1  H26A 6618   0.689   4.179   8.457 -0.5661 -0.2068  1.1677
   56CHL1  H26B 6619   0.820   4.049   8.412 -0.3630 -2.0477 -0.3800
   56CHL1  H26C 6620   0.665   4.042   8.340 -0.3872 -0.4802  0.0043
   56CHL1   C27 6621   0.722   3.842   8.547  0.4928  0.1865  0.0943
   56CHL1  H27A 6622   0.712   3.789   8.644  1.6976 -0.8245 -0.3040
   56CHL1  H27B 6623   0.711   3.786   8.452 -0.5255 -0.4609  0.5693
   56CHL1  H27C 6624   0.832   3.853   8.553  0.6366 -1.2352  0.4200
   57CHL1    C3 6625   3.935   6.305  10.209 -0.0985  0.6761 -0.3275
   57CHL1    H3 6626   3.830   6.291  10.244  0.9015  0.1818  2.8249
   57CHL1    O3 6627   4.004   6.326  10.328  0.0728 -0.1328 -0.3086
   57CHL1   H3' 6628   3.977   6.251  10.381  1.4853 -0.2878  0.2428
   57CHL1    C4 6629   3.979   6.176  10.139  0.2901 -0.2245  0.2278
   57CHL1   H4A 6630   4.088   6.187  10.117  0.9473 -0.0409  3.1204
   57CHL1   H4B 6631   3.977   6.102  10.222  1.4081  1.8078  2.1566
   57CHL1    C5 6632   3.909   6.147  10.012  0.7186  0.0792 -0.7384
   57CHL1    C6 6633   3.822   6.047  10.002 -1.4772  0.2338 -0.4392
   57CHL1    H6 6634   3.808   5.982  10.089 -2.8120  1.7082  0.5150
   57CHL1    C7 6635   3.738   6.026   9.883 -0.4601 -0.3741  0.2893
   57CHL1   H7A 6636   3.748   5.921   9.848 -1.0636 -0.6030  0.7844
   57CHL1   H7B 6637   3.631   6.043   9.907 -0.8280 -0.5774 -1.1461
   57CHL1    C8 6638   3.795   6.105   9.761  0.2007  0.2127  0.5467
   57CHL1    H8 6639   3.891   6.062   9.727 -0.5794  0.3459 -2.0920
   57CHL1   C14 6640   3.687   6.092   9.641 -0.7486  0.3704 -0.9669
   57CHL1   H14 6641   3.593   6.131   9.685  0.2376 -0.3848  2.0473
   57CHL1   C15 6642   3.650   5.952   9.585 -0.2763 -0.0030 -0.7617
   57CHL1  H15A 6643   3.736   5.884   9.571  0.8362  1.4772 -1.4146
   57CHL1  H15B 6644   3.569   5.891   9.630  0.6467 -0.4344  0.3629
   57CHL1   C16 6645   3.589   5.974   9.443 -0.7394 -0.3403  0.2698
   57CHL1  H16A 6646   3.651   5.928   9.363 -0.7733 -1.8815  1.0978
   57CHL1  H16B 6647   3.483   5.943   9.434 -1.1751  0.9386  0.7019
   57CHL1   C17 6648   3.608   6.127   9.424 -0.1409 -0.4735  0.2803
   57CHL1   H17 6649   3.516   6.166   9.472 -0.0944  0.9410 -0.7083
   57CHL1   C13 6650   3.721   6.175   9.519 -0.9494 -0.0968  0.8014
   57CHL1   C18 6651   3.856   6.134   9.458 -0.4265 -0.4107 -0.2733
   57CHL1  H18A 6652   3.879   6.204   9.375 -2.1324 -0.3610 -0.7523
   57CHL1  H18B 6653   3.938   6.136   9.532  0.6884 -2.3839 -1.3545
   57CHL1  H18C 6654   3.848   6.029   9.421  0.6549 -0.5558 -0.1268
   57CHL1   C12 6655   3.730   6.321   9.555 -0.4121 -0.0706  0.1804
   57CHL1  H12A 6656   3.758   6.384   9.467  0.0864  1.3524  1.3258
   57CHL1  H12B 6657   3.624   6.344   9.580 -0.0874  1.1856  0.5051
   57CHL1   C11 6658   3.830   6.349   9.666  0.1576 -0.1903 -0.0273
   57CHL1  H11A 6659   3.933   6.342   9.624  0.1542 -3.5552  0.2712
   57CHL1  H11B 6660   3.810   6.453   9.699  1.3439  0.1093 -0.2178
   57CHL1    C9 6661   3.814   6.253   9.789 -0.5034  0.8458 -1.0125
   57CHL1    H9 6662   3.718   6.282   9.837  0.8290 -1.1999  3.3160
   57CHL1   C10 6663   3.918   6.266   9.909 -0.0696  0.1792  0.8620
   57CHL1   C19 6664   4.062   6.264   9.847 -0.0916 -0.3528 -0.2969
   57CHL1  H19A 6665   4.068   6.347   9.773  1.8747  1.3107  1.6202
   57CHL1  H19B 6666   4.141   6.284   9.922  0.5018  0.2653 -1.0629
   57CHL1  H19C 6667   4.074   6.165   9.798  0.6771  1.0983 -3.2764
   57CHL1    C1 6668   3.901   6.402   9.982  0.9699  0.3889  0.1240
   57CHL1   H1A 6669   3.931   6.480   9.908  2.5624 -2.1559 -2.0911
   57CHL1   H1B 6670   3.793   6.423  10.000  1.1791  0.3228  1.6104
   57CHL1    C2 6671   3.964   6.425  10.119  0.6770 -0.4600 -0.3995
   57CHL1   H2A 6672   3.925   6.526  10.144  1.7104 -0.0054 -0.5665
   57CHL1   H2B 6673   4.074   6.430  10.111  0.6184 -0.3767 -1.2217
   57CHL1   C20 6674   3.599   6.186   9.284  0.1812  0.3111  0.1148
   57CHL1   H20 6675   3.631   6.292   9.290 -1.9875  1.2451 -2.8249
   57CHL1   C21 6676   3.449   6.190   9.243 -0.2139 -0.0412  0.4043
   57CHL1  H21A 6677   3.403   6.264   9.311 -0.9093 -0.6248  0.5841
   57CHL1  H21B 6678   3.401   6.091   9.260 -2.0543  0.5730 -0.8607
   57CHL1  H21C 6679   3.431   6.223   9.138 -1.3173  2.6058  1.3497
   57CHL1   C22 6680   3.682   6.114   9.177  0.0771 -0.5280  0.3147
   57CHL1  H22A 6681   3.782   6.082   9.212  0.1507 -0.5158  0.1194
   57CHL1  H22B 6682   3.644   6.012   9.154  2.0785 -1.9429  2.8595
   57CHL1   C23 6683   3.690   6.198   9.049 -0.2705 -0.0997 -0.7579
   57CHL1  H23A 6684   3.590   6.205   9.001 -0.3653  0.9037 -0.4454
   57CHL1  H23B 6685   3.715   6.303   9.078  0.1288 -0.3498 -0.1737
   57CHL1   C24 6686   3.783   6.142   8.948  0.5621 -0.3822 -0.6190
   57CHL1  H24A 6687   3.889   6.155   8.979 -0.1067  2.4719  0.7584
   57CHL1  H24B 6688   3.768   6.032   8.945 -1.8653 -0.1592  0.8197
   57CHL1   C25 6689   3.754   6.186   8.804 -0.4062 -0.0785  0.4980
   57CHL1   H25 6690   3.648   6.154   8.791 -0.4145  0.8185 -2.3277
   57CHL1   C26 6691   3.763   6.337   8.790 -0.5361  0.7625  0.1524
   57CHL1  H26A 6692   3.748   6.389   8.887  1.1555 -0.5204  1.1679
   57CHL1  H26B 6693   3.854   6.375   8.740  0.4815 -1.0658  0.5128
   57CHL1  H26C 6694   3.697   6.373   8.709 -0.8215 -2.0109 -0.9493
   57CHL1   C27 6695   3.843   6.113   8.708  0.4633  0.2340 -0.8657
   57CHL1  H27A 6696   3.817   6.005   8.711 -0.0833  0.3770  0.0383
   57CHL1  H27B 6697   3.837   6.146   8.602  3.4548 -0.8681 -1.4809
   57CHL1  H27C 6698   3.948   6.127   8.742  0.1279  1.9724 -0.4375
   58CHL1    C3 6699   6.272   4.693   9.936  0.5526  0.1075 -0.3883
   58CHL1    H3 6700   6.296   4.799   9.914  0.1392 -0.0630 -1.7617
   58CHL1    O3 6701   6.261   4.689  10.076  0.3198  0.2398 -0.7742
   58CHL1   H3' 6702   6.241   4.597  10.096  0.6754  0.5445  1.2368
   58CHL1    C4 6703   6.131   4.661   9.884  0.8128  0.0059  0.5074
   58CHL1   H4A 6704   6.092   4.567   9.929 -0.3939 -0.1391 -0.7652
   58CHL1   H4B 6705   6.061   4.736   9.927  1.8955  0.3912  1.6501
   58CHL1    C5 6706   6.126   4.660   9.735  0.0196 -0.5154 -0.1231
   58CHL1    C6 6707   6.036   4.739   9.667  0.4248  0.1499 -0.3587
   58CHL1    H6 6708   5.965   4.802   9.723  0.6578  0.2104 -0.1344
   58CHL1    C7 6709   6.038   4.755   9.517  0.2357 -0.2962  1.1532
   58CHL1   H7A 6710   5.933   4.763   9.480  0.6346  0.5857  0.1903
   58CHL1   H7B 6711   6.091   4.850   9.495 -1.7923  0.6877  0.1804
   58CHL1    C8 6712   6.104   4.634   9.454  0.4290  0.2050  0.6845
   58CHL1    H8 6713   6.033   4.549   9.463 -1.7268  1.4314 -2.6286
   58CHL1   C14 6714   6.119   4.662   9.305 -0.0177  0.0887  0.4461
   58CHL1   H14 6715   6.177   4.752   9.277  1.7263 -1.8375 -2.6702
   58CHL1   C15 6716   5.980   4.680   9.226  0.2141  0.0457  0.5801
   58CHL1  H15A 6717   5.907   4.603   9.258 -1.2787 -0.3927 -3.4367
   58CHL1  H15B 6718   5.923   4.775   9.237 -0.5344 -0.1743 -1.1520
   58CHL1   C16 6719   6.020   4.664   9.085 -0.3668 -0.6236  0.4344
   58CHL1  H16A 6720   5.945   4.601   9.033 -1.3979  0.5634  0.4340
   58CHL1  H16B 6721   6.036   4.768   9.050  0.5025 -0.2259  1.9191
   58CHL1   C17 6722   6.162   4.608   9.085 -0.7059 -0.0326 -0.0356
   58CHL1   H17 6723   6.235   4.690   9.064  0.8186 -1.2713  0.2279
   58CHL1   C13 6724   6.195   4.555   9.228  0.2011 -0.9779  0.1341
   58CHL1   C18 6725   6.121   4.420   9.241  0.7194  0.0795 -0.0692
   58CHL1  H18A 6726   6.163   4.337   9.181 -0.6955 -1.0863  0.4992
   58CHL1  H18B 6727   6.123   4.383   9.346 -0.8705 -2.8800 -0.9526
   58CHL1  H18C 6728   6.011   4.423   9.224  0.9864  3.9523 -2.1848
   58CHL1   C12 6729   6.336   4.537   9.280  0.2310  0.5711  0.4028
   58CHL1  H12A 6730   6.393   4.454   9.234 -0.0730  0.3737  0.3757
   58CHL1  H12B 6731   6.413   4.617   9.269  1.7688 -1.1095 -2.1915
   58CHL1   C11 6732   6.336   4.515   9.431  0.7563  0.7534 -0.3217
   58CHL1  H11A 6733   6.314   4.411   9.464  2.2494  0.2880 -0.6763
   58CHL1  H11B 6734   6.442   4.526   9.463  1.0650 -0.1278 -0.9924
   58CHL1    C9 6735   6.242   4.613   9.512 -0.4308  0.3232 -0.1218
   58CHL1    H9 6736   6.299   4.708   9.506  3.0785 -1.7104 -2.7749
   58CHL1   C10 6737   6.235   4.586   9.666 -0.1503 -0.4285 -0.5617
   58CHL1   C19 6738   6.194   4.441   9.699 -0.8308 -0.2551  0.2175
   58CHL1  H19A 6739   6.104   4.406   9.645 -0.7548 -1.6343  0.9385
   58CHL1  H19B 6740   6.276   4.378   9.660 -0.6886  1.1560 -1.9599
   58CHL1  H19C 6741   6.201   4.413   9.806 -1.7341 -2.0706 -0.1706
   58CHL1    C1 6742   6.377   4.612   9.724 -0.2648  0.2509 -0.5485
   58CHL1   H1A 6743   6.462   4.557   9.678 -0.9004 -1.9315  0.7730
   58CHL1   H1B 6744   6.404   4.719   9.711 -1.0371  0.7978  1.7818
   58CHL1    C2 6745   6.388   4.605   9.880  0.5697 -0.3710 -0.2603
   58CHL1   H2A 6746   6.490   4.636   9.912 -0.4499  2.1114  0.8435
   58CHL1   H2B 6747   6.380   4.500   9.915  0.3163  0.4575  2.4508
   58CHL1   C20 6748   6.178   4.506   8.965  0.4449 -0.2088  0.4061
   58CHL1   H20 6749   6.100   4.430   8.987  0.9929 -1.0987 -0.6306
   58CHL1   C21 6750   6.316   4.444   8.959 -0.4483 -0.2522 -0.1370
   58CHL1  H21A 6751   6.392   4.524   8.968  1.1821 -1.5737 -1.5642
   58CHL1  H21B 6752   6.344   4.399   8.862  1.7374  0.1765  0.2372
   58CHL1  H21C 6753   6.328   4.371   9.042  0.3960  1.0573  0.9463
   58CHL1   C22 6754   6.138   4.561   8.826 -0.1202 -1.0260  0.1934
   58CHL1  H22A 6755   6.162   4.483   8.750 -1.0610  0.8633 -2.1938
   58CHL1  H22B 6756   6.027   4.568   8.821 -0.0249  1.4246  0.4804
   58CHL1   C23 6757   6.196   4.699   8.785  0.2554  0.1029  0.2797
   58CHL1  H23A 6758   6.180   4.775   8.865 -0.5688  0.7054 -0.4447
   58CHL1  H23B 6759   6.304   4.678   8.770  0.5863  1.9669 -0.1948
   58CHL1   C24 6760   6.130   4.760   8.662  0.0300 -0.0022 -0.5337
   58CHL1  H24A 6761   6.023   4.773   8.688 -0.6380 -1.8640 -2.1204
   58CHL1  H24B 6762   6.176   4.858   8.636  3.6128 -0.9881  1.4462
   58CHL1   C25 6763   6.135   4.678   8.533  0.3049 -0.1426  0.3229
   58CHL1   H25 6764   6.079   4.583   8.548  0.7209 -0.4308  0.0724
   58CHL1   C26 6765   6.084   4.759   8.418 -0.4826 -0.0635 -0.1560
   58CHL1  H26A 6766   6.072   4.702   8.323  1.2252 -2.1268  0.8063
   58CHL1  H26B 6767   5.982   4.781   8.455 -0.4362 -1.3965  0.8385
   58CHL1  H26C 6768   6.155   4.844   8.408 -0.4914 -0.1342 -0.8737
   58CHL1   C27 6769   6.277   4.634   8.500 -0.4331 -0.2301  0.8365
   58CHL1  H27A 6770   6.330   4.729   8.478 -0.6324  0.0246  1.4389
   58CHL1  H27B 6771   6.316   4.566   8.579 -1.3394 -2.3809 -0.4552
   58CHL1  H27C 6772   6.279   4.576   8.405 -1.9482  1.5394 -0.3346
   59CHL1    C3 6773   1.089   3.571  10.343  0.1729  0.7258 -0.4449
   59CHL1    H3 6774   1.171   3.511  10.387 -2.1705 -2.6539 -0.2689
   59CHL1    O3 6775   1.024   3.616  10.458  0.4035  0.0255 -0.1786
   59CHL1   H3' 6776   0.945   3.657  10.421  1.4498  2.6398  0.3338
   59CHL1    C4 6777   1.119   3.683  10.242 -0.8087 -0.0866  0.2689
   59CHL1   H4A 6778   1.024   3.740  10.238 -0.5659  0.5704  2.4042
   59CHL1   H4B 6779   1.191   3.749  10.296  2.0429 -0.6793 -2.5340
   59CHL1    C5 6780   1.159   3.649  10.102  0.1561 -0.1126 -1.0677
   59CHL1    C6 6781   1.267   3.701  10.044  0.4771  0.4120  0.2249
   59CHL1    H6 6782   1.336   3.766  10.099 -0.0374 -0.3676  1.8408
   59CHL1    C7 6783   1.313   3.664   9.910 -0.4041 -0.4150  0.7286
   59CHL1   H7A 6784   1.352   3.757   9.863 -1.6285 -0.5820 -0.6710
   59CHL1   H7B 6785   1.400   3.596   9.915  1.5230  1.8060 -0.3826
   59CHL1    C8 6786   1.206   3.604   9.824 -0.8375 -0.6526  0.4086
   59CHL1    H8 6787   1.144   3.689   9.787 -0.2912 -0.0924  0.7650
   59CHL1   C14 6788   1.277   3.546   9.700  0.1332  0.9066 -0.4030
   59CHL1   H14 6789   1.345   3.463   9.731 -2.5822 -1.2519  0.1945
   59CHL1   C15 6790   1.360   3.638   9.611  0.2679 -0.3653  0.6060
   59CHL1  H15A 6791   1.304   3.726   9.575  2.4560  1.0830  0.5607
   59CHL1  H15B 6792   1.450   3.677   9.663 -0.7515  1.6676  0.9240
   59CHL1   C16 6793   1.394   3.548   9.489  0.4531  0.5234  0.1370
   59CHL1  H16A 6794   1.391   3.614   9.400  4.0986  0.7332  0.0235
   59CHL1  H16B 6795   1.501   3.515   9.488  0.7993  1.6032 -1.0392
   59CHL1   C17 6796   1.292   3.427   9.486  0.3053  0.5157 -0.1258
   59CHL1   H17 6797   1.343   3.334   9.520  0.5934  0.6720 -0.1300
   59CHL1   C13 6798   1.185   3.469   9.600 -0.0450 -0.2148 -0.3018
   59CHL1   C18 6799   1.086   3.571   9.541 -0.2040  0.0218  0.4984
   59CHL1  H18A 6800   1.132   3.640   9.467  1.2525 -1.4327 -0.0105
   59CHL1  H18B 6801   0.995   3.522   9.498  0.2438 -0.5662  0.2138
   59CHL1  H18C 6802   1.050   3.631   9.627 -0.9279  0.8430 -0.3534
   59CHL1   C12 6803   1.125   3.355   9.680  0.3323  0.1673 -0.2483
   59CHL1  H12A 6804   1.066   3.285   9.617  0.8138 -0.9198  0.4686
   59CHL1  H12B 6805   1.208   3.287   9.710  0.1514 -0.1083 -0.3622
   59CHL1   C11 6806   1.049   3.400   9.816  0.0032  0.0986  0.5382
   59CHL1  H11A 6807   0.963   3.460   9.779  2.0292  1.9905 -1.4064
   59CHL1  H11B 6808   1.020   3.299   9.850  0.7349 -0.9305 -1.6856
   59CHL1    C9 6809   1.145   3.491   9.904 -0.1527 -0.1973 -0.0711
   59CHL1    H9 6810   1.222   3.414   9.929 -1.0967 -0.5863  1.8581
   59CHL1   C10 6811   1.078   3.538  10.037  0.4410 -0.0958  0.0197
   59CHL1   C19 6812   0.941   3.612   9.996  0.5780 -0.7168 -0.3238
   59CHL1  H19A 6813   0.867   3.535   9.966  0.2249 -0.9988  1.1912
   59CHL1  H19B 6814   0.893   3.656  10.087 -0.0424 -1.0241 -0.4952
   59CHL1  H19C 6815   0.969   3.688   9.919  0.1462 -1.2598 -1.0287
   59CHL1    C1 6816   1.049   3.420  10.132 -0.4904  0.5403 -0.2819
   59CHL1   H1A 6817   0.978   3.350  10.084  0.6973 -0.3399 -0.8047
   59CHL1   H1B 6818   1.143   3.364  10.153  0.3199  2.4997  1.8052
   59CHL1    C2 6819   0.995   3.465  10.270 -0.5204 -0.5392  0.3959
   59CHL1   H2A 6820   0.990   3.370  10.328 -0.0175 -1.0129 -0.3120
   59CHL1   H2B 6821   0.892   3.506  10.257  0.3468  0.8530 -3.2782
   59CHL1   C20 6822   1.248   3.402   9.342 -0.3587  0.1343 -0.5840
   59CHL1   H20 6823   1.210   3.497   9.298 -0.0400  1.6997  2.2707
   59CHL1   C21 6824   1.129   3.300   9.343 -0.4104  0.4628  0.1096
   59CHL1  H21A 6825   1.158   3.207   9.397 -2.7606 -0.1911  0.3459
   59CHL1  H21B 6826   1.096   3.282   9.238  1.5345 -0.5804 -0.3701
   59CHL1  H21C 6827   1.040   3.334   9.400 -0.8476  1.3801 -1.0699
   59CHL1   C22 6828   1.362   3.347   9.244  0.0940 -0.3751 -1.2731
   59CHL1  H22A 6829   1.451   3.413   9.253  0.1749 -0.6498  0.0533
   59CHL1  H22B 6830   1.387   3.244   9.279  2.3367  0.8628  1.0605
   59CHL1   C23 6831   1.324   3.323   9.099  0.8033  0.1173 -0.0579
   59CHL1  H23A 6832   1.230   3.265   9.086  0.3890  0.9099 -0.7109
   59CHL1  H23B 6833   1.302   3.425   9.061 -1.2161 -0.5145 -0.6795
   59CHL1   C24 6834   1.444   3.272   9.017  0.0434  0.2299 -0.3040
   59CHL1  H24A 6835   1.541   3.324   9.030 -0.2315  0.1262  2.8900
   59CHL1  H24B 6836   1.461   3.166   9.047 -1.1306  0.4095  1.1325
   59CHL1   C25 6837   1.418   3.244   8.860 -0.2103 -0.2333  0.4627
   59CHL1   H25 6838   1.361   3.148   8.861  0.6396 -0.7617  2.0591
   59CHL1   C26 6839   1.340   3.354   8.785 -0.5771 -0.6514  0.0833
   59CHL1  H26A 6840   1.396   3.450   8.795  0.1118 -0.9626 -0.7256
   59CHL1  H26B 6841   1.329   3.327   8.678  1.7508  0.1131 -0.4188
   59CHL1  H26C 6842   1.238   3.376   8.823 -0.4801 -1.4871  0.8831
   59CHL1   C27 6843   1.548   3.224   8.797  0.3419 -0.8242 -0.6526
   59CHL1  H27A 6844   1.550   3.203   8.688  0.8812 -0.9069 -0.6304
   59CHL1  H27B 6845   1.604   3.318   8.815 -0.2762 -0.2120 -1.8227
   59CHL1  H27C 6846   1.608   3.141   8.840  3.2579  0.8005 -1.3198
   60CHL1    C3 6847   4.954   3.244  10.327 -0.6916  0.6591 -0.4137
   60CHL1    H3 6848   4.853   3.289  10.331 -2.0592 -2.0602 -1.5867
   60CHL1    O3 6849   5.006   3.241  10.461 -0.3552 -0.1694  1.0201
   60CHL1   H3' 6850   4.929   3.209  10.509 -1.1464  1.1840  0.7223
   60CHL1    C4 6851   4.924   3.102  10.263  0.1727 -0.2685  0.8773
   60CHL1   H4A 6852   5.014   3.039  10.283 -0.6787 -1.7783  0.1203
   60CHL1   H4B 6853   4.842   3.057  10.324  0.5626 -2.5902 -0.2006
   60CHL1    C5 6854   4.905   3.086  10.119  0.3425  0.7068  0.5294
   60CHL1    C6 6855   4.810   2.996  10.072  0.3209 -0.5006  0.5884
   60CHL1    H6 6856   4.737   2.946  10.138  0.0836 -0.4083  0.3975
   60CHL1    C7 6857   4.781   2.976   9.929 -0.4126 -0.0163  0.0872
   60CHL1   H7A 6858   4.761   2.869   9.907 -1.4120  0.2011 -0.0833
   60CHL1   H7B 6859   4.691   3.029   9.893 -1.5755 -1.9912 -0.0056
   60CHL1    C8 6860   4.902   3.033   9.838  0.8137  0.8867 -0.2569
   60CHL1    H8 6861   4.987   2.962   9.850  1.0542  1.4791  1.8801
   60CHL1   C14 6862   4.851   3.033   9.692 -0.2559 -0.5228  0.1364
   60CHL1   H14 6863   4.768   3.106   9.700 -1.0590 -1.5783  2.3152
   60CHL1   C15 6864   4.789   2.912   9.626  0.3775  0.7259  0.0356
   60CHL1  H15A 6865   4.845   2.817   9.636 -0.6582 -0.3501 -3.2422
   60CHL1  H15B 6866   4.687   2.908   9.669  0.3696 -0.5670 -0.0603
   60CHL1   C16 6867   4.794   2.947   9.473 -0.2533 -0.4518 -0.1829
   60CHL1  H16A 6868   4.826   2.865   9.405 -1.0011  0.3380 -1.5174
   60CHL1  H16B 6869   4.692   2.974   9.439 -1.2201 -0.0453  2.7486
   60CHL1   C17 6870   4.887   3.083   9.460  0.1488 -0.5436  0.5944
   60CHL1   H17 6871   4.818   3.168   9.478  1.5082  0.7857 -0.2156
   60CHL1   C13 6872   4.961   3.082   9.595  0.4282  0.0796 -0.3636
   60CHL1   C18 6873   5.086   2.992   9.597  0.6249 -0.4943  0.1308
   60CHL1  H18A 6874   5.053   2.893   9.560  0.9662 -0.9412  0.9941
   60CHL1  H18B 6875   5.166   3.034   9.532  0.6883  0.4189  0.7814
   60CHL1  H18C 6876   5.122   2.964   9.699  0.7005 -1.8984 -0.2646
   60CHL1   C12 6877   4.997   3.231   9.643  0.4356  0.2646  0.1146
   60CHL1  H12A 6878   5.080   3.262   9.575  0.1036  0.7165 -0.0888
   60CHL1  H12B 6879   4.916   3.306   9.628  0.8766  0.6520 -0.4070
   60CHL1   C11 6880   5.040   3.239   9.792  0.2786 -0.0283  0.0429
   60CHL1  H11A 6881   5.134   3.179   9.790 -0.3055 -1.0587  1.4977
   60CHL1  H11B 6882   5.052   3.347   9.813 -1.4517 -0.1209  1.8873
   60CHL1    C9 6883   4.945   3.166   9.893  0.1966 -0.5328  0.5709
   60CHL1    H9 6884   4.854   3.229   9.884  1.1100  0.6862 -0.5724
   60CHL1   C10 6885   4.998   3.165  10.034 -0.0629  0.3752  0.0923
   60CHL1   C19 6886   5.148   3.113  10.045 -0.0031 -0.4422  0.1391
   60CHL1  H19A 6887   5.189   3.109  10.148  0.2885  1.9442  0.1851
   60CHL1  H19B 6888   5.146   3.012   9.999  1.3743  0.1551 -1.3289
   60CHL1  H19C 6889   5.216   3.183   9.990  0.0531 -1.7099 -1.4747
   60CHL1    C1 6890   4.997   3.317  10.078 -0.1209  0.2560 -0.6284
   60CHL1   H1A 6891   5.069   3.381  10.022 -0.4949  0.0056 -1.4126
   60CHL1   H1B 6892   4.896   3.362  10.068  0.3045  1.3632 -0.1119
   60CHL1    C2 6893   5.048   3.324  10.231  0.1311 -0.0465  0.6425
   60CHL1   H2A 6894   5.036   3.430  10.261 -1.8642  0.0436 -0.3256
   60CHL1   H2B 6895   5.150   3.288  10.255 -0.1077 -0.8937  0.4400
   60CHL1   C20 6896   4.961   3.107   9.325 -0.4651 -0.4395 -0.0671
   60CHL1   H20 6897   5.058   3.052   9.323  0.7433  1.6088 -0.8758
   60CHL1   C21 6898   4.987   3.257   9.287 -0.3393  0.2420 -0.0077
   60CHL1  H21A 6899   5.061   3.313   9.350  0.6952 -0.9843 -0.1012
   60CHL1  H21B 6900   4.897   3.322   9.286 -1.7459 -1.6595 -1.5758
   60CHL1  H21C 6901   5.017   3.254   9.180  2.2104 -1.2769  0.6643
   60CHL1   C22 6902   4.886   3.047   9.208 -1.1487  1.4265  0.4543
   60CHL1  H22A 6903   4.951   3.058   9.120 -2.8863  1.8486 -0.8359
   60CHL1  H22B 6904   4.871   2.936   9.213 -5.4883  1.7790 -0.1647
   60CHL1   C23 6905   4.748   3.091   9.162  0.8426  0.1748 -0.8772
   60CHL1  H23A 6906   4.673   3.022   9.206  0.9651 -0.2372 -1.3037
   60CHL1  H23B 6907   4.745   3.197   9.194 -1.4401  0.0663 -0.6112
   60CHL1   C24 6908   4.755   3.083   9.010 -0.5387 -0.0309 -0.3677
   60CHL1  H24A 6909   4.841   3.144   8.973 -1.2327  1.2345  0.0587
   60CHL1  H24B 6910   4.773   2.976   8.984  0.4415  0.0907 -0.2446
   60CHL1   C25 6911   4.625   3.115   8.934 -0.6567 -0.0519 -0.1054
   60CHL1   H25 6912   4.550   3.059   8.994  2.1975 -3.8775  0.2865
   60CHL1   C26 6913   4.588   3.257   8.908  0.1311 -0.5110  0.8806
   60CHL1  H26A 6914   4.672   3.300   8.849 -1.7399 -1.2023 -2.5312
   60CHL1  H26B 6915   4.503   3.266   8.837  2.2127 -2.1875 -2.0808
   60CHL1  H26C 6916   4.564   3.308   9.004 -0.0187  0.9604  0.0957
   60CHL1   C27 6917   4.640   3.043   8.789  0.1834 -1.0258 -0.5612
   60CHL1  H27A 6918   4.672   2.937   8.800 -1.1367 -1.5479 -1.4909
   60CHL1  H27B 6919   4.545   3.046   8.732 -0.1522 -0.6497  0.0102
   60CHL1  H27C 6920   4.709   3.108   8.731  0.4798  1.8090  2.6395
   61CHL1    C3 6921   1.226   2.810   9.939  0.3011  0.2230  0.3761
   61CHL1    H3 6922   1.265   2.706   9.935  1.5089  0.6125  1.3317
   61CHL1    O3 6923   1.201   2.847  10.072  0.2287  0.0265  0.0989
   61CHL1   H3' 6924   1.108   2.832  10.088  0.7135 -2.1198  1.3596
   61CHL1    C4 6925   1.316   2.915   9.866 -0.4073  0.0831 -0.1085
   61CHL1   H4A 6926   1.256   3.008   9.876 -1.2894 -0.2964 -1.5454
   61CHL1   H4B 6927   1.414   2.927   9.917 -1.4200  0.9342  1.7524
   61CHL1    C5 6928   1.330   2.889   9.721  0.7280 -0.4150 -0.0828
   61CHL1    C6 6929   1.455   2.878   9.674 -0.1237 -0.9986  0.5530
   61CHL1    H6 6930   1.545   2.890   9.737  1.0184  1.6468 -1.4007
   61CHL1    C7 6931   1.477   2.848   9.527  0.2406 -0.6579 -0.2413
   61CHL1   H7A 6932   1.559   2.909   9.484 -1.3189  2.3256  0.7593
   61CHL1   H7B 6933   1.519   2.745   9.516  1.4305 -0.0346 -2.1099
   61CHL1    C8 6934   1.356   2.872   9.437 -0.3895  0.7733  0.0704
   61CHL1    H8 6935   1.337   2.981   9.433 -3.0754  0.4087  0.3920
   61CHL1   C14 6936   1.372   2.805   9.299 -0.5171 -0.0111  0.8164
   61CHL1   H14 6937   1.382   2.696   9.321 -2.0570 -0.8642 -2.1054
   61CHL1   C15 6938   1.500   2.845   9.215  0.4686  0.1838  0.1224
   61CHL1  H15A 6939   1.515   2.954   9.229  1.5996  0.0023  0.3999
   61CHL1  H15B 6940   1.586   2.784   9.252 -0.5029 -0.5838  1.1671
   61CHL1   C16 6941   1.467   2.819   9.062  0.0994  0.6353  0.8396
   61CHL1  H16A 6942   1.462   2.916   9.007 -1.7671 -0.1118 -0.4290
   61CHL1  H16B 6943   1.546   2.749   9.028 -0.5854 -0.1927  0.9375
   61CHL1   C17 6944   1.327   2.753   9.067 -0.1941 -0.0051 -0.3413
   61CHL1   H17 6945   1.334   2.644   9.090  0.6172 -0.1131 -1.0622
   61CHL1   C13 6946   1.261   2.816   9.197 -0.2271 -0.0049  0.4813
   61CHL1   C18 6947   1.225   2.960   9.166  0.4270 -0.1110  0.2210
   61CHL1  H18A 6948   1.312   3.017   9.127 -0.7069  0.9744 -0.7796
   61CHL1  H18B 6949   1.139   2.955   9.096  0.3295  1.3370  0.2036
   61CHL1  H18C 6950   1.189   3.021   9.251 -0.2574 -0.3708  0.1243
   61CHL1   C12 6951   1.140   2.744   9.259 -0.0528 -1.0427  0.5786
   61CHL1  H12A 6952   1.046   2.766   9.203 -0.4576 -0.6775  1.3860
   61CHL1  H12B 6953   1.149   2.633   9.262 -0.6700 -1.1667 -1.1188
   61CHL1   C11 6954   1.110   2.798   9.405  0.2091 -0.3271  0.0967
   61CHL1  H11A 6955   1.077   2.903   9.390  1.9975  1.0011  3.9921
   61CHL1  H11B 6956   1.025   2.742   9.450  1.6249 -0.6864  2.5211
   61CHL1    C9 6957   1.238   2.804   9.497 -0.1988  0.5618 -0.6630
   61CHL1    H9 6958   1.265   2.700   9.524  1.2564  1.1213  0.1309
   61CHL1   C10 6959   1.203   2.857   9.638 -0.2318  0.0862  0.0004
   61CHL1   C19 6960   1.140   2.995   9.632 -0.8245 -0.0295  0.3312
   61CHL1  H19A 6961   1.132   3.050   9.728  2.4851  0.8912  0.2017
   61CHL1  H19B 6962   1.201   3.068   9.575 -0.7095 -0.3531  0.0393
   61CHL1  H19C 6963   1.039   2.991   9.585  0.1442  0.4298 -1.8913
   61CHL1    C1 6964   1.106   2.766   9.719 -0.5925  0.2351  0.0957
   61CHL1   H1A 6965   1.007   2.773   9.668 -0.8903  1.9640  0.8356
   61CHL1   H1B 6966   1.131   2.659   9.703 -1.6141  0.2827 -2.3061
   61CHL1    C2 6967   1.090   2.804   9.864 -0.2433  0.8308  0.1728
   61CHL1   H2A 6968   1.022   2.732   9.915  0.4942 -1.8443 -2.3894
   61CHL1   H2B 6969   1.045   2.906   9.871  1.2173  1.6297 -1.2890
   61CHL1   C20 6970   1.254   2.759   8.933  0.4089  0.0096 -0.0765
   61CHL1   H20 6971   1.235   2.863   8.900  0.9570  0.2100  0.2254
   61CHL1   C21 6972   1.118   2.687   8.933 -0.0284  0.8882  0.2645
   61CHL1  H21A 6973   1.084   2.691   8.827 -2.4713 -0.6655  0.9126
   61CHL1  H21B 6974   1.042   2.745   8.990  1.7187  2.9023  0.6832
   61CHL1  H21C 6975   1.127   2.582   8.968  0.8447  0.9674  0.2994
   61CHL1   C22 6976   1.345   2.694   8.818 -0.4823 -0.0614  0.3652
   61CHL1  H22A 6977   1.429   2.767   8.815 -3.8021  4.2152  1.1542
   61CHL1  H22B 6978   1.379   2.589   8.826 -1.3296 -0.2639  1.5164
   61CHL1   C23 6979   1.281   2.696   8.676 -0.1975  0.4279  0.2318
   61CHL1  H23A 6980   1.216   2.606   8.676  1.2941 -0.7131 -1.8552
   61CHL1  H23B 6981   1.225   2.789   8.650 -0.0618  0.4224 -0.0722
   61CHL1   C24 6982   1.382   2.660   8.566 -0.4213 -0.0615 -0.2097
   61CHL1  H24A 6983   1.435   2.750   8.530 -0.2867 -0.6185 -1.4718
   61CHL1  H24B 6984   1.452   2.584   8.605 -0.4735 -1.2995 -2.3775
   61CHL1   C25 6985   1.322   2.587   8.443  0.6692  0.8680 -0.1451
   61CHL1   H25 6986   1.277   2.494   8.483  3.0924  0.0830  0.9561
   61CHL1   C26 6987   1.213   2.669   8.375 -0.0408 -0.1448  0.9169
   61CHL1  H26A 6988   1.126   2.693   8.440  0.8956  3.0151  1.1580
   61CHL1  H26B 6989   1.252   2.766   8.338  0.3023  0.0584  1.7931
   61CHL1  H26C 6990   1.182   2.614   8.283 -0.7103 -0.0037  1.0521
   61CHL1   C27 6991   1.434   2.562   8.339 -0.0089  0.6257 -0.2900
   61CHL1  H27A 6992   1.463   2.662   8.299 -1.4517  0.8171 -0.9168
   61CHL1  H27B 6993   1.509   2.488   8.375 -0.6472  0.8751  1.6731
   61CHL1  H27C 6994   1.400   2.511   8.246 -0.0024  0.5514 -0.2520
   62CHL1    C3 6995   3.754   0.015   9.993  0.2179  0.7349 -0.1854
   62CHL1    H3 6996   3.855   0.029   9.950  0.8464  1.2852  1.4122
   62CHL1    O3 6997   3.763   0.021  10.133  0.1613 -0.0031  0.0641
   62CHL1   H3' 6998   3.840  -0.030  10.157  1.1841  1.3639 -0.1811
   62CHL1    C4 6999   3.646   0.110   9.936 -0.7159 -0.6922 -0.2064
   62CHL1   H4A 7000   3.548   0.094   9.985 -1.0623  2.2874  0.2407
   62CHL1   H4B 7001   3.670   0.215   9.961 -0.3930 -0.2246 -2.3185
   62CHL1    C5 7002   3.635   0.096   9.783 -0.1041 -0.6715  0.0889
   62CHL1    C6 7003   3.662   0.196   9.693  0.3470  0.2714 -0.1256
   62CHL1    H6 7004   3.689   0.297   9.728  2.6673  0.3615 -1.9260
   62CHL1    C7 7005   3.648   0.181   9.543 -0.3140  0.5282  0.1806
   62CHL1   H7A 7006   3.599   0.268   9.494  0.4265 -0.6515 -2.8335
   62CHL1   H7B 7007   3.752   0.179   9.504  0.2899 -0.5598  1.7213
   62CHL1    C8 7008   3.571   0.052   9.499 -0.1085 -0.9583  0.3576
   62CHL1    H8 7009   3.465   0.080   9.521  0.3862  1.2225  0.1235
   62CHL1   C14 7010   3.588   0.031   9.346 -0.4319 -0.0609 -0.0316
   62CHL1   H14 7011   3.696   0.006   9.333 -0.1439  0.1517  1.6396
   62CHL1   C15 7012   3.554   0.143   9.250 -0.3361 -0.0555 -0.1336
   62CHL1  H15A 7013   3.460   0.194   9.282  0.6609  0.9872  1.2769
   62CHL1  H15B 7014   3.632   0.220   9.232 -1.8816  1.3197 -1.2769
   62CHL1   C16 7015   3.528   0.060   9.115 -0.7678  0.3189 -0.8162
   62CHL1  H16A 7016   3.419   0.074   9.095 -0.8143  1.0238 -0.1125
   62CHL1  H16B 7017   3.598   0.100   9.039  0.7456 -1.9837 -0.7307
   62CHL1   C17 7018   3.558  -0.085   9.141  0.1887 -0.7697 -0.1590
   62CHL1   H17 7019   3.666  -0.102   9.122  0.1642 -0.9688 -0.1141
   62CHL1   C13 7020   3.524  -0.097   9.295  0.4266 -0.2785  0.0818
   62CHL1   C18 7021   3.375  -0.085   9.313  0.7138  0.1906  0.5864
   62CHL1  H18A 7022   3.338  -0.084   9.418 -2.5546 -0.1652 -0.4560
   62CHL1  H18B 7023   3.331   0.009   9.274  1.4218  0.0803 -0.5208
   62CHL1  H18C 7024   3.320  -0.162   9.255  2.5671 -0.6865 -0.0815
   62CHL1   C12 7025   3.571  -0.220   9.368 -1.1184  0.0060 -0.2485
   62CHL1  H12A 7026   3.525  -0.318   9.344 -0.7270 -0.1166 -0.4977
   62CHL1  H12B 7027   3.680  -0.223   9.348 -0.1684  4.5947  2.5810
   62CHL1   C11 7028   3.561  -0.209   9.520  0.1530 -0.1785  0.4975
   62CHL1  H11A 7029   3.454  -0.207   9.552  0.6594  1.7208  2.3193
   62CHL1  H11B 7030   3.605  -0.294   9.576  0.0679 -2.1434 -2.2596
   62CHL1    C9 7031   3.617  -0.076   9.574  0.0352  0.2635  0.0447
   62CHL1    H9 7032   3.724  -0.076   9.547 -0.3426 -0.4516 -1.5359
   62CHL1   C10 7033   3.609  -0.049   9.735 -0.3485  0.4277  0.1345
   62CHL1   C19 7034   3.465  -0.071   9.789 -0.6465 -0.1289  0.2198
   62CHL1  H19A 7035   3.390   0.002   9.754 -0.1128 -0.2502 -1.2408
   62CHL1  H19B 7036   3.444  -0.177   9.762 -1.5930  0.0392  0.2616
   62CHL1  H19C 7037   3.461  -0.077   9.900  1.5563 -1.1333  0.2979
   62CHL1    C1 7038   3.713  -0.144   9.803  0.2763  0.1964 -0.8011
   62CHL1   H1A 7039   3.684  -0.249   9.781  0.8157 -0.0789 -0.2233
   62CHL1   H1B 7040   3.817  -0.135   9.765  0.1161  0.1551 -1.2472
   62CHL1    C2 7041   3.724  -0.131   9.956 -0.3791 -0.4154  0.3099
   62CHL1   H2A 7042   3.795  -0.205   9.997  0.4902 -0.0600 -0.5116
   62CHL1   H2B 7043   3.624  -0.155   9.998 -0.5160 -2.3240 -0.9944
   62CHL1   C20 7044   3.478  -0.180   9.047 -0.0086 -0.1530  0.4233
   62CHL1   H20 7045   3.369  -0.193   9.061 -0.1019 -1.4932 -1.2473
   62CHL1   C21 7046   3.552  -0.318   9.046  0.0080 -0.6228 -0.0407
   62CHL1  H21A 7047   3.492  -0.373   8.971 -0.8642  1.5355 -1.0102
   62CHL1  H21B 7048   3.552  -0.370   9.144  1.6393 -0.8044 -0.1059
   62CHL1  H21C 7049   3.657  -0.321   9.007  0.7846  1.0820  1.7621
   62CHL1   C22 7050   3.475  -0.130   8.901 -0.4279  0.0497  0.1191
   62CHL1  H22A 7051   3.453  -0.022   8.882 -3.1263 -0.2077  1.3161
   62CHL1  H22B 7052   3.582  -0.147   8.875 -0.5442 -0.7039  0.1291
   62CHL1   C23 7053   3.383  -0.209   8.804  0.2414  0.1443 -0.2203
   62CHL1  H23A 7054   3.382  -0.319   8.819  1.0262  0.3890  1.8530
   62CHL1  H23B 7055   3.279  -0.179   8.827  0.0063 -0.7211 -0.1373
   62CHL1   C24 7056   3.402  -0.166   8.655  0.4540 -0.1141 -0.3950
   62CHL1  H24A 7057   3.409  -0.056   8.643  0.2299  0.1725  1.7816
   62CHL1  H24B 7058   3.502  -0.199   8.618  3.0040  2.6350  3.2849
   62CHL1   C25 7059   3.288  -0.229   8.565  0.2620 -0.2775  0.0844
   62CHL1   H25 7060   3.189  -0.192   8.599  1.0581 -1.2619  4.0285
   62CHL1   C26 7061   3.308  -0.188   8.421  0.5258  0.3776 -0.2422
   62CHL1  H26A 7062   3.233  -0.239   8.357  1.7591 -2.6088  0.5270
   62CHL1  H26B 7063   3.290  -0.079   8.411 -1.7136 -0.1119 -2.5808
   62CHL1  H26C 7064   3.408  -0.219   8.383  0.0266  0.2429 -1.4858
   62CHL1   C27 7065   3.281  -0.385   8.581  0.0965 -0.8288 -0.2789
   62CHL1  H27A 7066   3.378  -0.434   8.561  1.0859  0.8710  0.1160
   62CHL1  H27B 7067   3.233  -0.420   8.674  0.2867 -0.0519  0.1219
   62CHL1  H27C 7068   3.206  -0.412   8.503  2.7576 -3.0929 -2.2253
   63CHL1    C3 7069   3.717   2.237  10.269 -0.3691 -0.6211 -0.5114
   63CHL1    H3 7070   3.762   2.335  10.295 -1.8270 -0.1536  0.3805
   63CHL1    O3 7071   3.738   2.147  10.381  0.1118 -0.1609  0.5845
   63CHL1   H3' 7072   3.679   2.072  10.370 -1.2611  1.0763 -1.4496
   63CHL1    C4 7073   3.568   2.269  10.247  0.2897  0.5930  1.2616
   63CHL1   H4A 7074   3.506   2.177  10.238 -1.6281  1.9252  0.0734
   63CHL1   H4B 7075   3.538   2.306  10.347 -0.6350 -2.2323  2.1081
   63CHL1    C5 7076   3.539   2.348  10.126 -0.5414  0.1658  0.5388
   63CHL1    C6 7077   3.470   2.460  10.126  0.2050 -0.9348  0.1625
   63CHL1    H6 7078   3.442   2.490  10.228 -1.4907 -1.9655  0.0239
   63CHL1    C7 7079   3.426   2.540  10.007 -0.1268  0.0553 -0.2709
   63CHL1   H7A 7080   3.316   2.549   9.993 -0.2308 -2.2702 -1.3593
   63CHL1   H7B 7081   3.471   2.641  10.021  1.7624 -0.6305 -0.9765
   63CHL1    C8 7082   3.475   2.469   9.869  1.0574 -0.8255 -0.6596
   63CHL1    H8 7083   3.401   2.392   9.839 -1.4523  0.2125  2.2748
   63CHL1   C14 7084   3.492   2.573   9.769 -0.1758 -0.7630 -0.0785
   63CHL1   H14 7085   3.568   2.648   9.800  1.7384 -2.6531  0.0634
   63CHL1   C15 7086   3.361   2.660   9.745 -0.6363  0.2021  0.2469
   63CHL1  H15A 7087   3.275   2.591   9.736  1.5244 -2.4151 -1.9974
   63CHL1  H15B 7088   3.350   2.735   9.827  0.7886 -0.4278  1.0525
   63CHL1   C16 7089   3.390   2.727   9.612  0.3025 -0.0196 -0.2321
   63CHL1  H16A 7090   3.300   2.721   9.548 -0.5071 -0.0326  0.8696
   63CHL1  H16B 7091   3.417   2.834   9.629 -0.0474  0.4135 -2.1560
   63CHL1   C17 7092   3.515   2.657   9.550  0.7189 -0.4965 -0.9729
   63CHL1   H17 7093   3.606   2.710   9.584 -0.7154  0.7865  1.0892
   63CHL1   C13 7094   3.525   2.525   9.630  0.0276 -0.0086  0.5407
   63CHL1   C18 7095   3.422   2.420   9.573  0.3151  0.0266  0.9148
   63CHL1  H18A 7096   3.411   2.323   9.626 -2.6432 -0.7700 -0.8699
   63CHL1  H18B 7097   3.317   2.458   9.563  0.1451 -0.6809 -0.0417
   63CHL1  H18C 7098   3.453   2.392   9.470  0.0467 -0.1376  0.8781
   63CHL1   C12 7099   3.669   2.464   9.629 -0.3352  0.2639 -0.0353
   63CHL1  H12A 7100   3.714   2.415   9.540  1.0233  0.5627  0.4624
   63CHL1  H12B 7101   3.740   2.543   9.661 -0.9304  0.3262  1.1750
   63CHL1   C11 7102   3.679   2.361   9.742  0.4251 -0.3484 -0.2085
   63CHL1  H11A 7103   3.633   2.266   9.707  1.4819 -0.9274 -0.0707
   63CHL1  H11B 7104   3.787   2.343   9.760  0.4778 -1.8501 -1.8124
   63CHL1    C9 7105   3.611   2.403   9.883  0.7193 -0.2983  0.1243
   63CHL1    H9 7106   3.673   2.488   9.916 -0.2873 -0.3030  2.1803
   63CHL1   C10 7107   3.608   2.299   9.997 -0.2561  0.1966  0.1560
   63CHL1   C19 7108   3.525   2.170   9.954 -0.2365  0.2500  0.1208
   63CHL1  H19A 7109   3.567   2.125   9.861 -0.4614  2.1017 -0.9212
   63CHL1  H19B 7110   3.536   2.090  10.030  0.4810  1.2402  1.0851
   63CHL1  H19C 7111   3.417   2.192   9.938  0.5159  2.4794 -2.8216
   63CHL1    C1 7112   3.762   2.268  10.024 -0.2148  0.1478 -0.5628
   63CHL1   H1A 7113   3.794   2.203   9.940  1.5466  0.1742  0.0549
   63CHL1   H1B 7114   3.818   2.364  10.015 -1.9831  1.4743  1.4219
   63CHL1    C2 7115   3.786   2.180  10.149 -0.6180 -0.6436 -1.0312
   63CHL1   H2A 7116   3.895   2.166  10.163 -0.1394  2.6860 -0.5517
   63CHL1   H2B 7117   3.739   2.084  10.122 -0.3855 -0.1355 -3.4939
   63CHL1   C20 7118   3.534   2.656   9.399  0.6977  0.2769 -0.0394
   63CHL1   H20 7119   3.606   2.573   9.384  1.7070  0.8691  1.3678
   63CHL1   C21 7120   3.588   2.790   9.360  0.3166  0.0507  0.3603
   63CHL1  H21A 7121   3.517   2.873   9.384 -0.5790  0.1071 -2.1884
   63CHL1  H21B 7122   3.607   2.791   9.250  0.7215  2.7304  0.3846
   63CHL1  H21C 7123   3.688   2.802   9.406  0.4197 -2.1685  0.7927
   63CHL1   C22 7124   3.405   2.623   9.312 -0.2885 -0.1459  0.4205
   63CHL1  H22A 7125   3.372   2.529   9.362 -0.7772 -1.0309 -1.4823
   63CHL1  H22B 7126   3.314   2.687   9.313 -0.5703 -0.4011 -2.2935
   63CHL1   C23 7127   3.429   2.609   9.164 -1.0135 -0.2243  0.2722
   63CHL1  H23A 7128   3.452   2.707   9.117 -1.0834 -0.0472  0.6014
   63CHL1  H23B 7129   3.523   2.551   9.148 -0.5498  1.0151 -1.7815
   63CHL1   C24 7130   3.303   2.551   9.080 -0.4310  0.6286  0.1176
   63CHL1  H24A 7131   3.265   2.466   9.140 -1.5107  0.3083 -0.9757
   63CHL1  H24B 7132   3.229   2.634   9.078 -0.7645  0.3643  0.9323
   63CHL1   C25 7133   3.345   2.523   8.935 -0.4461  0.4664 -0.0229
   63CHL1   H25 7134   3.426   2.595   8.910  1.0107 -1.4817 -1.1312
   63CHL1   C26 7135   3.421   2.386   8.914  1.0303 -0.4949  0.5038
   63CHL1  H26A 7136   3.347   2.303   8.909 -1.6029  1.7607 -0.4723
   63CHL1  H26B 7137   3.468   2.377   8.814 -1.4305 -1.5052 -0.6495
   63CHL1  H26C 7138   3.485   2.373   9.004 -0.8157 -2.1352  1.6683
   63CHL1   C27 7139   3.229   2.534   8.838 -0.1722 -0.4360 -0.2843
   63CHL1  H27A 7140   3.265   2.535   8.733 -0.9573  2.0479 -0.5866
   63CHL1  H27B 7141   3.155   2.455   8.863  1.2696 -0.7097  3.9148
   63CHL1  H27C 7142   3.190   2.636   8.859  2.1802  0.2641  1.1645
   64CHL1    C3 7143   1.648   0.477   9.778  0.2000  0.4867  0.2684
   64CHL1    H3 7144   1.698   0.565   9.733 -3.7285  3.2214  0.6873
   64CHL1    O3 7145   1.667   0.465   9.921 -0.1265 -0.6457  0.4710
   64CHL1   H3' 7146   1.758   0.436   9.914  0.1046  0.0652  0.4951
   64CHL1    C4 7147   1.502   0.478   9.744 -0.3887 -0.3682  0.6683
   64CHL1   H4A 7148   1.449   0.387   9.780 -0.9288  0.2774  1.5531
   64CHL1   H4B 7149   1.444   0.558   9.796 -1.4395  0.4128 -1.5848
   64CHL1    C5 7150   1.492   0.474   9.589  0.0131 -0.1986  0.6110
   64CHL1    C6 7151   1.413   0.560   9.515  0.1720 -0.4680  0.3482
   64CHL1    H6 7152   1.357   0.637   9.571 -1.4659 -0.3085 -1.4145
   64CHL1    C7 7153   1.394   0.555   9.363 -0.1041 -0.1572  0.2200
   64CHL1   H7A 7154   1.287   0.566   9.335 -0.0899 -0.5928 -0.0277
   64CHL1   H7B 7155   1.459   0.631   9.314  0.3997 -0.6684  0.0748
   64CHL1    C8 7156   1.439   0.421   9.300 -0.5962  1.2656 -0.1320
   64CHL1    H8 7157   1.361   0.344   9.317  0.4202 -0.5877 -3.0192
   64CHL1   C14 7158   1.453   0.432   9.147  0.4680 -0.0256 -0.0129
   64CHL1   H14 7159   1.533   0.506   9.128 -0.2025  0.2227 -2.1975
   64CHL1   C15 7160   1.329   0.488   9.076  0.8394 -0.1843  0.1591
   64CHL1  H15A 7161   1.236   0.443   9.116  0.0357  0.3013 -1.0998
   64CHL1  H15B 7162   1.315   0.598   9.078 -1.1292 -0.4075  0.3722
   64CHL1   C16 7163   1.342   0.435   8.933  0.2178 -0.7681 -0.1618
   64CHL1  H16A 7164   1.256   0.373   8.899  1.1081 -0.9994 -2.1595
   64CHL1  H16B 7165   1.345   0.527   8.869 -0.4909 -1.2361 -0.8869
   64CHL1   C17 7166   1.468   0.344   8.928 -0.0668 -0.5672  0.4761
   64CHL1   H17 7167   1.552   0.412   8.902  0.0041 -1.4753 -1.8649
   64CHL1   C13 7168   1.489   0.302   9.071 -0.7749  0.0242  0.1702
   64CHL1   C18 7169   1.380   0.201   9.108 -0.5767 -0.2886 -0.0472
   64CHL1  H18A 7170   1.377   0.166   9.213  1.5493 -0.9541 -0.1528
   64CHL1  H18B 7171   1.281   0.250   9.100 -0.9302 -0.7080  1.4324
   64CHL1  H18C 7172   1.372   0.116   9.037 -1.8502  0.7833 -1.2314
   64CHL1   C12 7173   1.631   0.277   9.121 -0.3227 -0.1539  0.8789
   64CHL1  H12A 7174   1.660   0.179   9.077  0.0987  1.4846 -2.8218
   64CHL1  H12B 7175   1.703   0.349   9.077 -1.8072  1.3126  0.7391
   64CHL1   C11 7176   1.647   0.271   9.274 -0.1144  0.4155  0.2669
   64CHL1  H11A 7177   1.589   0.180   9.299  0.6316  0.2404  1.4549
   64CHL1  H11B 7178   1.753   0.250   9.300  0.0550 -1.2654 -1.5825
   64CHL1    C9 7179   1.576   0.381   9.357  0.1822  0.3502 -0.5534
   64CHL1    H9 7180   1.635   0.473   9.339 -1.3193  1.5823  0.5033
   64CHL1   C10 7181   1.572   0.356   9.511 -0.4282 -0.4094  1.0023
   64CHL1   C19 7182   1.506   0.222   9.538  0.2028 -0.2765 -0.8532
   64CHL1  H19A 7183   1.486   0.219   9.647 -2.7921  2.4030 -1.1742
   64CHL1  H19B 7184   1.407   0.209   9.488 -0.7294 -1.2833  1.1460
   64CHL1  H19C 7185   1.575   0.139   9.512 -1.2827 -1.5537 -0.8678
   64CHL1    C1 7186   1.722   0.359   9.563 -0.4670  0.5730  0.6906
   64CHL1   H1A 7187   1.775   0.270   9.523 -3.5045 -1.6622  1.3020
   64CHL1   H1B 7188   1.780   0.445   9.523  2.7558 -0.6654  2.3107
   64CHL1    C2 7189   1.724   0.353   9.711 -0.5757  0.0249  0.2165
   64CHL1   H2A 7190   1.828   0.358   9.748 -0.4321  2.4810 -0.3161
   64CHL1   H2B 7191   1.679   0.259   9.750  1.2569 -0.9154  0.1706
   64CHL1   C20 7192   1.459   0.239   8.815 -0.1950  0.6944 -0.3640
   64CHL1   H20 7193   1.366   0.180   8.833  2.5802 -4.4362 -1.0421
   64CHL1   C21 7194   1.575   0.131   8.830 -0.0890 -0.0342 -0.1742
   64CHL1  H21A 7195   1.565   0.068   8.922 -1.9100  0.6671  0.1480
   64CHL1  H21B 7196   1.670   0.186   8.846  0.1047 -0.3329 -0.2918
   64CHL1  H21C 7197   1.589   0.067   8.740  0.4115  2.4800 -1.9802
   64CHL1   C22 7198   1.447   0.288   8.671  0.6182 -0.1457 -0.3336
   64CHL1  H22A 7199   1.347   0.332   8.652  1.1361 -0.2654 -3.9725
   64CHL1  H22B 7200   1.520   0.366   8.641 -0.6792  1.5363  0.6533
   64CHL1   C23 7201   1.474   0.179   8.562  0.4416 -0.3791  0.0649
   64CHL1  H23A 7202   1.584   0.173   8.551  0.5483  1.3691 -0.1119
   64CHL1  H23B 7203   1.423   0.086   8.597  2.6997 -2.0959 -0.9559
   64CHL1   C24 7204   1.415   0.217   8.420  0.1541 -0.9536 -0.0198
   64CHL1  H24A 7205   1.307   0.241   8.429  0.0986 -1.3206  0.3094
   64CHL1  H24B 7206   1.470   0.310   8.392 -0.2124 -1.5761 -3.1857
   64CHL1   C25 7207   1.435   0.105   8.313  0.3699 -0.3243  0.1092
   64CHL1   H25 7208   1.545   0.089   8.318  1.0005  3.3069  0.5514
   64CHL1   C26 7209   1.362  -0.018   8.347  0.7089  0.1972 -0.7123
   64CHL1  H26A 7210   1.378  -0.088   8.262  0.6233 -1.1609  0.3526
   64CHL1  H26B 7211   1.398  -0.053   8.446 -0.2983  0.5131 -0.2276
   64CHL1  H26C 7212   1.254   0.004   8.353  1.1170  2.2123 -0.0888
   64CHL1   C27 7213   1.394   0.158   8.172 -1.0382 -0.2487 -0.0793
   64CHL1  H27A 7214   1.455   0.247   8.148 -0.3938 -0.0919  1.9541
   64CHL1  H27B 7215   1.424   0.078   8.101  0.0566 -0.3958  0.5353
   64CHL1  H27C 7216   1.284   0.178   8.169 -0.9339  0.2424 -0.8239
   65CHL1    C3 7217   0.764   5.184  10.061 -0.2107 -0.7030 -0.3387
   65CHL1    H3 7218   0.659   5.208  10.091  0.6895  0.7631  1.9339
   65CHL1    O3 7219   0.842   5.205  10.179 -0.1897 -0.0260  0.2462
   65CHL1   H3' 7220   0.931   5.210  10.143 -0.6611 -2.1939 -1.3579
   65CHL1    C4 7221   0.802   5.042  10.007 -0.4895 -0.1000 -0.2294
   65CHL1   H4A 7222   0.912   5.038   9.998 -0.6594 -2.6814 -3.0641
   65CHL1   H4B 7223   0.771   4.962  10.078  0.5206  0.8640  1.3596
   65CHL1    C5 7224   0.741   5.013   9.877  0.1038 -0.0283 -0.6219
   65CHL1    C6 7225   0.648   4.915   9.867 -0.3275 -0.1306  0.1124
   65CHL1    H6 7226   0.625   4.858   9.958 -3.8397  1.2789  0.2377
   65CHL1    C7 7227   0.596   4.867   9.738 -0.5337 -0.3118  0.1374
   65CHL1   H7A 7228   0.607   4.757   9.724  0.0727 -0.0863 -1.2994
   65CHL1   H7B 7229   0.486   4.878   9.741 -0.6484 -1.2526 -0.1241
   65CHL1    C8 7230   0.667   4.930   9.612 -0.1579 -0.1315 -0.7586
   65CHL1    H8 7231   0.756   4.865   9.593  0.6001  1.4600 -3.0732
   65CHL1   C14 7232   0.582   4.919   9.487  0.6201 -0.7257  0.8872
   65CHL1   H14 7233   0.498   4.989   9.506  0.6145 -0.4497 -0.1035
   65CHL1   C15 7234   0.538   4.779   9.449  0.3168  0.4767  0.0454
   65CHL1  H15A 7235   0.628   4.714   9.453  0.7090  1.0859  2.1506
   65CHL1  H15B 7236   0.464   4.749   9.526  1.4858 -1.2247  0.5718
   65CHL1   C16 7237   0.479   4.789   9.307 -1.1767 -0.4409  0.4378
   65CHL1  H16A 7238   0.517   4.697   9.258 -2.1836 -1.0836  0.8162
   65CHL1  H16B 7239   0.369   4.772   9.310 -1.0536 -1.8763 -1.2571
   65CHL1   C17 7240   0.537   4.922   9.250  0.5161  0.7469  0.6034
   65CHL1   H17 7241   0.460   4.999   9.272 -0.0052  0.1808  0.7649
   65CHL1   C13 7242   0.641   4.967   9.353 -0.1651  0.1373  0.4488
   65CHL1   C18 7243   0.767   4.894   9.307 -0.2571 -0.0552 -0.3431
   65CHL1  H18A 7244   0.753   4.788   9.275  1.6108 -0.3960 -0.1582
   65CHL1  H18B 7245   0.817   4.953   9.227  1.4290  0.4651  1.0217
   65CHL1  H18C 7246   0.842   4.884   9.388 -0.7214 -0.6437  0.0265
   65CHL1   C12 7247   0.678   5.116   9.372  0.9149 -0.5490  0.6524
   65CHL1  H12A 7248   0.729   5.158   9.283  2.6136 -1.4602  1.1507
   65CHL1  H12B 7249   0.590   5.183   9.387  0.6064 -0.5137 -1.0653
   65CHL1   C11 7250   0.767   5.131   9.500 -0.9336 -0.3864 -0.1501
   65CHL1  H11A 7251   0.860   5.074   9.479 -0.4081  0.4189 -0.0749
   65CHL1  H11B 7252   0.798   5.237   9.513 -0.5212 -0.5535  0.2529
   65CHL1    C9 7253   0.708   5.082   9.632  0.3628  0.9839 -0.1258
   65CHL1    H9 7254   0.609   5.132   9.641 -1.9234 -2.9003 -1.3441
   65CHL1   C10 7255   0.786   5.097   9.759 -0.6865 -0.5898  0.1524
   65CHL1   C19 7256   0.937   5.060   9.723  0.0058 -0.0528 -0.0892
   65CHL1  H19A 7257   1.009   5.030   9.802  0.2994  0.1018 -0.2945
   65CHL1  H19B 7258   0.922   4.967   9.664  0.5648 -1.2341  1.5507
   65CHL1  H19C 7259   0.987   5.136   9.659 -0.4828  1.3974  1.2153
   65CHL1    C1 7260   0.763   5.247   9.810 -0.5801 -0.3289  0.2194
   65CHL1   H1A 7261   0.792   5.312   9.726  1.8646 -2.3040 -0.5704
   65CHL1   H1B 7262   0.653   5.257   9.827 -0.4704 -0.0744  0.8203
   65CHL1    C2 7263   0.822   5.279   9.951 -0.1678  0.4006  0.1791
   65CHL1   H2A 7264   0.799   5.387   9.963  0.0861  0.4107  0.6177
   65CHL1   H2B 7265   0.930   5.264   9.929 -0.9049 -2.5086 -2.0723
   65CHL1   C20 7266   0.560   4.913   9.103 -0.0139 -0.0519  0.3108
   65CHL1   H20 7267   0.635   4.833   9.084  1.3022  0.4807  2.7837
   65CHL1   C21 7268   0.621   5.049   9.047 -0.1521  0.5201  0.1525
   65CHL1  H21A 7269   0.635   5.058   8.937  0.4644 -0.5679  0.1244
   65CHL1  H21B 7270   0.725   5.064   9.082 -1.1143  0.9650  3.0636
   65CHL1  H21C 7271   0.564   5.139   9.079  1.3525  0.6104  2.8125
   65CHL1   C22 7272   0.426   4.880   9.036  1.0267 -0.2833  0.0959
   65CHL1  H22A 7273   0.394   4.778   9.066  0.6909  0.3446  2.0133
   65CHL1  H22B 7274   0.349   4.946   9.081  3.3335  2.1074  0.8147
   65CHL1   C23 7275   0.424   4.897   8.883  0.2782  0.4507 -0.9841
   65CHL1  H23A 7276   0.413   5.004   8.854 -0.2122 -0.2520 -3.6939
   65CHL1  H23B 7277   0.525   4.868   8.845  0.2947 -0.2538 -0.4357
   65CHL1   C24 7278   0.322   4.799   8.815  0.2761 -0.2528  0.6395
   65CHL1  H24A 7279   0.330   4.691   8.837  0.0209 -0.5953 -0.8601
   65CHL1  H24B 7280   0.224   4.813   8.866 -0.2090 -0.7829 -0.1157
   65CHL1   C25 7281   0.292   4.809   8.663 -0.3655  0.4156 -0.0533
   65CHL1   H25 7282   0.279   4.918   8.646  0.9583  0.6484  0.3113
   65CHL1   C26 7283   0.410   4.762   8.576 -0.6137  0.1687 -0.8555
   65CHL1  H26A 7284   0.380   4.778   8.470 -0.9758  0.6213 -0.6869
   65CHL1  H26B 7285   0.490   4.836   8.596 -1.2095  0.2195  1.6002
   65CHL1  H26C 7286   0.422   4.653   8.596  1.5432  0.0345 -2.4743
   65CHL1   C27 7287   0.163   4.736   8.622 -0.1801 -0.3844  0.2460
   65CHL1  H27A 7288   0.149   4.745   8.512 -0.9906 -0.4325  0.3362
   65CHL1  H27B 7289   0.173   4.627   8.640 -0.2397 -0.2126  1.4377
   65CHL1  H27C 7290   0.079   4.776   8.683 -0.0706 -0.8075  0.6831
   66CHL1    C3 7291   4.965   3.852  10.448  0.3837 -0.4379 -0.0124
   66CHL1    H3 7292   5.070   3.827  10.470  0.0681  0.6420  3.1394
   66CHL1    O3 7293   4.904   3.888  10.574  0.1647  0.2325  0.0413
   66CHL1   H3' 7294   4.855   3.810  10.603  0.9822  0.0007  0.8254
   66CHL1    C4 7295   4.949   3.969  10.347 -1.2359  0.2633  0.5034
   66CHL1   H4A 7296   4.842   3.997  10.355 -1.2919  0.2946 -0.2762
   66CHL1   H4B 7297   5.014   4.048  10.391  1.7503 -2.2782  1.0639
   66CHL1    C5 7298   4.984   3.944  10.201  0.3552 -0.9623 -0.6643
   66CHL1    C6 7299   5.073   4.015  10.139  0.0349 -0.0380  0.0439
   66CHL1    H6 7300   5.113   4.094  10.205  0.2401  1.2537 -1.5690
   66CHL1    C7 7301   5.110   4.001   9.995 -0.3343 -0.8010 -0.6290
   66CHL1   H7A 7302   5.101   4.105   9.958 -1.5472  0.0086  1.7346
   66CHL1   H7B 7303   5.213   3.961   9.986  0.1901 -0.2794  2.0326
   66CHL1    C8 7304   5.012   3.914   9.921  0.5563 -1.0868  0.1967
   66CHL1    H8 7305   4.923   3.977   9.899  1.6073  1.3702  2.3971
   66CHL1   C14 7306   5.074   3.872   9.788  0.2001  0.1772  0.0556
   66CHL1   H14 7307   5.168   3.819   9.816  0.8859  2.3046  2.1341
   66CHL1   C15 7308   5.115   3.987   9.702 -0.1071  0.2045 -1.0430
   66CHL1  H15A 7309   5.047   4.074   9.710 -1.5016 -1.0072  1.9859
   66CHL1  H15B 7310   5.221   4.016   9.722  0.2018  0.7092 -3.1332
   66CHL1   C16 7311   5.114   3.928   9.558 -0.5218  0.4244 -0.6901
   66CHL1  H16A 7312   5.065   3.996   9.485  1.3493  5.0152  1.9269
   66CHL1  H16B 7313   5.221   3.906   9.537 -0.2983 -0.1752  0.9137
   66CHL1   C17 7314   5.071   3.782   9.568  0.9829  0.3327  0.2703
   66CHL1   H17 7315   5.153   3.711   9.592 -1.1575 -2.4414 -0.0888
   66CHL1   C13 7316   4.983   3.783   9.697  0.2645  0.5686 -0.0260
   66CHL1   C18 7317   4.845   3.845   9.667  0.0616 -0.1822  0.3655
   66CHL1  H18A 7318   4.774   3.774   9.620  0.3383 -0.9609  1.1147
   66CHL1  H18B 7319   4.784   3.872   9.755 -1.9229 -3.0797  0.0159
   66CHL1  H18C 7320   4.856   3.937   9.605 -3.6116  0.3179  0.2379
   66CHL1   C12 7321   4.954   3.658   9.786 -0.0612 -0.2382  0.6070
   66CHL1  H12A 7322   4.899   3.587   9.720 -0.8305  1.2968 -0.4618
   66CHL1  H12B 7323   5.051   3.604   9.799 -0.3484 -1.0947 -0.5990
   66CHL1   C11 7324   4.880   3.690   9.919 -0.4486  0.0411 -0.0581
   66CHL1  H11A 7325   4.775   3.724   9.902 -0.9953 -1.8178 -0.6402
   66CHL1  H11B 7326   4.874   3.601   9.984  2.0469  0.0903  0.3373
   66CHL1    C9 7327   4.971   3.795   9.999 -0.0864 -0.6371 -0.1094
   66CHL1    H9 7328   5.066   3.740  10.017  1.2152  1.6356  0.4780
   66CHL1   C10 7329   4.916   3.822  10.142  0.2220 -0.6094  0.6140
   66CHL1   C19 7330   4.759   3.849  10.130  0.0493  0.4794 -0.4407
   66CHL1  H19A 7331   4.735   3.899  10.034  1.5519  0.1833 -1.0027
   66CHL1  H19B 7332   4.698   3.756  10.126 -0.0769  0.5334  0.1149
   66CHL1  H19C 7333   4.715   3.911  10.211  0.5254  2.4806 -1.6554
   66CHL1    C1 7334   4.949   3.708  10.239 -0.2193  0.6637  0.7044
   66CHL1   H1A 7335   4.907   3.611  10.206 -0.5751  1.0833 -0.1062
   66CHL1   H1B 7336   5.059   3.699  10.248 -0.2874  0.5557  1.4471
   66CHL1    C2 7337   4.904   3.722  10.389 -0.5965 -0.2747 -0.3568
   66CHL1   H2A 7338   4.937   3.623  10.427 -0.1471  0.1709  0.4176
   66CHL1   H2B 7339   4.794   3.734  10.377 -0.6325 -1.8304 -2.2261
   66CHL1   C20 7340   5.011   3.728   9.435 -0.3663 -0.0482 -0.0209
   66CHL1   H20 7341   4.908   3.769   9.427 -1.7419 -3.1702  0.3002
   66CHL1   C21 7342   5.009   3.573   9.434  0.2766 -0.0455 -0.0552
   66CHL1  H21A 7343   4.948   3.551   9.344 -0.3579  0.0660  0.3434
   66CHL1  H21B 7344   4.956   3.527   9.520  0.6774 -2.2878 -0.9311
   66CHL1  H21C 7345   5.107   3.524   9.415 -1.2120 -2.2268 -2.8095
   66CHL1   C22 7346   5.078   3.786   9.306 -0.2137 -0.0947 -0.5836
   66CHL1  H22A 7347   5.078   3.897   9.299 -3.4958 -0.0859 -2.2572
   66CHL1  H22B 7348   5.181   3.748   9.288 -0.0166  0.7972 -1.4462
   66CHL1   C23 7349   5.004   3.746   9.176 -0.1636  0.7033  0.2493
   66CHL1  H23A 7350   5.042   3.797   9.085 -2.2420  0.9179 -0.5493
   66CHL1  H23B 7351   5.011   3.637   9.157  0.8651  0.3792  2.2155
   66CHL1   C24 7352   4.859   3.789   9.171  0.4384  0.2971  0.3948
   66CHL1  H24A 7353   4.796   3.738   9.247 -2.6469  0.3207 -1.9479
   66CHL1  H24B 7354   4.856   3.899   9.182 -1.3481  0.3091  0.1470
   66CHL1   C25 7355   4.805   3.762   9.028 -0.0321  0.3922 -0.0945
   66CHL1   H25 7356   4.861   3.809   8.945  0.7089 -1.1065 -0.4760
   66CHL1   C26 7357   4.816   3.614   9.001 -0.4135  0.0918  0.1141
   66CHL1  H26A 7358   4.923   3.588   8.987  0.2429  2.1862  0.8779
   66CHL1  H26B 7359   4.791   3.555   9.091  0.3450  2.0476  1.6759
   66CHL1  H26C 7360   4.776   3.584   8.902  1.7561  0.1372 -0.8331
   66CHL1   C27 7361   4.661   3.806   9.034 -0.4367  0.1491  0.2638
   66CHL1  H27A 7362   4.658   3.905   9.084  2.1209 -0.0418  0.9391
   66CHL1  H27B 7363   4.617   3.826   8.934  0.0507  1.4039  0.2834
   66CHL1  H27C 7364   4.598   3.741   9.099  1.0002  0.6770  2.2749
   67CHL1    C3 7365   0.920   4.587  10.266  0.0069  0.6496  0.6490
   67CHL1    H3 7366   1.024   4.559  10.296 -0.2242 -0.0314  0.8316
   67CHL1    O3 7367   0.847   4.619  10.382 -0.3176 -0.3535 -0.1123
   67CHL1   H3' 7368   0.766   4.569  10.370 -0.5233  0.4127 -2.4702
   67CHL1    C4 7369   0.922   4.713  10.181 -0.2552  0.1321 -0.6695
   67CHL1   H4A 7370   0.822   4.761  10.181  0.0047  0.7131  0.2750
   67CHL1   H4B 7371   0.984   4.787  10.236 -0.7399 -0.0656  0.1619
   67CHL1    C5 7372   0.968   4.685  10.041  0.1949 -0.2338  0.3131
   67CHL1    C6 7373   1.066   4.750   9.986  0.4741 -0.6689 -0.0640
   67CHL1    H6 7374   1.120   4.825  10.045 -0.2439 -0.5656  0.4844
   67CHL1    C7 7375   1.110   4.736   9.847  0.5811 -0.5267  0.3213
   67CHL1   H7A 7376   1.115   4.839   9.807 -0.8873 -0.3988  0.4357
   67CHL1   H7B 7377   1.218   4.707   9.850  0.3602 -1.3377  0.8060
   67CHL1    C8 7378   1.027   4.645   9.754  0.2317  0.5706 -0.1773
   67CHL1    H8 7379   0.937   4.703   9.724  0.3517  0.4624 -0.7604
   67CHL1   C14 7380   1.106   4.592   9.636 -0.4496 -0.1120  0.0025
   67CHL1   H14 7381   1.189   4.533   9.681 -2.0902 -2.0796  0.5885
   67CHL1   C15 7382   1.175   4.696   9.539 -0.1822 -0.1484 -0.6474
   67CHL1  H15A 7383   1.104   4.780   9.523 -1.2057 -0.5109  1.6882
   67CHL1  H15B 7384   1.257   4.744   9.596 -0.9368  0.2419  0.1284
   67CHL1   C16 7385   1.221   4.617   9.416 -0.0177  0.1226  0.3684
   67CHL1  H16A 7386   1.193   4.667   9.320 -1.9041 -0.0408  0.8072
   67CHL1  H16B 7387   1.328   4.588   9.408 -0.5839 -1.7690 -1.1764
   67CHL1   C17 7388   1.143   4.481   9.425  0.5232  0.4679 -0.1995
   67CHL1   H17 7389   1.215   4.412   9.476 -2.6345 -0.8383  2.9136
   67CHL1   C13 7390   1.041   4.492   9.539  0.5904 -0.7744  0.0249
   67CHL1   C18 7391   0.913   4.567   9.478 -0.6021 -0.2164 -0.2410
   67CHL1  H18A 7392   0.852   4.499   9.414  0.1951 -0.8722 -0.3093
   67CHL1  H18B 7393   0.834   4.583   9.555 -1.3684 -2.1844 -0.5589
   67CHL1  H18C 7394   0.938   4.655   9.416  1.3305 -0.5316  0.0407
   67CHL1   C12 7395   0.998   4.371   9.631  0.6478  0.1511 -0.3728
   67CHL1  H12A 7396   0.941   4.292   9.577 -2.5635  1.0775  1.3759
   67CHL1  H12B 7397   1.093   4.321   9.658  0.9089 -0.9502 -3.0065
   67CHL1   C11 7398   0.919   4.412   9.759  0.3750  0.7251  0.1256
   67CHL1  H11A 7399   0.820   4.445   9.719 -0.9450  0.0427  2.6377
   67CHL1  H11B 7400   0.900   4.315   9.808 -0.2143  0.8691  0.1847
   67CHL1    C9 7401   0.986   4.524   9.837 -0.7543 -0.0765 -0.2135
   67CHL1    H9 7402   1.078   4.481   9.883 -2.4865 -2.5051  1.1878
   67CHL1   C10 7403   0.907   4.564   9.965 -0.1442 -0.0462  0.3985
   67CHL1   C19 7404   0.761   4.602   9.922  0.1427  0.7108 -0.7222
   67CHL1  H19A 7405   0.754   4.655   9.825  2.2838  0.6040 -0.9846
   67CHL1  H19B 7406   0.722   4.499   9.912  0.5607  0.6719 -2.0565
   67CHL1  H19C 7407   0.707   4.652  10.006  0.6832  1.9396 -1.0719
   67CHL1    C1 7408   0.925   4.441  10.061  0.2734  0.1749  0.0393
   67CHL1   H1A 7409   0.879   4.348  10.020 -0.9048  0.7613 -0.0093
   67CHL1   H1B 7410   1.030   4.426  10.095 -0.1805  0.3812  1.6351
   67CHL1    C2 7411   0.852   4.469  10.195  0.3171  0.4678 -0.0019
   67CHL1   H2A 7412   0.867   4.374  10.252  1.0511 -0.7798 -2.1727
   67CHL1   H2B 7413   0.746   4.497  10.179 -0.5416 -2.4183 -0.0213
   67CHL1   C20 7414   1.098   4.414   9.292  0.2101  0.5083 -0.5203
   67CHL1   H20 7415   1.032   4.485   9.238  0.3406  0.5663 -0.6019
   67CHL1   C21 7416   1.026   4.286   9.324  0.5435  0.0038  0.4866
   67CHL1  H21A 7417   0.927   4.324   9.360 -0.1056 -0.6954 -0.5337
   67CHL1  H21B 7418   1.079   4.233   9.406  1.3506  0.9402  0.5857
   67CHL1  H21C 7419   1.013   4.222   9.234  0.4616 -0.7590  1.0302
   67CHL1   C22 7420   1.222   4.387   9.198  0.4588 -0.1667 -0.4414
   67CHL1  H22A 7421   1.288   4.475   9.200 -0.3887  0.5662  3.2684
   67CHL1  H22B 7422   1.281   4.297   9.226  2.0048  0.2337 -2.2235
   67CHL1   C23 7423   1.195   4.380   9.044  0.5665 -0.0151 -0.1686
   67CHL1  H23A 7424   1.100   4.433   9.022 -0.2950 -0.7492  1.6361
   67CHL1  H23B 7425   1.281   4.427   8.991 -0.0745 -0.7428 -1.9446
   67CHL1   C24 7426   1.184   4.234   8.993 -0.3927 -0.4256  0.3327
   67CHL1  H24A 7427   1.281   4.185   9.013 -0.0431 -0.1069 -0.5275
   67CHL1  H24B 7428   1.105   4.173   9.044 -1.3876  0.1725 -0.4540
   67CHL1   C25 7429   1.159   4.229   8.839  0.1235  0.0605 -0.2227
   67CHL1   H25 7430   1.245   4.283   8.794 -0.5281  0.1657 -1.4002
   67CHL1   C26 7431   1.168   4.085   8.792  0.1316 -0.2608 -0.0925
   67CHL1  H26A 7432   1.155   4.078   8.682  0.1215 -3.6367  0.0306
   67CHL1  H26B 7433   1.266   4.041   8.820 -0.1236  0.2020  1.6463
   67CHL1  H26C 7434   1.088   4.025   8.839  0.4558  1.2856  2.6572
   67CHL1   C27 7435   1.024   4.284   8.802  0.1692 -1.0480  0.1257
   67CHL1  H27A 7436   0.985   4.234   8.710 -0.5772 -0.9185  0.3634
   67CHL1  H27B 7437   0.951   4.253   8.879 -0.4254  0.5835  0.2519
   67CHL1  H27C 7438   1.017   4.395   8.801  4.4811 -0.6096  0.9812
   68CHL1    C3 7439   0.678   5.565  10.234 -0.1199 -0.3414 -0.6141
   68CHL1    H3 7440   0.747   5.491  10.188 -1.3415 -1.5239 -0.6042
   68CHL1    O3 7441   0.714   5.581  10.368 -0.0401 -0.0564 -0.2271
   68CHL1   H3' 7442   0.668   5.662  10.392  1.7767  0.6294  1.2174
   68CHL1    C4 7443   0.695   5.701  10.162  0.2080  0.9763 -0.6092
   68CHL1   H4A 7444   0.632   5.783  10.203  0.3417  0.5360  0.5234
   68CHL1   H4B 7445   0.798   5.741  10.175  1.0096 -0.6211 -1.8099
   68CHL1    C5 7446   0.663   5.683  10.015 -0.3366  0.4041  0.4426
   68CHL1    C6 7447   0.758   5.701   9.922 -0.3412 -0.3600  0.0074
   68CHL1    H6 7448   0.857   5.732   9.957 -1.4377  1.2234  1.9693
   68CHL1    C7 7449   0.748   5.668   9.775 -0.3781  0.0974  0.0450
   68CHL1   H7A 7450   0.791   5.757   9.725 -0.5718  1.8031  2.7036
   68CHL1   H7B 7451   0.811   5.579   9.751 -0.1042 -0.1350  1.5246
   68CHL1    C8 7452   0.603   5.651   9.734  0.3126 -0.1977  0.2901
   68CHL1    H8 7453   0.561   5.754   9.731  0.0090 -0.1861  2.8702
   68CHL1   C14 7454   0.599   5.583   9.591  0.3976  0.2753 -0.1294
   68CHL1   H14 7455   0.643   5.483   9.614 -1.0622 -0.9209 -2.2209
   68CHL1   C15 7456   0.693   5.634   9.480  0.0833  0.2671 -0.0724
   68CHL1  H15A 7457   0.686   5.745   9.474 -1.0515  0.1143 -2.3119
   68CHL1  H15B 7458   0.797   5.599   9.499 -0.4039 -1.0170  0.3078
   68CHL1   C16 7459   0.632   5.571   9.354  0.5593 -0.2452  0.1735
   68CHL1  H16A 7460   0.619   5.652   9.279 -0.2840  1.3237  1.9269
   68CHL1  H16B 7461   0.691   5.487   9.312 -1.7641 -1.7687 -0.2435
   68CHL1   C17 7462   0.491   5.509   9.392 -0.1074 -0.5817 -0.1310
   68CHL1   H17 7463   0.518   5.402   9.403 -0.3719 -0.5748  0.5887
   68CHL1   C13 7464   0.454   5.569   9.531  0.0352  0.3213  0.0336
   68CHL1   C18 7465   0.391   5.704   9.510  0.3099  0.1042  0.7671
   68CHL1  H18A 7466   0.402   5.763   9.604  1.7335 -0.8725  1.2656
   68CHL1  H18B 7467   0.445   5.766   9.435  0.8117 -3.5427 -2.1379
   68CHL1  H18C 7468   0.288   5.688   9.475  0.1096  0.1097  1.3396
   68CHL1   C12 7469   0.373   5.482   9.640 -0.5947 -0.2878  0.5961
   68CHL1  H12A 7470   0.266   5.469   9.611 -0.4266  3.3192 -2.2487
   68CHL1  H12B 7471   0.416   5.379   9.634  0.5422  0.1106  1.4542
   68CHL1   C11 7472   0.379   5.537   9.782 -0.5103  0.4987  0.2158
   68CHL1  H11A 7473   0.319   5.630   9.789  0.2553  0.9369  1.1131
   68CHL1  H11B 7474   0.328   5.455   9.837  0.2221 -1.6431 -2.0897
   68CHL1    C9 7475   0.522   5.573   9.833  0.4279 -0.2117 -0.2518
   68CHL1    H9 7476   0.569   5.473   9.822 -0.6171 -0.8538  0.8026
   68CHL1   C10 7477   0.529   5.614   9.985 -0.0320 -0.0560 -0.4581
   68CHL1   C19 7478   0.423   5.726  10.001  0.1044 -0.6976 -0.2835
   68CHL1  H19A 7479   0.422   5.782  10.097  1.3118  1.2186 -1.3309
   68CHL1  H19B 7480   0.432   5.798   9.918 -2.1009  2.1262  1.7315
   68CHL1  H19C 7481   0.320   5.690   9.980 -0.5253 -0.4002  2.0053
   68CHL1    C1 7482   0.492   5.492  10.074  0.3564 -0.0249 -0.1175
   68CHL1   H1A 7483   0.381   5.484  10.080  0.3914  0.4244  2.2481
   68CHL1   H1B 7484   0.525   5.398  10.025 -2.9168 -0.9500 -0.8032
   68CHL1    C2 7485   0.541   5.509  10.219  0.4470  0.0228  0.4068
   68CHL1   H2A 7486   0.531   5.411  10.269 -0.3425 -1.0137 -1.6536
   68CHL1   H2B 7487   0.485   5.594  10.264 -0.5168  1.2654 -2.8095
   68CHL1   C20 7488   0.384   5.522   9.287 -0.1453 -0.1772 -0.0849
   68CHL1   H20 7489   0.370   5.626   9.249 -1.2954  0.1063  1.0517
   68CHL1   C21 7490   0.255   5.449   9.325 -0.2980 -0.1693 -0.6455
   68CHL1  H21A 7491   0.269   5.340   9.341  1.6393 -0.1310 -1.7940
   68CHL1  H21B 7492   0.185   5.467   9.241  0.0577 -1.3394 -1.2122
   68CHL1  H21C 7493   0.209   5.495   9.415  0.9533  1.6650 -0.9022
   68CHL1   C22 7494   0.431   5.458   9.149  0.0187 -0.2268 -0.4550
   68CHL1  H22A 7495   0.532   5.499   9.130  0.3139 -1.2402 -1.1678
   68CHL1  H22B 7496   0.441   5.347   9.157  0.9851 -0.2472 -1.6837
   68CHL1   C23 7497   0.337   5.474   9.024 -0.4308  0.8264 -0.2803
   68CHL1  H23A 7498   0.235   5.440   9.049 -0.1372 -0.6443 -1.0071
   68CHL1  H23B 7499   0.324   5.578   8.987  1.8144  1.2944  0.0990
   68CHL1   C24 7500   0.385   5.396   8.905  1.0509  0.1854  0.2649
   68CHL1  H24A 7501   0.455   5.463   8.850  2.2799 -2.3545 -1.4611
   68CHL1  H24B 7502   0.445   5.309   8.938  0.4993 -0.6556 -0.8655
   68CHL1   C25 7503   0.277   5.359   8.798 -0.5866 -1.0837 -0.4146
   68CHL1   H25 7504   0.202   5.309   8.863  0.1489 -0.9847  0.5379
   68CHL1   C26 7505   0.215   5.479   8.724  0.0658  0.1525 -0.7994
   68CHL1  H26A 7506   0.291   5.539   8.669  1.8003  0.3271  1.6090
   68CHL1  H26B 7507   0.147   5.432   8.650  2.2362 -2.3155 -1.3946
   68CHL1  H26C 7508   0.158   5.541   8.797  0.0684 -1.0647  0.2754
   68CHL1   C27 7509   0.341   5.257   8.696  0.6965 -0.4207 -0.2884
   68CHL1  H27A 7510   0.268   5.194   8.640 -0.0270  1.3571 -1.4525
   68CHL1  H27B 7511   0.386   5.321   8.617 -0.4374  2.1024  0.9798
   68CHL1  H27C 7512   0.408   5.190   8.752 -1.1849 -1.7932  0.4366
   69CHL1    C3 7513   4.448   0.450   6.756  0.1262  0.2039 -0.7869
   69CHL1    H3 7514   4.448   0.340   6.770 -0.5226  0.3842  0.8488
   69CHL1    O3 7515   4.454   0.485   6.619  0.1807  0.0307 -0.6366
   69CHL1   H3' 7516   4.487   0.575   6.620 -0.0470  0.1141  1.0601
   69CHL1    C4 7517   4.317   0.509   6.808 -0.8409  0.0911  0.0965
   69CHL1   H4A 7518   4.328   0.619   6.798  0.3568  0.0843  1.1524
   69CHL1   H4B 7519   4.232   0.472   6.746  1.2532 -0.7625 -2.4529
   69CHL1    C5 7520   4.299   0.489   6.960 -0.2131 -0.7021  1.3225
   69CHL1    C6 7521   4.200   0.411   7.002 -0.1109 -0.0335 -0.6119
   69CHL1    H6 7522   4.127   0.380   6.926 -2.0505  1.3898  0.5593
   69CHL1    C7 7523   4.184   0.381   7.145 -0.6174  0.5877  0.6932
   69CHL1   H7A 7524   4.075   0.402   7.158 -1.0205 -0.2747 -0.9825
   69CHL1   H7B 7525   4.196   0.273   7.164  1.9961  0.4400 -1.1795
   69CHL1    C8 7526   4.275   0.454   7.239  0.7075 -0.4597  0.0209
   69CHL1    H8 7527   4.231   0.555   7.252 -0.5462 -1.0988  1.0047
   69CHL1   C14 7528   4.291   0.387   7.371 -0.0651 -0.4567  0.3756
   69CHL1   H14 7529   4.342   0.291   7.347  2.0264  0.4226  1.0897
   69CHL1   C15 7530   4.162   0.338   7.435  0.8232  0.1541 -1.3598
   69CHL1  H15A 7531   4.092   0.423   7.453 -0.3603 -0.9371 -0.5880
   69CHL1  H15B 7532   4.105   0.254   7.390  3.0555 -3.1561  1.5341
   69CHL1   C16 7533   4.213   0.298   7.576  0.4586  0.1146  0.2815
   69CHL1  H16A 7534   4.132   0.335   7.641  1.7193  0.9720  1.4190
   69CHL1  H16B 7535   4.230   0.189   7.572  2.4837  0.4063 -0.0418
   69CHL1   C17 7536   4.342   0.378   7.606  0.1999  0.5186  0.0170
   69CHL1   H17 7537   4.426   0.305   7.607 -0.3594 -0.1298  0.6745
   69CHL1   C13 7538   4.372   0.465   7.480  0.2136 -0.2630 -0.8086
   69CHL1   C18 7539   4.300   0.598   7.513 -0.0587 -0.3306 -0.0269
   69CHL1  H18A 7540   4.271   0.656   7.422 -0.3629 -0.4290  0.0048
   69CHL1  H18B 7541   4.208   0.593   7.574  0.7136  1.0444  1.3079
   69CHL1  H18C 7542   4.368   0.667   7.567 -0.0398  2.2192 -2.9881
   69CHL1   C12 7543   4.516   0.494   7.428  0.4069 -0.3996  0.2054
   69CHL1  H12A 7544   4.580   0.552   7.497  0.4742 -0.4110  0.1515
   69CHL1  H12B 7545   4.564   0.394   7.417  1.8581  0.2797  0.2484
   69CHL1   C11 7546   4.503   0.556   7.292  0.6959  0.5907  0.9539
   69CHL1  H11A 7547   4.446   0.650   7.305 -0.1458  0.3540 -0.7023
   69CHL1  H11B 7548   4.604   0.590   7.263  0.7586  0.8080  1.4285
   69CHL1    C9 7549   4.417   0.475   7.186  0.7699  0.0410 -0.0896
   69CHL1    H9 7550   4.470   0.380   7.163  1.8338  0.2106  1.4830
   69CHL1   C10 7551   4.419   0.540   7.043 -0.7801  0.8693  0.0794
   69CHL1   C19 7552   4.411   0.694   7.054 -0.2425  0.6440 -0.1034
   69CHL1  H19A 7553   4.325   0.728   7.115  1.6983  2.4159  1.8127
   69CHL1  H19B 7554   4.506   0.730   7.101 -0.3411 -0.4169  0.9825
   69CHL1  H19C 7555   4.403   0.745   6.956  0.0189 -0.3656 -0.6665
   69CHL1    C1 7556   4.554   0.487   6.975 -0.5084  0.1424 -0.1089
   69CHL1   H1A 7557   4.639   0.537   7.027 -0.4595  0.5672 -0.5809
   69CHL1   H1B 7558   4.565   0.378   6.986 -3.2238 -0.1949 -0.0171
   69CHL1    C2 7559   4.575   0.505   6.820  0.0693  0.2417 -0.0432
   69CHL1   H2A 7560   4.673   0.470   6.781 -0.2432 -0.7326  0.0062
   69CHL1   H2B 7561   4.566   0.612   6.794  1.0344  0.2316 -0.4505
   69CHL1   C20 7562   4.346   0.442   7.749  0.6904 -0.0093  0.1000
   69CHL1   H20 7563   4.257   0.508   7.759 -1.3812 -2.8263  1.7947
   69CHL1   C21 7564   4.483   0.512   7.778  0.2229  0.0789 -0.1720
   69CHL1  H21A 7565   4.480   0.563   7.877 -1.6390 -1.3011  0.5451
   69CHL1  H21B 7566   4.491   0.592   7.701 -0.2266  0.9982  0.7047
   69CHL1  H21C 7567   4.569   0.443   7.770 -0.1809 -0.2966 -1.6548
   69CHL1   C22 7568   4.314   0.341   7.864  0.4547 -0.2891 -0.7118
   69CHL1  H22A 7569   4.227   0.275   7.846  0.1872 -0.2633  0.4207
   69CHL1  H22B 7570   4.399   0.268   7.867 -0.4904 -1.3787  0.6712
   69CHL1   C23 7571   4.310   0.391   8.013 -0.2712 -0.3502  0.1439
   69CHL1  H23A 7572   4.412   0.403   8.054  0.2924  3.1588 -1.8568
   69CHL1  H23B 7573   4.245   0.481   8.020 -2.1638 -1.5554 -0.9623
   69CHL1   C24 7574   4.245   0.282   8.094  0.7229 -0.1583  0.0612
   69CHL1  H24A 7575   4.148   0.262   8.043  1.0860  2.1541 -1.7482
   69CHL1  H24B 7576   4.304   0.188   8.090  0.5004 -0.3244  0.6488
   69CHL1   C25 7577   4.214   0.325   8.239 -0.1259 -0.4770 -0.0083
   69CHL1   H25 7578   4.164   0.423   8.230  0.2456 -0.3791 -1.1586
   69CHL1   C26 7579   4.118   0.227   8.317  0.0707 -0.6721 -0.1842
   69CHL1  H26A 7580   4.104   0.260   8.423 -0.0843  0.7129 -0.6212
   69CHL1  H26B 7581   4.022   0.227   8.261  0.2984 -1.3440 -0.5834
   69CHL1  H26C 7582   4.153   0.122   8.309 -0.6921 -0.8043 -2.1852
   69CHL1   C27 7583   4.345   0.337   8.317  0.2317 -0.2768 -0.3408
   69CHL1  H27A 7584   4.418   0.401   8.263 -1.9008  1.3426 -1.4430
   69CHL1  H27B 7585   4.327   0.397   8.409  2.2682  0.2309 -0.2297
   69CHL1  H27C 7586   4.381   0.243   8.363 -1.9795 -0.0445  2.1266
   70CHL1    C3 7587   5.243   4.150   7.029 -0.0137 -0.0357 -0.0612
   70CHL1    H3 7588   5.347   4.117   7.009  0.1610  0.9670 -0.8671
   70CHL1    O3 7589   5.176   4.160   6.904  0.3199  0.4247 -0.3140
   70CHL1   H3' 7590   5.168   4.069   6.873  1.6174  0.3500 -0.4998
   70CHL1    C4 7591   5.186   4.045   7.127 -0.2005  0.2643 -0.4928
   70CHL1   H4A 7592   5.075   4.052   7.137 -0.1386 -1.0701  1.9395
   70CHL1   H4B 7593   5.210   3.943   7.091  0.6842 -0.7327  2.5904
   70CHL1    C5 7594   5.240   4.066   7.265  0.2212 -0.1272  0.6625
   70CHL1    C6 7595   5.312   3.971   7.328 -0.4927  0.4508 -0.8655
   70CHL1    H6 7596   5.340   3.876   7.279 -0.6423  0.9333 -1.9207
   70CHL1    C7 7597   5.365   3.990   7.469 -0.0286 -0.8750 -0.4253
   70CHL1   H7A 7598   5.350   3.898   7.528 -2.2205 -0.0975  0.3172
   70CHL1   H7B 7599   5.474   4.011   7.457 -0.2024 -0.5853 -1.7002
   70CHL1    C8 7600   5.279   4.093   7.549 -0.3996  0.3432 -0.4785
   70CHL1    H8 7601   5.184   4.035   7.554  1.0151 -1.9899  1.0175
   70CHL1   C14 7602   5.348   4.127   7.679  0.2589 -0.2142  0.2677
   70CHL1   H14 7603   5.441   4.176   7.643 -0.2220  0.6706  0.2131
   70CHL1   C15 7604   5.393   4.019   7.769  0.8800  0.7230  0.2936
   70CHL1  H15A 7605   5.311   3.945   7.784  1.9042 -0.7483 -1.0524
   70CHL1  H15B 7606   5.471   3.959   7.717 -0.2196 -0.9223  0.4513
   70CHL1   C16 7607   5.431   4.088   7.896  0.4434 -0.1950  0.5843
   70CHL1  H16A 7608   5.371   4.049   7.980  0.1501  0.6079  0.7581
   70CHL1  H16B 7609   5.538   4.092   7.925  0.3708  1.7511  0.7307
   70CHL1   C17 7610   5.387   4.239   7.891  0.1704  0.2487 -0.6267
   70CHL1   H17 7611   5.477   4.293   7.853  1.8847 -1.0267  1.4460
   70CHL1   C13 7612   5.289   4.242   7.767  0.1779  1.0639 -0.7552
   70CHL1   C18 7613   5.146   4.196   7.817 -0.1227 -0.0753 -0.0215
   70CHL1  H18A 7614   5.082   4.161   7.733 -0.9406  0.6991  0.2663
   70CHL1  H18B 7615   5.161   4.116   7.892  1.3450 -2.2267 -2.4419
   70CHL1  H18C 7616   5.106   4.289   7.861  2.5466  1.1602 -0.0379
   70CHL1   C12 7617   5.282   4.369   7.684  0.3724  0.1905 -0.3762
   70CHL1  H12A 7618   5.222   4.449   7.733  1.4641 -0.2421  1.8191
   70CHL1  H12B 7619   5.386   4.398   7.660  0.5995 -1.1384 -1.1034
   70CHL1   C11 7620   5.210   4.346   7.546  0.0682  0.1753 -0.7748
   70CHL1  H11A 7621   5.106   4.316   7.575  0.6411 -0.4681  0.7090
   70CHL1  H11B 7622   5.214   4.442   7.490 -0.3935  2.2415  2.4744
   70CHL1    C9 7623   5.272   4.228   7.464 -0.1174  0.4777 -0.1180
   70CHL1    H9 7624   5.377   4.259   7.448  0.1700 -0.3504  0.1154
   70CHL1   C10 7625   5.208   4.208   7.327 -0.1623  0.3120 -0.2190
   70CHL1   C19 7626   5.051   4.232   7.337 -0.6140  0.0864  0.1738
   70CHL1  H19A 7627   4.998   4.212   7.241  0.2361  2.4512 -0.8413
   70CHL1  H19B 7628   5.013   4.156   7.409  2.5484 -1.9326 -0.0962
   70CHL1  H19C 7629   5.031   4.336   7.371 -0.6222 -0.4828  2.0413
   70CHL1    C1 7630   5.273   4.308   7.231  0.3512  0.6753 -0.7073
   70CHL1   H1A 7631   5.238   4.410   7.257 -2.5636  0.1646 -2.2520
   70CHL1   H1B 7632   5.383   4.290   7.227 -0.2017 -3.4100 -2.4297
   70CHL1    C2 7633   5.232   4.292   7.090 -0.4643  0.0767  0.3474
   70CHL1   H2A 7634   5.306   4.349   7.029  2.8913 -2.6704  1.5292
   70CHL1   H2B 7635   5.128   4.332   7.096 -0.0684  1.2549 -0.3243
   70CHL1   C20 7636   5.354   4.303   8.028  0.1625 -0.8514 -0.1330
   70CHL1   H20 7637   5.254   4.266   8.059 -0.1146  1.2307  1.7130
   70CHL1   C21 7638   5.343   4.460   8.004  0.3784  0.1511  0.3390
   70CHL1  H21A 7639   5.324   4.511   8.101 -1.0806  0.9095 -0.3135
   70CHL1  H21B 7640   5.251   4.486   7.948 -0.8879 -2.0239  1.2520
   70CHL1  H21C 7641   5.435   4.504   7.961  0.6457 -1.1105 -0.4544
   70CHL1   C22 7642   5.458   4.280   8.143  0.2504 -0.0667  0.9170
   70CHL1  H22A 7643   5.479   4.170   8.145 -0.6494 -0.2497  0.7164
   70CHL1  H22B 7644   5.564   4.312   8.134  0.7609 -1.9579 -0.5803
   70CHL1   C23 7645   5.420   4.317   8.290 -0.3948 -0.4973  0.2310
   70CHL1  H23A 7646   5.452   4.418   8.323 -2.4945  0.2143  0.2505
   70CHL1  H23B 7647   5.309   4.308   8.300 -0.4864 -2.1146 -1.6931
   70CHL1   C24 7648   5.475   4.215   8.395 -0.4036  0.2400 -0.5179
   70CHL1  H24A 7649   5.432   4.244   8.493  0.1612 -0.5083 -0.0386
   70CHL1  H24B 7650   5.436   4.113   8.376  0.0865 -0.5905  2.3676
   70CHL1   C25 7651   5.626   4.215   8.404 -0.1496 -0.6663 -0.4944
   70CHL1   H25 7652   5.662   4.193   8.301 -0.7744  0.7585 -1.0353
   70CHL1   C26 7653   5.680   4.351   8.450 -0.6671  0.1777 -0.2023
   70CHL1  H26A 7654   5.606   4.431   8.472  0.3359  1.1223 -0.1464
   70CHL1  H26B 7655   5.754   4.341   8.532 -0.2435 -1.1997 -0.7177
   70CHL1  H26C 7656   5.738   4.396   8.366 -1.9045 -0.6686 -1.5628
   70CHL1   C27 7657   5.669   4.101   8.491 -0.6969  0.0095  0.2516
   70CHL1  H27A 7658   5.627   4.005   8.453 -0.2209  0.9543 -2.8876
   70CHL1  H27B 7659   5.780   4.093   8.495 -0.8224 -2.8602 -0.0869
   70CHL1  H27C 7660   5.648   4.115   8.600  1.9619  2.6716  0.5339
   71CHL1    C3 7661   3.420   4.835   6.728  0.2751 -0.0598  0.6815
   71CHL1    H3 7662   3.498   4.756   6.728  0.3025 -0.0340  0.4296
   71CHL1    O3 7663   3.376   4.835   6.591  0.5524  0.3822  0.1220
   71CHL1   H3' 7664   3.438   4.889   6.542 -0.7885  0.8452 -1.1533
   71CHL1    C4 7665   3.300   4.792   6.821 -0.5128  0.2410 -0.4721
   71CHL1   H4A 7666   3.214   4.857   6.794 -0.1894 -0.6034 -4.1412
   71CHL1   H4B 7667   3.270   4.689   6.793  0.4285 -0.2811  0.3762
   71CHL1    C5 7668   3.336   4.800   6.971  0.7049 -0.0726 -1.0944
   71CHL1    C6 7669   3.310   4.703   7.065 -0.0887 -0.3727 -0.2857
   71CHL1    H6 7670   3.254   4.617   7.025  1.6889 -1.1056 -1.3391
   71CHL1    C7 7671   3.353   4.721   7.208  0.0764  0.4929  0.4765
   71CHL1   H7A 7672   3.266   4.684   7.265 -1.8677  2.3707 -1.1320
   71CHL1   H7B 7673   3.445   4.660   7.228  0.8712 -0.3133 -4.3457
   71CHL1    C8 7674   3.387   4.869   7.255  0.0997  0.2312  0.3337
   71CHL1    H8 7675   3.288   4.918   7.247 -0.6695 -1.5248 -2.1606
   71CHL1   C14 7676   3.445   4.883   7.392 -0.2539 -0.0416 -0.0954
   71CHL1   H14 7677   3.542   4.830   7.401  0.2303  0.4242 -2.1545
   71CHL1   C15 7678   3.356   4.825   7.510  0.0063  0.2638  0.2500
   71CHL1  H15A 7679   3.248   4.851   7.498 -0.6240 -2.0104  0.5848
   71CHL1  H15B 7680   3.355   4.715   7.518 -1.6955  0.3532  2.0846
   71CHL1   C16 7681   3.417   4.897   7.638  0.6955  0.2058  0.3384
   71CHL1  H16A 7682   3.334   4.941   7.698 -0.7409 -0.1491 -1.3079
   71CHL1  H16B 7683   3.470   4.819   7.697 -1.0049 -1.4462 -0.2174
   71CHL1   C17 7684   3.503   5.006   7.584 -0.0437 -0.5966  0.1469
   71CHL1   H17 7685   3.603   4.959   7.575  0.5580  0.4024  1.2826
   71CHL1   C13 7686   3.469   5.025   7.435 -0.0887 -0.0620  0.3936
   71CHL1   C18 7687   3.340   5.111   7.411  0.2401 -0.8920 -0.0790
   71CHL1  H18A 7688   3.313   5.108   7.303  2.1958 -0.4648 -0.6073
   71CHL1  H18B 7689   3.253   5.082   7.474  0.2380  1.7563  1.2520
   71CHL1  H18C 7690   3.357   5.214   7.447  1.0729 -1.6387  1.8340
   71CHL1   C12 7691   3.582   5.081   7.346  0.3646  0.8143 -0.0564
   71CHL1  H12A 7692   3.595   5.187   7.375  0.0764  0.8183  0.0629
   71CHL1  H12B 7693   3.682   5.039   7.367  0.0393  0.7112  1.3453
   71CHL1   C11 7694   3.561   5.067   7.195  0.2822  0.3060 -0.5822
   71CHL1  H11A 7695   3.486   5.147   7.180 -0.2404  0.0933  0.7912
   71CHL1  H11B 7696   3.649   5.081   7.128  1.7892  2.5247  1.6779
   71CHL1    C9 7697   3.490   4.926   7.156  0.1650 -0.4542  0.3035
   71CHL1    H9 7698   3.581   4.863   7.149  0.6680  0.1045  1.5834
   71CHL1   C10 7699   3.423   4.930   7.014 -0.8376  0.5904  0.0533
   71CHL1   C19 7700   3.316   5.043   7.013 -0.3790  0.0514  0.3115
   71CHL1  H19A 7701   3.260   5.059   6.918 -0.6524  2.1403  0.7853
   71CHL1  H19B 7702   3.239   5.027   7.092 -2.0384  0.9038 -1.0572
   71CHL1  H19C 7703   3.352   5.147   7.023 -1.5770  0.6691 -1.2412
   71CHL1    C1 7704   3.528   4.971   6.905  0.5010  0.6257 -0.5413
   71CHL1   H1A 7705   3.566   5.073   6.930 -0.7120  0.6528  1.3704
   71CHL1   H1B 7706   3.609   4.899   6.927 -0.2208 -0.0713 -0.1508
   71CHL1    C2 7707   3.482   4.974   6.766  0.0966  0.1474 -0.0862
   71CHL1   H2A 7708   3.579   4.993   6.715 -0.1948  0.8439 -0.3889
   71CHL1   H2B 7709   3.409   5.056   6.748  0.6282  0.7152  0.2949
   71CHL1   C20 7710   3.514   5.134   7.671 -0.5262  0.2102 -0.5754
   71CHL1   H20 7711   3.564   5.205   7.602 -1.0525  1.7872  0.6323
   71CHL1   C21 7712   3.626   5.102   7.779 -0.5638 -0.4644 -0.4923
   71CHL1  H21A 7713   3.714   5.069   7.720  0.4474  0.6908  0.3236
   71CHL1  H21B 7714   3.597   5.032   7.861 -0.4278  1.9679  1.7466
   71CHL1  H21C 7715   3.641   5.197   7.834 -4.1755 -0.8466  1.5005
   71CHL1   C22 7716   3.385   5.196   7.729 -0.1558  0.3814  0.1150
   71CHL1  H22A 7717   3.411   5.304   7.736 -0.2015  0.5944 -2.1776
   71CHL1  H22B 7718   3.306   5.217   7.654 -0.9895  0.0102  0.8682
   71CHL1   C23 7719   3.335   5.156   7.866 -0.2887  0.1523  0.1775
   71CHL1  H23A 7720   3.308   5.049   7.879  2.0998 -0.5342  0.0108
   71CHL1  H23B 7721   3.413   5.174   7.943  1.2825 -2.2212 -0.7494
   71CHL1   C24 7722   3.215   5.246   7.907  0.2171  0.0358 -0.0724
   71CHL1  H24A 7723   3.247   5.351   7.927  0.1216 -0.1266  0.9892
   71CHL1  H24B 7724   3.134   5.252   7.832 -2.7301  0.3451  2.9099
   71CHL1   C25 7725   3.144   5.202   8.046  0.2033 -0.5577  0.5089
   71CHL1   H25 7726   3.105   5.101   8.021 -0.2892  0.4622 -3.5806
   71CHL1   C26 7727   3.247   5.205   8.155 -0.9260  0.6736  0.0007
   71CHL1  H26A 7728   3.329   5.132   8.137  0.1839  2.2508 -1.6523
   71CHL1  H26B 7729   3.292   5.307   8.152  3.7888 -1.1539 -0.6703
   71CHL1  H26C 7730   3.209   5.184   8.257 -1.9039 -0.3783 -0.5628
   71CHL1   C27 7731   3.024   5.284   8.091 -0.7477  0.8439  0.4000
   71CHL1  H27A 7732   2.974   5.243   8.182  1.1476 -0.4385  0.9116
   71CHL1  H27B 7733   3.064   5.384   8.117 -0.7788  0.7277  0.9072
   71CHL1  H27C 7734   2.958   5.293   8.002  0.8617 -1.5951 -1.1593
   72CHL1    C3 7735   3.333   3.497   6.831 -0.2921 -0.1908 -0.1510
   72CHL1    H3 7736   3.425   3.558   6.844 -1.5677  1.9092 -0.5720
   72CHL1    O3 7737   3.300   3.512   6.691 -0.0587  0.9458  0.7278
   72CHL1   H3' 7738   3.279   3.605   6.679 -1.8525  0.5329  0.4470
   72CHL1    C4 7739   3.357   3.352   6.858  0.3787  0.0870  0.8471
   72CHL1   H4A 7740   3.268   3.294   6.829 -0.0716  1.1604 -0.0039
   72CHL1   H4B 7741   3.442   3.329   6.790 -0.2766  0.0462  0.0405
   72CHL1    C5 7742   3.391   3.328   7.001  0.0966  0.1772  0.1758
   72CHL1    C6 7743   3.510   3.269   7.041  0.1835  0.4201  0.8181
   72CHL1    H6 7744   3.583   3.250   6.961 -1.6804 -0.5767 -0.7307
   72CHL1    C7 7745   3.558   3.247   7.182  0.0787  0.0650  0.0661
   72CHL1   H7A 7746   3.592   3.142   7.193  1.1931  0.3589 -0.4876
   72CHL1   H7B 7747   3.648   3.310   7.199 -1.0191  1.1649  2.2200
   72CHL1    C8 7748   3.437   3.268   7.284  0.8145  0.1687 -0.3044
   72CHL1    H8 7749   3.377   3.176   7.274  0.5458  0.0042  2.2473
   72CHL1   C14 7750   3.491   3.279   7.421 -0.1352  0.2225  0.0169
   72CHL1   H14 7751   3.545   3.375   7.426 -1.6839  1.0869  2.3510
   72CHL1   C15 7752   3.572   3.160   7.482  0.4355 -0.0199 -0.3850
   72CHL1  H15A 7753   3.528   3.062   7.457  1.0583 -0.2051 -0.7693
   72CHL1  H15B 7754   3.680   3.163   7.456 -0.0525  1.2494 -2.4941
   72CHL1   C16 7755   3.567   3.178   7.634  0.5875  0.6685  0.1721
   72CHL1  H16A 7756   3.529   3.088   7.686 -1.7072  2.2586  1.4471
   72CHL1  H16B 7757   3.669   3.204   7.670 -0.1364  2.4649  1.0778
   72CHL1   C17 7758   3.468   3.294   7.654 -0.0375 -0.8182 -0.5386
   72CHL1   H17 7759   3.523   3.390   7.645 -4.2380  1.7767 -1.5078
   72CHL1   C13 7760   3.380   3.291   7.528  0.1597  0.2914 -0.2416
   72CHL1   C18 7761   3.296   3.163   7.519  0.1707 -0.7887 -0.3558
   72CHL1  H18A 7762   3.217   3.167   7.597  1.4684 -0.5140  0.9788
   72CHL1  H18B 7763   3.231   3.163   7.428  0.9787 -1.3825 -0.9491
   72CHL1  H18C 7764   3.343   3.067   7.551 -1.6918 -1.6487 -0.0508
   72CHL1   C12 7765   3.298   3.410   7.511  0.0186 -0.6390  0.2957
   72CHL1  H12A 7766   3.216   3.402   7.586 -0.7467 -2.3106 -0.6734
   72CHL1  H12B 7767   3.356   3.503   7.530  1.2409 -0.8013 -2.2382
   72CHL1   C11 7768   3.248   3.434   7.366 -1.0770  0.1220  0.1218
   72CHL1  H11A 7769   3.155   3.380   7.338  0.1345 -0.9916 -1.9852
   72CHL1  H11B 7770   3.213   3.539   7.355 -0.8112  0.1619 -0.4013
   72CHL1    C9 7771   3.351   3.390   7.252  0.2538 -0.3560 -0.4905
   72CHL1    H9 7772   3.422   3.475   7.253  0.0021 -0.1287 -1.0740
   72CHL1   C10 7773   3.284   3.387   7.102 -0.0217  0.2290  0.0835
   72CHL1   C19 7774   3.168   3.288   7.103 -0.0339  0.0596  0.4608
   72CHL1  H19A 7775   3.082   3.311   7.170 -0.7325  1.5834 -0.8961
   72CHL1  H19B 7776   3.124   3.270   7.002 -0.5664 -0.0273  0.7025
   72CHL1  H19C 7777   3.205   3.186   7.128 -1.5467 -0.2232  1.6963
   72CHL1    C1 7778   3.247   3.533   7.060  0.1733 -0.5182  0.1379
   72CHL1   H1A 7779   3.156   3.562   7.116 -0.2145  1.1585 -1.3008
   72CHL1   H1B 7780   3.333   3.594   7.096  1.2329 -2.1350  0.4618
   72CHL1    C2 7781   3.220   3.565   6.912 -0.0835  0.4334 -0.6952
   72CHL1   H2A 7782   3.208   3.674   6.896 -1.1281  0.4568  0.1343
   72CHL1   H2B 7783   3.123   3.528   6.872  0.4924  0.8225 -2.5587
   72CHL1   C20 7784   3.410   3.301   7.798  0.2034  0.0627  0.4657
   72CHL1   H20 7785   3.319   3.236   7.803  1.2006 -1.7213 -2.2488
   72CHL1   C21 7786   3.361   3.436   7.831  0.1069  0.4599  0.3000
   72CHL1  H21A 7787   3.315   3.437   7.931  0.5007 -2.8796  0.6387
   72CHL1  H21B 7788   3.282   3.475   7.763  0.0851 -4.1207 -2.7772
   72CHL1  H21C 7789   3.438   3.516   7.823 -2.0115  2.6849  0.9907
   72CHL1   C22 7790   3.491   3.239   7.921 -0.1800  0.0485  0.4973
   72CHL1  H22A 7791   3.522   3.134   7.901  2.2299  0.7343  0.3047
   72CHL1  H22B 7792   3.587   3.292   7.939 -0.1192 -0.2044  0.9224
   72CHL1   C23 7793   3.418   3.222   8.054  0.3737 -0.1357 -0.0103
   72CHL1  H23A 7794   3.486   3.177   8.129  1.2139 -0.5222 -0.9709
   72CHL1  H23B 7795   3.385   3.324   8.082  1.4235  0.1641  0.1354
   72CHL1   C24 7796   3.286   3.142   8.056 -0.0632  0.2463  0.5536
   72CHL1  H24A 7797   3.221   3.188   7.979  1.9301 -0.1185 -1.4268
   72CHL1  H24B 7798   3.328   3.040   8.042 -0.6354  0.1503 -0.5899
   72CHL1   C25 7799   3.202   3.146   8.187 -0.4172  0.1298  0.7514
   72CHL1   H25 7800   3.258   3.118   8.278  3.7651  2.1369 -0.9369
   72CHL1   C26 7801   3.159   3.294   8.214  0.6386 -0.1610  0.1436
   72CHL1  H26A 7802   3.121   3.344   8.122  0.6066  0.7280  0.6299
   72CHL1  H26B 7803   3.079   3.296   8.291  1.0004  0.2254  0.5115
   72CHL1  H26C 7804   3.237   3.363   8.253 -1.2268  0.6655  2.6381
   72CHL1   C27 7805   3.077   3.054   8.166 -0.6554  0.2817  0.1285
   72CHL1  H27A 7806   3.005   3.061   8.250 -2.0235  0.3419 -1.0114
   72CHL1  H27B 7807   3.019   3.079   8.074 -1.1938 -1.9298 -0.1939
   72CHL1  H27C 7808   3.105   2.947   8.154 -1.5882  0.1993 -1.7161
   73CHL1    C3 7809   5.871   1.072   6.809  0.2773 -0.6482  0.2595
   73CHL1    H3 7810   5.767   1.036   6.802 -0.5046  1.3448  0.8914
   73CHL1    O3 7811   5.904   1.129   6.686 -0.1715  0.7633 -0.1414
   73CHL1   H3' 7812   6.000   1.133   6.682 -0.0247  4.0480  2.4501
   73CHL1    C4 7813   5.860   1.180   6.917 -0.3485 -0.4390 -1.1258
   73CHL1   H4A 7814   5.959   1.231   6.924 -0.1507 -1.0429  1.1086
   73CHL1   H4B 7815   5.791   1.263   6.892  2.0887  1.4671 -1.9799
   73CHL1    C5 7816   5.832   1.128   7.057 -0.4074 -0.5218 -0.3200
   73CHL1    C6 7817   5.733   1.177   7.136  0.3294  0.6184  0.0265
   73CHL1    H6 7818   5.669   1.257   7.096 -1.5979 -2.4038 -3.4181
   73CHL1    C7 7819   5.708   1.129   7.279  0.8554 -0.1220 -0.4267
   73CHL1   H7A 7820   5.694   1.215   7.348  0.4164 -0.6869  0.1992
   73CHL1   H7B 7821   5.610   1.078   7.269  1.1751 -0.7930 -0.2480
   73CHL1    C8 7822   5.815   1.036   7.330 -0.4942 -0.3472  0.1721
   73CHL1    H8 7823   5.901   1.100   7.357 -1.1260  1.4687 -1.8457
   73CHL1   C14 7824   5.772   0.953   7.454  0.3629 -0.5789  0.8173
   73CHL1   H14 7825   5.698   0.874   7.430  2.7468 -3.5262  2.3957
   73CHL1   C15 7826   5.727   1.043   7.565 -0.3487 -0.3333 -0.1276
   73CHL1  H15A 7827   5.793   1.132   7.566 -1.5576  0.6444 -1.9157
   73CHL1  H15B 7828   5.627   1.089   7.555  0.2708  0.7298 -1.9182
   73CHL1   C16 7829   5.738   0.951   7.685  0.6253  0.4293  0.2514
   73CHL1  H16A 7830   5.783   1.010   7.768 -0.4177  0.9577  0.4624
   73CHL1  H16B 7831   5.634   0.927   7.717  0.3849  1.8979  0.6354
   73CHL1   C17 7832   5.827   0.830   7.654 -0.0401  0.3494  0.0535
   73CHL1   H17 7833   5.763   0.742   7.633 -1.4981  1.4351 -0.1726
   73CHL1   C13 7834   5.884   0.862   7.516  0.2880  0.1320 -0.0694
   73CHL1   C18 7835   6.015   0.937   7.529  0.4357 -0.4596 -0.0081
   73CHL1  H18A 7836   6.095   0.872   7.570  1.1393  1.2780  1.5598
   73CHL1  H18B 7837   6.053   0.961   7.427 -0.9518  0.7139 -0.2810
   73CHL1  H18C 7838   5.996   1.035   7.579 -2.9622 -0.1944 -1.5802
   73CHL1   C12 7839   5.898   0.750   7.416  0.0178  0.4036  0.4287
   73CHL1  H12A 7840   5.974   0.675   7.448 -1.4513 -1.3609 -0.0467
   73CHL1  H12B 7841   5.802   0.695   7.407 -1.5236  2.9561  0.3292
   73CHL1   C11 7842   5.938   0.812   7.279  0.4635 -0.1682  0.5449
   73CHL1  H11A 7843   6.048   0.826   7.277  0.4994 -0.5553 -0.6781
   73CHL1  H11B 7844   5.933   0.734   7.200  0.0518  0.0523  0.3505
   73CHL1    C9 7845   5.859   0.937   7.215 -0.4763  0.0266 -0.4032
   73CHL1    H9 7846   5.767   0.885   7.181  0.1012 -0.5050 -1.1826
   73CHL1   C10 7847   5.924   1.004   7.093  0.8109 -0.6881 -0.8351
   73CHL1   C19 7848   6.068   1.057   7.133  0.2917 -0.9420  0.6633
   73CHL1  H19A 7849   6.124   1.106   7.050 -1.1610 -0.8979 -0.3268
   73CHL1  H19B 7850   6.052   1.142   7.203 -1.3692  0.6150 -1.4394
   73CHL1  H19C 7851   6.129   0.968   7.160 -0.0178 -1.0576  0.9819
   73CHL1    C1 7852   5.932   0.897   6.984 -0.0482 -0.4435  0.7742
   73CHL1   H1A 7853   6.007   0.827   7.025  0.4746 -0.9577 -0.9517
   73CHL1   H1B 7854   5.846   0.829   6.969  0.6201 -1.5381  1.7681
   73CHL1    C2 7855   5.966   0.961   6.847 -0.3596  0.3434  0.0924
   73CHL1   H2A 7856   5.962   0.887   6.764 -0.1299  2.9140 -2.3637
   73CHL1   H2B 7857   6.074   0.987   6.846 -0.4903  0.9918  1.1387
   73CHL1   C20 7858   5.916   0.791   7.770 -0.3994  0.1401  0.9682
   73CHL1   H20 7859   6.000   0.861   7.788  0.1138  0.0298 -0.8507
   73CHL1   C21 7860   5.978   0.659   7.731 -0.2881 -0.1666  0.3678
   73CHL1  H21A 7861   6.057   0.679   7.655 -0.0860  1.5590  0.9809
   73CHL1  H21B 7862   5.904   0.580   7.707  0.2259 -0.6138  0.2129
   73CHL1  H21C 7863   6.033   0.629   7.823 -0.4125  2.2777  1.2977
   73CHL1   C22 7864   5.837   0.776   7.906 -0.2571  0.2681  0.1414
   73CHL1  H22A 7865   5.779   0.869   7.922  1.3761  1.3552  0.0084
   73CHL1  H22B 7866   5.764   0.692   7.905 -1.0177  0.9226  0.2265
   73CHL1   C23 7867   5.930   0.763   8.025  0.3351  0.0915  0.2337
   73CHL1  H23A 7868   6.002   0.678   8.020 -0.0577 -0.2361  0.0480
   73CHL1  H23B 7869   5.991   0.856   8.014 -0.7189  0.5675 -2.7218
   73CHL1   C24 7870   5.853   0.739   8.154 -0.1187  0.6282 -0.1488
   73CHL1  H24A 7871   5.777   0.819   8.167 -1.5859 -0.9656  1.4814
   73CHL1  H24B 7872   5.799   0.642   8.152  1.3884 -0.2248 -1.0119
   73CHL1   C25 7873   5.932   0.735   8.289 -0.2444  1.1514  0.3152
   73CHL1   H25 7874   5.969   0.840   8.300 -2.7361  2.0920  0.3969
   73CHL1   C26 7875   5.847   0.690   8.411 -0.3171 -0.5407  0.1386
   73CHL1  H26A 7876   5.903   0.723   8.501  1.6404 -0.1850 -1.1543
   73CHL1  H26B 7877   5.746   0.736   8.408  0.4458  1.3367  1.3065
   73CHL1  H26C 7878   5.833   0.580   8.405 -0.7001 -0.4043 -2.2106
   73CHL1   C27 7879   6.060   0.649   8.273  0.6206 -0.2756  0.6127
   73CHL1  H27A 7880   6.039   0.545   8.239  1.8868 -0.8133  1.3837
   73CHL1  H27B 7881   6.126   0.696   8.197 -0.0143 -0.6570 -0.1835
   73CHL1  H27C 7882   6.119   0.639   8.367 -0.3019 -1.7563  1.0680
   74CHL1    C3 7883   1.773   3.882   6.895  0.0720 -0.4864  0.1192
   74CHL1    H3 7884   1.732   3.784   6.928  2.1216 -0.5836  2.6684
   74CHL1    O3 7885   1.741   3.898   6.761  0.5301  0.2767  0.1316
   74CHL1   H3' 7886   1.658   3.945   6.759 -0.0166 -0.4519 -4.2697
   74CHL1    C4 7887   1.719   3.997   6.990 -0.0253  0.3160  0.8751
   74CHL1   H4A 7888   1.756   4.092   6.948 -2.0320  1.1612  0.8861
   74CHL1   H4B 7889   1.608   3.997   6.989 -0.0354 -0.6017  0.5104
   74CHL1    C5 7890   1.766   3.996   7.130  0.0395  0.1466  0.0737
   74CHL1    C6 7891   1.681   3.992   7.238 -0.7256  0.2194  1.2382
   74CHL1    H6 7892   1.572   3.991   7.221 -0.5403  1.2217 -0.1514
   74CHL1    C7 7893   1.725   4.003   7.378 -0.6039  0.2798 -0.3578
   74CHL1   H7A 7894   1.677   4.090   7.428  1.3964  1.0731  0.3082
   74CHL1   H7B 7895   1.688   3.919   7.440 -1.0302  0.6730 -0.0753
   74CHL1    C8 7896   1.879   4.016   7.397  0.3861  1.1609  0.2655
   74CHL1    H8 7897   1.905   4.124   7.388  2.1260  1.0796  2.9402
   74CHL1   C14 7898   1.919   3.970   7.540 -0.2734  0.4044  0.2170
   74CHL1   H14 7899   1.894   3.862   7.539  0.5850  0.1765 -2.2308
   74CHL1   C15 7900   1.838   4.033   7.653 -1.0511  0.0276 -0.4222
   74CHL1  H15A 7901   1.824   4.136   7.614 -3.3701  0.3425  1.0852
   74CHL1  H15B 7902   1.736   3.989   7.662 -1.1482  0.1464 -0.8876
   74CHL1   C16 7903   1.923   4.002   7.777 -0.1118  0.7274  0.6771
   74CHL1  H16A 7904   1.940   4.091   7.840  1.8394  1.7236 -1.1155
   74CHL1  H16B 7905   1.872   3.930   7.845  1.1410 -0.9461 -0.0601
   74CHL1   C17 7906   2.061   3.944   7.721  0.0865 -0.2013  0.3115
   74CHL1   H17 7907   2.034   3.837   7.706  1.4892 -0.4579 -0.6578
   74CHL1   C13 7908   2.069   3.991   7.578  0.0115  0.4178  0.2918
   74CHL1   C18 7909   2.107   4.142   7.583 -0.1519 -0.1525 -0.9712
   74CHL1  H18A 7910   2.218   4.151   7.590 -0.2747  0.1984  1.1288
   74CHL1  H18B 7911   2.072   4.185   7.486 -0.3617 -0.8918 -1.2340
   74CHL1  H18C 7912   2.053   4.177   7.673 -1.5894 -0.0948 -1.8120
   74CHL1   C12 7913   2.141   3.902   7.467  0.9090 -0.5289 -0.3199
   74CHL1  H12A 7914   2.252   3.898   7.481  0.7043  0.1654  1.7600
   74CHL1  H12B 7915   2.109   3.796   7.468  1.6923 -0.9883 -4.5119
   74CHL1   C11 7916   2.106   3.941   7.324  0.0211 -0.6696  0.1558
   74CHL1  H11A 7917   2.144   4.045   7.336 -2.3261 -0.0886  3.9281
   74CHL1  H11B 7918   2.171   3.880   7.256  0.2022  0.0631 -0.3410
   74CHL1    C9 7919   1.952   3.933   7.289 -0.2237  0.1483  0.0383
   74CHL1    H9 7920   1.922   3.827   7.302  1.5957 -0.3575  0.4414
   74CHL1   C10 7921   1.915   3.970   7.145 -0.0069 -0.2192 -0.1468
   74CHL1   C19 7922   1.992   4.103   7.099  0.0264 -0.1035  0.5540
   74CHL1  H19A 7923   2.102   4.093   7.108  0.0282  1.4360  2.9640
   74CHL1  H19B 7924   1.971   4.135   6.995 -2.0114 -1.5684  0.4399
   74CHL1  H19C 7925   1.965   4.180   7.173 -1.4283 -0.5843  0.5551
   74CHL1    C1 7926   1.969   3.859   7.051  0.0464  0.0177  0.3731
   74CHL1   H1A 7927   2.080   3.856   7.046  0.1585  2.9072 -0.4109
   74CHL1   H1B 7928   1.924   3.765   7.089 -0.2846 -0.2439 -0.6396
   74CHL1    C2 7929   1.927   3.876   6.899 -0.0036 -0.3900 -0.1972
   74CHL1   H2A 7930   1.964   3.788   6.843 -0.0143  0.3340 -1.3812
   74CHL1   H2B 7931   1.974   3.963   6.848 -1.9431  0.8304 -0.0065
   74CHL1   C20 7932   2.183   3.966   7.811 -0.3052  0.0555  0.7651
   74CHL1   H20 7933   2.207   4.074   7.812 -0.1302  0.0251  0.0327
   74CHL1   C21 7934   2.307   3.892   7.746  0.9268  0.0874  0.0398
   74CHL1  H21A 7935   2.394   3.894   7.815  1.0785 -1.0251 -0.0907
   74CHL1  H21B 7936   2.340   3.927   7.647 -0.2787 -1.8520 -1.1224
   74CHL1  H21C 7937   2.289   3.782   7.749 -0.0019  0.2381  0.7402
   74CHL1   C22 7938   2.157   3.926   7.960  0.0302  0.5414 -0.6992
   74CHL1  H22A 7939   2.055   3.956   7.992 -1.1000 -2.3122 -1.3072
   74CHL1  H22B 7940   2.159   3.815   7.962  0.0978  0.5414 -0.7505
   74CHL1   C23 7941   2.258   3.984   8.056  0.6350 -0.0508 -0.4820
   74CHL1  H23A 7942   2.364   3.961   8.033  1.8861  4.0770  0.2981
   74CHL1  H23B 7943   2.252   4.095   8.055  1.7245  0.1799  3.1895
   74CHL1   C24 7944   2.219   3.955   8.198  0.1176 -0.6043 -0.0860
   74CHL1  H24A 7945   2.110   3.967   8.216 -0.1318 -0.5166 -1.5029
   74CHL1  H24B 7946   2.226   3.846   8.219 -0.0191 -0.6991 -0.5113
   74CHL1   C25 7947   2.309   4.029   8.301  0.2360 -0.0103 -0.5532
   74CHL1   H25 7948   2.304   4.137   8.275 -0.9889  0.1077  0.1435
   74CHL1   C26 7949   2.260   4.012   8.447  0.1240 -0.6651 -0.3074
   74CHL1  H26A 7950   2.287   3.908   8.472  1.4901 -0.4964 -0.9476
   74CHL1  H26B 7951   2.311   4.070   8.527 -1.3823  1.0329 -0.5072
   74CHL1  H26C 7952   2.154   4.045   8.451  0.6987  1.4344 -0.6336
   74CHL1   C27 7953   2.455   3.992   8.290 -0.1480  0.5979  0.5485
   74CHL1  H27A 7954   2.529   4.037   8.360  0.8581 -1.2554  0.7501
   74CHL1  H27B 7955   2.452   3.882   8.306  1.4956  0.3811 -0.3954
   74CHL1  H27C 7956   2.487   4.009   8.185  0.6159  0.2939  0.7256
   75CHL1    C3 7957   6.790   0.706   6.735 -0.5412 -0.7444 -0.7001
   75CHL1    H3 7958   6.765   0.796   6.796  1.5275 -0.6012  0.0173
   75CHL1    O3 7959   6.781   0.734   6.595 -0.1113 -0.3623  0.5670
   75CHL1   H3' 7960   6.869   0.762   6.569  0.0754 -1.2019  0.2527
   75CHL1    C4 7961   6.937   0.668   6.764  0.0279 -0.1449 -0.3237
   75CHL1   H4A 7962   6.966   0.576   6.709 -0.6149  0.4091 -1.6434
   75CHL1   H4B 7963   7.008   0.744   6.725  1.5986 -2.2208 -1.7569
   75CHL1    C5 7964   6.946   0.649   6.920  0.3454 -0.0685  0.1703
   75CHL1    C6 7965   7.030   0.723   6.986  0.4883 -0.1083  0.1544
   75CHL1    H6 7966   7.097   0.789   6.929 -0.1965 -1.8086 -2.7902
   75CHL1    C7 7967   7.048   0.715   7.136  0.3820  0.5850 -0.3255
   75CHL1   H7A 7968   7.157   0.723   7.157  0.4635  0.7303 -0.8010
   75CHL1   H7B 7969   7.006   0.804   7.187  0.1796  0.3394 -0.0566
   75CHL1    C8 7970   6.985   0.587   7.203  0.5862  0.1323 -0.1244
   75CHL1    H8 7971   7.056   0.501   7.200 -2.1574 -2.2824  0.0639
   75CHL1   C14 7972   6.960   0.611   7.346 -0.9046 -0.5122 -0.3056
   75CHL1   H14 7973   6.897   0.702   7.353 -1.9522 -1.2916  0.9903
   75CHL1   C15 7974   7.081   0.654   7.426 -0.4601 -0.0469 -0.2556
   75CHL1  H15A 7975   7.174   0.599   7.402 -0.7050  0.4117 -2.4341
   75CHL1  H15B 7976   7.092   0.763   7.409 -0.9624 -0.3741 -3.1943
   75CHL1   C16 7977   7.030   0.625   7.571  0.3778 -0.5908 -0.2946
   75CHL1  H16A 7978   7.117   0.591   7.632 -0.1295 -1.2923  0.0606
   75CHL1  H16B 7979   6.995   0.717   7.622  1.3853  1.8481 -3.7175
   75CHL1   C17 7980   6.910   0.530   7.570 -0.7825 -0.6065 -0.2211
   75CHL1   H17 7981   6.820   0.595   7.575 -0.1547  0.7875 -3.6855
   75CHL1   C13 7982   6.904   0.487   7.422  0.1498 -0.6307  0.1289
   75CHL1   C18 7983   6.993   0.355   7.411 -0.3749 -0.1309 -0.1744
   75CHL1  H18A 7984   7.024   0.333   7.307 -1.1511 -0.4309 -0.3541
   75CHL1  H18B 7985   7.083   0.361   7.476 -0.5933 -1.5267  0.3102
   75CHL1  H18C 7986   6.939   0.267   7.454  3.4490 -1.1778  3.0837
   75CHL1   C12 7987   6.761   0.463   7.361 -0.5573 -0.3088 -0.0190
   75CHL1  H12A 7988   6.705   0.377   7.403  0.3864 -1.7355 -1.5822
   75CHL1  H12B 7989   6.696   0.552   7.378  0.3611  0.4828 -0.5505
   75CHL1   C11 7990   6.775   0.439   7.208 -0.0256 -0.0653 -0.1581
   75CHL1  H11A 7991   6.831   0.344   7.218  1.1516  0.7221  1.1373
   75CHL1  H11B 7992   6.681   0.425   7.149 -1.9325  0.8771  2.4791
   75CHL1    C9 7993   6.845   0.556   7.131 -0.4280  0.1305 -0.6389
   75CHL1    H9 7994   6.780   0.643   7.155  1.2864  0.9071  1.5759
   75CHL1   C10 7995   6.847   0.546   6.979 -0.1568  0.0509 -0.6353
   75CHL1   C19 7996   6.909   0.413   6.941  0.1148  0.6652 -0.2663
   75CHL1  H19A 7997   7.015   0.404   6.972 -0.7634 -1.9551  2.4580
   75CHL1  H19B 7998   6.862   0.327   6.994  1.4359 -0.1914 -0.4311
   75CHL1  H19C 7999   6.900   0.405   6.831 -2.7173 -0.8081 -0.0381
   75CHL1    C1 8000   6.702   0.563   6.924  0.1948  0.5022 -0.2812
   75CHL1   H1A 8001   6.632   0.480   6.951 -0.8783  1.5932  0.3879
   75CHL1   H1B 8002   6.663   0.652   6.978  0.0990  0.0633  0.4020
   75CHL1    C2 8003   6.690   0.594   6.774  0.1674  0.8719 -0.0599
   75CHL1   H2A 8004   6.590   0.634   6.747 -0.0958  0.4794  0.3133
   75CHL1   H2B 8005   6.715   0.501   6.720 -1.4524  0.2455  0.2022
   75CHL1   C20 8006   6.907   0.437   7.686  0.0804  0.5566  0.6137
   75CHL1   H20 8007   6.995   0.368   7.685  1.8216  2.6103  1.9744
   75CHL1   C21 8008   6.779   0.353   7.679  0.0458  0.2754 -0.1585
   75CHL1  H21A 8009   6.756   0.306   7.581 -1.1217 -1.5162  0.9146
   75CHL1  H21B 8010   6.690   0.413   7.707  0.6696  1.1040  0.0837
   75CHL1  H21C 8011   6.784   0.262   7.742  1.2733  1.1764  1.1091
   75CHL1   C22 8012   6.904   0.519   7.817 -0.0070  0.0390  0.4555
   75CHL1  H22A 8013   6.999   0.573   7.836  0.5823 -0.9615  0.3905
   75CHL1  H22B 8014   6.824   0.596   7.810  1.3413  1.3684 -1.0271
   75CHL1   C23 8015   6.873   0.429   7.937 -0.3143 -0.7313 -0.1712
   75CHL1  H23A 8016   6.778   0.372   7.930 -0.3747 -0.7523  0.7152
   75CHL1  H23B 8017   6.946   0.345   7.932  0.2212 -0.2532 -0.5031
   75CHL1   C24 8018   6.905   0.499   8.068 -0.4806 -0.5940 -0.5807
   75CHL1  H24A 8019   6.866   0.602   8.058 -3.2975 -1.5106 -0.1911
   75CHL1  H24B 8020   6.851   0.453   8.154  0.6412 -1.0756 -0.1191
   75CHL1   C25 8021   7.056   0.495   8.104 -0.1631 -0.5747  0.0631
   75CHL1   H25 8022   7.124   0.532   8.025 -0.0619  1.5489  1.0771
   75CHL1   C26 8023   7.085   0.589   8.216  0.5533  0.2028  0.6138
   75CHL1  H26A 8024   7.196   0.592   8.221  0.7427 -1.6849 -1.3064
   75CHL1  H26B 8025   7.046   0.691   8.198  1.5849  0.8405  1.8119
   75CHL1  H26C 8026   7.040   0.552   8.311  1.6120 -0.3128  0.9292
   75CHL1   C27 8027   7.101   0.351   8.143 -0.0855 -0.5546 -0.2321
   75CHL1  H27A 8028   7.199   0.353   8.194 -0.4495  4.1994  0.7372
   75CHL1  H27B 8029   7.030   0.312   8.218  1.6628 -0.1691  1.7079
   75CHL1  H27C 8030   7.098   0.274   8.063 -0.0740 -0.6278 -0.1618
   76CHL1    C3 8031   5.274   2.755   7.295 -0.3648  0.3271 -0.3471
   76CHL1    H3 8032   5.268   2.859   7.333 -0.3161 -0.4419  1.9178
   76CHL1    O3 8033   5.327   2.768   7.164 -0.8120 -0.2115  0.3055
   76CHL1   H3' 8034   5.283   2.839   7.117  1.1624  1.0035  0.1356
   76CHL1    C4 8035   5.377   2.681   7.383  0.5582  0.4363 -0.3812
   76CHL1   H4A 8036   5.411   2.598   7.318  0.6750 -1.3130  1.7786
   76CHL1   H4B 8037   5.468   2.743   7.398  1.1898 -0.5139 -0.1822
   76CHL1    C5 8038   5.327   2.626   7.514  0.3561  0.0506 -0.7105
   76CHL1    C6 8039   5.389   2.645   7.630 -0.6767 -0.2907 -0.0162
   76CHL1    H6 8040   5.488   2.693   7.631 -0.9706  0.3499 -0.8278
   76CHL1    C7 8041   5.345   2.577   7.756  0.1369 -0.0829 -0.7260
   76CHL1   H7A 8042   5.430   2.531   7.811 -1.4119 -1.1599  0.8521
   76CHL1   H7B 8043   5.307   2.658   7.821 -0.4255  0.0280 -1.1853
   76CHL1    C8 8044   5.244   2.464   7.731 -0.3300  0.1298  0.0471
   76CHL1    H8 8045   5.292   2.375   7.683  1.8164  1.3489 -0.1990
   76CHL1   C14 8046   5.194   2.409   7.866 -0.4488  0.5828  0.4296
   76CHL1   H14 8047   5.163   2.503   7.917 -1.2032  1.1331 -0.9870
   76CHL1   C15 8048   5.298   2.348   7.970  0.0409  0.0873  1.0062
   76CHL1  H15A 8049   5.348   2.259   7.926  0.5944  0.0634  1.6723
   76CHL1  H15B 8050   5.366   2.427   8.006  0.9658  1.9118 -4.0148
   76CHL1   C16 8051   5.206   2.286   8.078 -0.3972  0.0407  0.6103
   76CHL1  H16A 8052   5.233   2.179   8.088  0.0356 -0.1547 -1.9097
   76CHL1  H16B 8053   5.228   2.336   8.175 -0.0927  1.7182 -0.2731
   76CHL1   C17 8054   5.061   2.297   8.019 -0.0737  0.0122  0.7374
   76CHL1   H17 8055   5.010   2.389   8.056  0.6426  0.5533  0.3914
   76CHL1   C13 8056   5.073   2.316   7.868 -0.8111  0.9204  0.5905
   76CHL1   C18 8057   5.109   2.173   7.808 -0.3850  0.1293  0.7352
   76CHL1  H18A 8058   5.015   2.114   7.808 -0.5019  0.3038 -0.1758
   76CHL1  H18B 8059   5.148   2.170   7.704 -2.0891 -0.6758  0.0813
   76CHL1  H18C 8060   5.175   2.110   7.872  2.6691  0.7263 -1.6046
   76CHL1   C12 8061   4.958   2.374   7.779  0.6208 -0.1745  0.5751
   76CHL1  H12A 8062   4.874   2.302   7.775  1.3009 -0.9257 -1.2895
   76CHL1  H12B 8063   4.921   2.467   7.827  2.1897  0.1503  1.2178
   76CHL1   C11 8064   5.001   2.423   7.643  0.2424 -0.0707  0.0888
   76CHL1  H11A 8065   5.021   2.330   7.586 -0.8962 -0.1141 -0.2639
   76CHL1  H11B 8066   4.920   2.481   7.594 -3.7311 -1.6206  4.0614
   76CHL1    C9 8067   5.129   2.513   7.645 -1.0095 -0.0706  0.8120
   76CHL1    H9 8068   5.083   2.607   7.684 -1.7915  0.2082 -0.6859
   76CHL1   C10 8069   5.193   2.551   7.505 -0.1155 -0.1111  0.8514
   76CHL1   C19 8070   5.216   2.421   7.420  0.1056  0.1283 -0.0107
   76CHL1  H19A 8071   5.119   2.374   7.395 -0.2472  0.6962  0.2818
   76CHL1  H19B 8072   5.260   2.452   7.322 -0.7420  1.3955 -0.0141
   76CHL1  H19C 8073   5.287   2.357   7.477  2.4004 -0.2473 -3.0005
   76CHL1    C1 8074   5.089   2.640   7.433 -0.2471  0.1675 -0.2139
   76CHL1   H1A 8075   4.990   2.592   7.417 -0.5028 -0.9227  3.7290
   76CHL1   H1B 8076   5.067   2.731   7.493  1.4072  0.2391  0.3224
   76CHL1    C2 8077   5.132   2.685   7.297  0.3299 -0.0565  0.5062
   76CHL1   H2A 8078   5.070   2.763   7.248  2.6259  0.6958 -1.4244
   76CHL1   H2B 8079   5.138   2.601   7.225  1.5886  1.3244 -1.1040
   76CHL1   C20 8080   4.963   2.185   8.066  0.2515 -0.6522 -0.0219
   76CHL1   H20 8081   4.975   2.094   8.004 -0.6396 -1.8045  1.4364
   76CHL1   C21 8082   4.812   2.226   8.055 -0.2809 -0.2757  0.5042
   76CHL1  H21A 8083   4.787   2.328   8.091 -1.5678  0.2250 -1.6566
   76CHL1  H21B 8084   4.744   2.154   8.106 -0.1454 -0.7779 -0.0064
   76CHL1  H21C 8085   4.780   2.229   7.949  0.3765  0.5975  0.3209
   76CHL1   C22 8086   4.983   2.140   8.216  0.2766  0.3675  0.7152
   76CHL1  H22A 8087   4.905   2.063   8.234  1.0127 -0.7192 -0.4970
   76CHL1  H22B 8088   5.075   2.078   8.213  0.6982  0.8438  2.5498
   76CHL1   C23 8089   4.981   2.255   8.325  0.5692  0.1311 -0.0342
   76CHL1  H23A 8090   5.028   2.345   8.281  2.4035 -0.3770  0.7691
   76CHL1  H23B 8091   4.882   2.280   8.366 -0.1062 -0.4764 -1.2168
   76CHL1   C24 8092   5.070   2.203   8.443  0.2654  0.0963  0.3041
   76CHL1  H24A 8093   5.050   2.100   8.480  1.9260  0.0532  1.1380
   76CHL1  H24B 8094   5.176   2.202   8.410 -0.2923  0.1599 -1.6243
   76CHL1   C25 8095   5.065   2.294   8.571 -0.2727 -0.1698  0.7402
   76CHL1   H25 8096   4.958   2.313   8.595 -1.1473 -0.2115 -2.6375
   76CHL1   C26 8097   5.113   2.224   8.703  1.1060  0.0484 -0.0534
   76CHL1  H26A 8098   5.061   2.287   8.778  1.2027 -1.9573  1.7937
   76CHL1  H26B 8099   5.068   2.122   8.711  1.0687  0.0993  0.3887
   76CHL1  H26C 8100   5.223   2.217   8.717  0.8922 -2.2799  0.9077
   76CHL1   C27 8101   5.147   2.417   8.549  0.9754  0.2258  0.3623
   76CHL1  H27A 8102   5.150   2.493   8.630 -1.2997  0.9194 -0.1225
   76CHL1  H27B 8103   5.252   2.396   8.519  0.1389  0.3140 -3.1295
   76CHL1  H27C 8104   5.113   2.477   8.462 -0.8397 -2.2474 -0.7717
   77CHL1    C3 8105   6.248   1.609   6.707 -0.6110  0.3880 -0.5653
   77CHL1    H3 8106   6.164   1.661   6.757 -0.8909 -0.8918  0.3370
   77CHL1    O3 8107   6.247   1.620   6.568  0.7422 -0.5355  0.4376
   77CHL1   H3' 8108   6.338   1.636   6.542  1.1114 -1.3714  1.1652
   77CHL1    C4 8109   6.375   1.666   6.769 -0.3402 -0.3636  0.0545
   77CHL1   H4A 8110   6.460   1.631   6.707  0.9719  1.7315  0.5907
   77CHL1   H4B 8111   6.379   1.772   6.737 -1.7209  0.5416  2.6006
   77CHL1    C5 8112   6.376   1.637   6.914  0.3583 -0.5352 -0.0559
   77CHL1    C6 8113   6.384   1.736   7.002  0.1158  0.3677  0.0830
   77CHL1    H6 8114   6.392   1.842   6.974  1.3977  0.7674  1.7569
   77CHL1    C7 8115   6.381   1.722   7.154  0.1607  0.2866 -0.3684
   77CHL1   H7A 8116   6.442   1.794   7.213 -2.6136  0.0757  3.0932
   77CHL1   H7B 8117   6.276   1.726   7.191  0.8861 -0.3257  1.8676
   77CHL1    C8 8118   6.430   1.578   7.194  0.3748 -0.3465  0.4392
   77CHL1    H8 8119   6.536   1.574   7.161  0.3807 -1.3409  0.5583
   77CHL1   C14 8120   6.414   1.556   7.346 -0.1202  0.9204  0.4237
   77CHL1   H14 8121   6.305   1.565   7.366  0.0115 -0.5092  2.0964
   77CHL1   C15 8122   6.466   1.659   7.450 -0.9558 -0.0672  0.2658
   77CHL1  H15A 8123   6.567   1.683   7.410 -0.3005 -0.5515  1.5719
   77CHL1  H15B 8124   6.393   1.741   7.462 -1.7694 -0.8103  0.5143
   77CHL1   C16 8125   6.488   1.569   7.573 -0.2591  0.3376  0.1570
   77CHL1  H16A 8126   6.590   1.571   7.617 -0.4572 -2.5951  0.9526
   77CHL1  H16B 8127   6.427   1.611   7.656 -2.4515  0.1676 -1.2632
   77CHL1   C17 8128   6.434   1.424   7.541 -0.6293 -0.5047 -0.3433
   77CHL1   H17 8129   6.327   1.429   7.570  0.0046  3.7892  2.0787
   77CHL1   C13 8130   6.451   1.412   7.391  0.3304  0.0600 -0.0056
   77CHL1   C18 8131   6.598   1.375   7.359 -0.3177  0.9430 -1.2587
   77CHL1  H18A 8132   6.663   1.450   7.409 -0.8260  0.3446  0.3771
   77CHL1  H18B 8133   6.615   1.268   7.382 -0.0698  1.1620 -0.3479
   77CHL1  H18C 8134   6.622   1.386   7.252  1.3243 -0.6460 -1.0977
   77CHL1   C12 8135   6.353   1.320   7.317 -0.1959  0.3979 -0.4674
   77CHL1  H12A 8136   6.361   1.214   7.350  2.1192  0.1492 -1.5906
   77CHL1  H12B 8137   6.257   1.367   7.347 -0.6461 -1.7891  1.8713
   77CHL1   C11 8138   6.373   1.325   7.167 -0.0084  0.1685  0.5021
   77CHL1  H11A 8139   6.477   1.292   7.145 -0.1077  1.7209 -2.9363
   77CHL1  H11B 8140   6.305   1.254   7.116 -0.3003 -0.2653  1.4779
   77CHL1    C9 8141   6.357   1.466   7.111 -0.0966 -0.9364  0.0136
   77CHL1    H9 8142   6.251   1.488   7.134  0.2627 -0.1832  1.0119
   77CHL1   C10 8143   6.373   1.487   6.956  0.1999 -0.2406 -0.3523
   77CHL1   C19 8144   6.496   1.408   6.914  0.0885  0.3014 -0.7008
   77CHL1  H19A 8145   6.486   1.303   6.949 -0.3912  0.3696 -0.6326
   77CHL1  H19B 8146   6.510   1.412   6.804  1.0345 -0.6516 -0.6371
   77CHL1  H19C 8147   6.583   1.449   6.970  0.1177 -4.0044  2.9851
   77CHL1    C1 8148   6.246   1.428   6.883  0.0543  0.4809 -0.0816
   77CHL1   H1A 8149   6.266   1.319   6.873 -0.3807  0.5035 -1.2688
   77CHL1   H1B 8150   6.153   1.437   6.943 -2.0748 -2.4112 -2.6023
   77CHL1    C2 8151   6.224   1.460   6.735  0.4775  0.5479 -0.0670
   77CHL1   H2A 8152   6.116   1.443   6.716  0.5696  1.0821 -1.1178
   77CHL1   H2B 8153   6.292   1.396   6.675 -0.0184  0.1704 -0.2326
   77CHL1   C20 8154   6.493   1.312   7.633  0.5497  0.6409  0.5330
   77CHL1   H20 8155   6.595   1.286   7.596 -0.3360 -1.7210 -0.4175
   77CHL1   C21 8156   6.385   1.195   7.647 -0.1046 -0.7564 -0.0592
   77CHL1  H21A 8157   6.291   1.235   7.691  1.8478 -1.1167  5.1623
   77CHL1  H21B 8158   6.414   1.118   7.721  2.0116  0.6793  0.7206
   77CHL1  H21C 8159   6.350   1.148   7.553 -2.3439  1.3876 -0.4154
   77CHL1   C22 8160   6.525   1.352   7.777 -0.3480  0.5562  0.3184
   77CHL1  H22A 8161   6.587   1.445   7.778  1.5791 -0.6417  1.9256
   77CHL1  H22B 8162   6.436   1.381   7.836 -0.0648 -0.2857  1.2003
   77CHL1   C23 8163   6.606   1.254   7.858 -0.8933  0.0888 -0.0320
   77CHL1  H23A 8164   6.557   1.155   7.870 -1.6033  0.5578  1.1036
   77CHL1  H23B 8165   6.709   1.235   7.822 -0.4368 -0.8894  1.6399
   77CHL1   C24 8166   6.609   1.284   8.010  0.7388 -1.0174 -0.2757
   77CHL1  H24A 8167   6.506   1.266   8.049  0.8564 -0.2190  0.4283
   77CHL1  H24B 8168   6.677   1.208   8.054 -0.9397 -3.0530 -1.0323
   77CHL1   C25 8169   6.646   1.430   8.047 -0.1426  0.2256  0.3157
   77CHL1   H25 8170   6.582   1.500   7.990  0.2499 -0.9092 -1.6587
   77CHL1   C26 8171   6.615   1.473   8.196 -0.0312  0.6468 -0.2955
   77CHL1  H26A 8172   6.680   1.410   8.260  0.6893  1.7278  0.0637
   77CHL1  H26B 8173   6.641   1.580   8.211  1.0328  0.4301 -0.5321
   77CHL1  H26C 8174   6.511   1.436   8.210  0.7474 -1.2063  0.9148
   77CHL1   C27 8175   6.800   1.462   8.025  0.3144  0.1302  0.2433
   77CHL1  H27A 8176   6.830   1.567   8.047 -2.6190  1.3325 -0.8578
   77CHL1  H27B 8177   6.857   1.386   8.081  0.4104  1.2670  1.7402
   77CHL1  H27C 8178   6.821   1.443   7.917 -2.3344 -0.1656 -0.2953
   78CHL1    C3 8179   1.837   2.487   6.550 -0.2068 -0.0774 -0.7172
   78CHL1    H3 8180   1.933   2.507   6.602  1.0147 -2.6657 -1.7700
   78CHL1    O3 8181   1.874   2.465   6.418  0.5021 -0.2101 -0.1629
   78CHL1   H3' 8182   1.937   2.393   6.415  0.2231 -0.4482 -0.4432
   78CHL1    C4 8183   1.788   2.356   6.597  0.5802 -0.2575 -0.1329
   78CHL1   H4A 8184   1.694   2.330   6.544  0.4576 -1.7699  0.7699
   78CHL1   H4B 8185   1.866   2.281   6.570  0.6443 -0.5000  0.7080
   78CHL1    C5 8186   1.771   2.350   6.750  0.1334 -0.5167  0.7854
   78CHL1    C6 8187   1.837   2.269   6.832 -1.0323 -0.2961 -0.1437
   78CHL1    H6 8188   1.905   2.198   6.783  0.9982  2.0044 -0.8498
   78CHL1    C7 8189   1.812   2.264   6.980 -0.0420 -0.4440  0.0911
   78CHL1   H7A 8190   1.794   2.159   7.012  0.6220 -0.4457  0.4946
   78CHL1   H7B 8191   1.900   2.295   7.040 -1.2023  1.0374  1.1105
   78CHL1    C8 8192   1.692   2.348   7.031  0.1594  0.0500  0.3271
   78CHL1    H8 8193   1.602   2.286   7.012  0.3932 -0.7627  1.7193
   78CHL1   C14 8194   1.710   2.382   7.174 -0.1079 -0.3655  1.2194
   78CHL1   H14 8195   1.807   2.435   7.181  0.2495 -1.0890  1.8588
   78CHL1   C15 8196   1.726   2.260   7.273 -0.0336  0.5660 -0.0447
   78CHL1  H15A 8197   1.649   2.186   7.239 -0.9297  2.3498 -2.1294
   78CHL1  H15B 8198   1.829   2.219   7.272 -0.5506 -0.8069  0.2941
   78CHL1   C16 8199   1.703   2.329   7.406  0.0511 -0.2458 -0.5613
   78CHL1  H16A 8200   1.641   2.251   7.456 -1.9470 -0.2435 -2.8278
   78CHL1  H16B 8201   1.802   2.331   7.455 -1.5393  0.5549  2.9933
   78CHL1   C17 8202   1.648   2.465   7.388  0.4632 -0.3281  0.0875
   78CHL1   H17 8203   1.731   2.539   7.386 -0.9066  1.3317 -3.1051
   78CHL1   C13 8204   1.594   2.468   7.238  0.0014 -0.0700  1.1973
   78CHL1   C18 8205   1.460   2.398   7.223  0.4733  0.1414  0.2144
   78CHL1  H18A 8206   1.441   2.363   7.119  1.2528  0.0007  0.1166
   78CHL1  H18B 8207   1.451   2.309   7.289  0.1002 -0.8029 -1.0492
   78CHL1  H18C 8208   1.383   2.475   7.245 -1.4439 -1.2871 -1.1446
   78CHL1   C12 8209   1.606   2.601   7.157 -0.3712 -0.4325 -0.1964
   78CHL1  H12A 8210   1.524   2.668   7.193  0.4599 -0.1013  1.1856
   78CHL1  H12B 8211   1.693   2.663   7.189 -1.5738  0.7438  0.9653
   78CHL1   C11 8212   1.586   2.591   7.008  0.5888  0.0337 -0.1198
   78CHL1  H11A 8213   1.479   2.559   7.004  0.9355 -1.3278  0.9424
   78CHL1  H11B 8214   1.587   2.696   6.974  1.2655  0.2486  0.5481
   78CHL1    C9 8215   1.682   2.486   6.948  0.0387  0.6488  0.3410
   78CHL1    H9 8216   1.781   2.536   6.959 -1.0763  2.4797  3.0777
   78CHL1   C10 8217   1.665   2.464   6.791 -0.5714  0.5301 -0.3280
   78CHL1   C19 8218   1.525   2.401   6.778 -0.2076  0.6992  0.3462
   78CHL1  H19A 8219   1.445   2.472   6.809 -2.0521 -1.4127  0.7044
   78CHL1  H19B 8220   1.513   2.364   6.674  0.0487  0.3085  0.4511
   78CHL1  H19C 8221   1.511   2.320   6.854 -1.0680  1.7373  1.3388
   78CHL1    C1 8222   1.694   2.605   6.724  0.2630 -0.1886  0.1579
   78CHL1   H1A 8223   1.605   2.672   6.729  0.4288 -0.0297  1.3846
   78CHL1   H1B 8224   1.772   2.652   6.788 -0.1724  3.3497 -1.6584
   78CHL1    C2 8225   1.737   2.602   6.580 -0.0227  0.2093  0.1010
   78CHL1   H2A 8226   1.804   2.690   6.566  1.0507 -0.9167 -2.4791
   78CHL1   H2B 8227   1.652   2.612   6.509  1.1655  0.2317 -1.3804
   78CHL1   C20 8228   1.553   2.526   7.495  0.6404  0.0146 -0.6052
   78CHL1   H20 8229   1.452   2.479   7.483  1.7516 -2.0411 -2.9604
   78CHL1   C21 8230   1.543   2.682   7.486 -0.2366 -0.5469  0.5995
   78CHL1  H21A 8231   1.644   2.725   7.501 -0.3296  0.9585 -2.4133
   78CHL1  H21B 8232   1.478   2.719   7.568  0.7572  1.6301  0.4624
   78CHL1  H21C 8233   1.502   2.719   7.390  0.3686  1.1991  0.9769
   78CHL1   C22 8234   1.591   2.490   7.642 -1.0071  0.1731 -0.4819
   78CHL1  H22A 8235   1.503   2.506   7.707 -0.2302 -3.5299  1.7447
   78CHL1  H22B 8236   1.607   2.381   7.653  0.4864  0.5877  3.1626
   78CHL1   C23 8237   1.718   2.559   7.702  0.0255  0.8126  0.4339
   78CHL1  H23A 8238   1.807   2.539   7.639  0.7951 -0.7211  1.8913
   78CHL1  H23B 8239   1.713   2.669   7.711  1.6328  0.7515  3.9381
   78CHL1   C24 8240   1.755   2.526   7.847 -0.1539  0.0752 -0.0126
   78CHL1  H24A 8241   1.750   2.418   7.870  4.5073 -0.0528  1.3057
   78CHL1  H24B 8242   1.859   2.561   7.863 -0.3479  0.5510  0.2541
   78CHL1   C25 8243   1.683   2.631   7.946  0.6152  0.0538  0.1759
   78CHL1   H25 8244   1.588   2.650   7.892  1.0607 -0.7566 -0.9360
   78CHL1   C26 8245   1.657   2.572   8.091 -0.0647  0.5610  0.1702
   78CHL1  H26A 8246   1.674   2.645   8.173 -2.0627 -0.9421  2.0527
   78CHL1  H26B 8247   1.546   2.559   8.087 -0.0728  0.8892 -1.0628
   78CHL1  H26C 8248   1.710   2.474   8.098 -1.3625 -0.2774 -1.0952
   78CHL1   C27 8249   1.760   2.765   7.946 -0.4056  0.4247 -0.4774
   78CHL1  H27A 8250   1.792   2.799   7.845  1.9265  1.2365  0.4731
   78CHL1  H27B 8251   1.703   2.840   8.005  0.6191  0.8062  0.0510
   78CHL1  H27C 8252   1.851   2.749   8.007 -0.5907  0.0240 -0.3047
   79CHL1    C3 8253   0.123   2.621   7.037 -0.1243  0.6819 -0.3413
   79CHL1    H3 8254   0.017   2.589   7.042  0.0403  0.3047  1.2333
   79CHL1    O3 8255   0.152   2.663   6.903 -0.1579  0.2999 -0.9676
   79CHL1   H3' 8256   0.064   2.673   6.867 -0.6472 -2.7115 -0.8446
   79CHL1    C4 8257   0.145   2.737   7.132  0.1882 -0.5242  0.1673
   79CHL1   H4A 8258   0.235   2.799   7.116  0.7785 -1.3653  0.1957
   79CHL1   H4B 8259   0.066   2.813   7.111  0.6799  0.1325  0.6741
   79CHL1    C5 8260   0.127   2.685   7.271  0.8368 -0.2450 -0.2616
   79CHL1    C6 8261   0.036   2.751   7.349 -0.2264 -0.4799  0.0564
   79CHL1    H6 8262  -0.009   2.845   7.313 -0.7032 -0.9485 -0.5781
   79CHL1    C7 8263   0.015   2.719   7.489 -0.6756 -0.1174 -0.2432
   79CHL1   H7A 8264   0.016   2.811   7.552 -1.6903 -0.5801  0.4796
   79CHL1   H7B 8265  -0.084   2.668   7.498 -2.0043  1.4192 -4.2539
   79CHL1    C8 8266   0.132   2.632   7.548  0.5115 -1.0407 -0.4078
   79CHL1    H8 8267   0.212   2.708   7.561  0.7457 -1.1851 -0.9866
   79CHL1   C14 8268   0.091   2.572   7.685 -0.3930  0.4400  0.2820
   79CHL1   H14 8269   0.015   2.493   7.665  0.1503 -0.0469  0.1051
   79CHL1   C15 8270   0.029   2.665   7.789 -0.6492 -0.6752 -0.2137
   79CHL1  H15A 8271   0.083   2.762   7.802  0.5428 -1.4017  0.3943
   79CHL1  H15B 8272  -0.079   2.688   7.776 -0.4036  0.0356 -1.1615
   79CHL1   C16 8273   0.043   2.587   7.920  0.1650 -0.0929  0.4754
   79CHL1  H16A 8274   0.099   2.648   7.993  0.3430 -0.6920  0.8407
   79CHL1  H16B 8275  -0.055   2.557   7.962 -0.7771 -0.1130 -1.5820
   79CHL1   C17 8276   0.131   2.462   7.879 -1.0773  0.8054 -0.8908
   79CHL1   H17 8277   0.062   2.381   7.847  0.1794 -0.6754 -0.0348
   79CHL1   C13 8278   0.208   2.496   7.753  0.2191  0.2396  0.1925
   79CHL1   C18 8279   0.327   2.593   7.790  0.0016  0.3242  0.3784
   79CHL1  H18A 8280   0.406   2.535   7.843  0.3034  0.6249  0.2649
   79CHL1  H18B 8281   0.372   2.636   7.698 -0.9025 -1.2172 -0.8197
   79CHL1  H18C 8282   0.293   2.680   7.851  1.7894  0.4308  1.2768
   79CHL1   C12 8283   0.245   2.381   7.661  0.4261  0.1658  0.1506
   79CHL1  H12A 8284   0.331   2.323   7.700 -0.2933 -0.1626  1.3075
   79CHL1  H12B 8285   0.161   2.309   7.656 -0.4789  1.1251  0.9729
   79CHL1   C11 8286   0.279   2.418   7.517 -0.3221 -0.5325  0.7472
   79CHL1  H11A 8287   0.379   2.466   7.517 -0.4847 -0.1301 -0.5961
   79CHL1  H11B 8288   0.302   2.335   7.446  2.0744  0.2696  0.4689
   79CHL1    C9 8289   0.173   2.521   7.458 -0.2155 -0.1233  0.3023
   79CHL1    H9 8290   0.077   2.467   7.443 -0.3534  0.3696 -0.6959
   79CHL1   C10 8291   0.216   2.575   7.315  0.0757  0.2268  0.5251
   79CHL1   C19 8292   0.361   2.631   7.322 -0.2238  0.0881  0.5240
   79CHL1  H19A 8293   0.396   2.670   7.223  1.5872 -0.9631  0.6953
   79CHL1  H19B 8294   0.371   2.708   7.401 -1.8297  1.5491 -0.6400
   79CHL1  H19C 8295   0.433   2.548   7.342  1.3646  1.2297 -0.1922
   79CHL1    C1 8296   0.214   2.461   7.219  0.0537 -0.7986 -0.4789
   79CHL1   H1A 8297   0.303   2.396   7.215  1.1812  0.7608 -3.0207
   79CHL1   H1B 8298   0.119   2.405   7.230 -1.4420  1.2790 -2.0115
   79CHL1    C2 8299   0.220   2.510   7.074 -0.1514  0.1266 -0.7068
   79CHL1   H2A 8300   0.197   2.420   7.013  2.6702 -1.8326  0.8478
   79CHL1   H2B 8301   0.326   2.537   7.053  0.0846 -1.4285 -1.6847
   79CHL1   C20 8302   0.205   2.406   8.000 -0.6676  0.1195 -0.7660
   79CHL1   H20 8303   0.289   2.474   8.027 -0.2769  0.2521 -2.2164
   79CHL1   C21 8304   0.271   2.269   7.976  0.8368 -0.5665 -0.6260
   79CHL1  H21A 8305   0.315   2.231   8.070 -0.0713  0.2714  0.1639
   79CHL1  H21B 8306   0.350   2.282   7.899  1.2500 -0.1352 -0.1394
   79CHL1  H21C 8307   0.198   2.199   7.931 -1.8513  1.0071  0.9663
   79CHL1   C22 8308   0.128   2.404   8.133 -0.4704 -0.3264 -0.7301
   79CHL1  H22A 8309   0.200   2.367   8.209 -0.6093  0.2149 -0.3250
   79CHL1  H22B 8310   0.096   2.507   8.160 -2.2148 -0.5702 -1.6856
   79CHL1   C23 8311   0.011   2.308   8.125 -0.3000 -0.3154 -0.4053
   79CHL1  H23A 8312  -0.058   2.348   8.048  0.1008  1.1713 -0.0272
   79CHL1  H23B 8313   0.048   2.204   8.109  1.3118  0.1228  0.2694
   79CHL1   C24 8314  -0.069   2.313   8.257 -0.2815  0.2186 -0.0157
   79CHL1  H24A 8315  -0.146   2.232   8.257  0.5619 -0.7317 -3.3772
   79CHL1  H24B 8316   0.003   2.295   8.339  0.1367 -0.4817 -0.5193
   79CHL1   C25 8317  -0.140   2.444   8.286 -0.6062 -0.1830 -0.5353
   79CHL1   H25 8318  -0.064   2.523   8.303 -1.0784 -0.1971  2.0204
   79CHL1   C26 8319  -0.244   2.487   8.173 -0.5105 -0.9111 -0.1165
   79CHL1  H26A 8320  -0.286   2.583   8.210 -0.5086 -0.5130 -1.1007
   79CHL1  H26B 8321  -0.195   2.501   8.074  0.0230 -1.3257  0.0819
   79CHL1  H26C 8322  -0.330   2.418   8.179 -0.9609 -0.2501  1.7674
   79CHL1   C27 8323  -0.212   2.450   8.424  0.0744  0.1261  0.5621
   79CHL1  H27A 8324  -0.266   2.545   8.447  0.1590  0.3661 -0.2113
   79CHL1  H27B 8325  -0.281   2.363   8.431  0.1571 -0.1284 -1.2179
   79CHL1  H27C 8326  -0.143   2.433   8.509  1.9969  3.5584 -0.1216
   80CHL1    C3 8327   4.969   0.918   6.890  0.1519  0.0475 -0.2739
   80CHL1    H3 8328   5.071   0.875   6.883 -0.4171 -1.8096  1.7450
   80CHL1    O3 8329   4.928   0.961   6.762 -0.2227  0.0259 -0.2532
   80CHL1   H3' 8330   4.850   1.016   6.769 -1.9132 -2.3341  0.4071
   80CHL1    C4 8331   4.873   0.810   6.938  1.0095 -0.2091  1.1063
   80CHL1   H4A 8332   4.768   0.843   6.923  1.6118  1.8848  1.1346
   80CHL1   H4B 8333   4.887   0.716   6.879 -0.9997 -1.6326  2.7635
   80CHL1    C5 8334   4.899   0.781   7.082  0.3652  0.5308 -0.0363
   80CHL1    C6 8335   4.929   0.651   7.115 -0.5403  0.0914 -0.4474
   80CHL1    H6 8336   4.937   0.577   7.034  2.3562  2.4916 -2.5735
   80CHL1    C7 8337   4.945   0.608   7.260  0.0977  0.5690 -0.4878
   80CHL1   H7A 8338   4.877   0.522   7.277 -1.4641  1.6517 -1.0455
   80CHL1   H7B 8339   5.051   0.580   7.279  0.0329  0.0604 -0.8573
   80CHL1    C8 8340   4.900   0.712   7.368 -0.8083 -0.5925  0.1332
   80CHL1    H8 8341   4.789   0.715   7.378 -0.7778  0.0096  0.3025
   80CHL1   C14 8342   4.966   0.682   7.503 -0.1822  0.1803  1.3303
   80CHL1   H14 8343   5.077   0.683   7.488 -0.2241 -0.3576  0.9758
   80CHL1   C15 8344   4.937   0.542   7.563  0.9913 -0.1142  0.2687
   80CHL1  H15A 8345   4.827   0.525   7.566  0.2553  3.6001 -0.7559
   80CHL1  H15B 8346   4.993   0.463   7.508 -0.6438 -2.4247  1.7237
   80CHL1   C16 8347   4.983   0.564   7.703 -0.0469  0.2471 -0.3175
   80CHL1  H16A 8348   4.909   0.517   7.771  1.3757  0.1988  1.2663
   80CHL1  H16B 8349   5.081   0.511   7.705  0.0114  0.2992 -1.2385
   80CHL1   C17 8350   5.002   0.716   7.732  0.1840 -0.0282 -0.0611
   80CHL1   H17 8351   5.111   0.731   7.715  0.2643  0.4375  0.8006
   80CHL1   C13 8352   4.939   0.788   7.609 -0.3155  0.4007 -0.4989
   80CHL1   C18 8353   4.785   0.805   7.644  0.0082  0.1651  0.5347
   80CHL1  H18A 8354   4.736   0.706   7.657 -1.4225  0.6810 -0.5920
   80CHL1  H18B 8355   4.776   0.882   7.723 -0.7076  2.3714 -1.5484
   80CHL1  H18C 8356   4.729   0.846   7.557  0.3636 -0.8636 -0.2042
   80CHL1   C12 8357   5.006   0.917   7.564  0.7204  0.0179 -0.4801
   80CHL1  H12A 8358   4.993   0.998   7.638  0.4152 -1.3658  1.0486
   80CHL1  H12B 8359   5.114   0.891   7.553  1.8603  2.7554  2.7585
   80CHL1   C11 8360   4.941   0.971   7.430 -0.0544  0.2834 -0.2785
   80CHL1  H11A 8361   4.832   0.990   7.443 -1.0885 -3.7171 -1.7007
   80CHL1  H11B 8362   4.991   1.066   7.402  0.8631 -0.0178  0.2943
   80CHL1    C9 8363   4.951   0.853   7.321  0.8437 -0.2100 -0.2597
   80CHL1    H9 8364   5.062   0.842   7.318  1.0541  1.7305 -0.5947
   80CHL1   C10 8365   4.900   0.897   7.179  0.9374  0.5934 -0.5275
   80CHL1   C19 8366   4.753   0.949   7.184 -0.1745 -0.3820  0.2991
   80CHL1  H19A 8367   4.742   1.030   7.260 -0.0242  1.3301 -1.4335
   80CHL1  H19B 8368   4.722   0.997   7.089 -0.5901  1.1894  1.2028
   80CHL1  H19C 8369   4.675   0.873   7.207 -0.8438  0.3593  0.4922
   80CHL1    C1 8370   4.991   1.008   7.127  0.2816  0.1033  0.2311
   80CHL1   H1A 8371   4.980   1.100   7.188 -0.0919  0.3408 -0.1906
   80CHL1   H1B 8372   5.100   0.985   7.136  0.9385  1.7182 -2.3566
   80CHL1    C2 8373   4.969   1.040   6.981 -0.7126 -0.1024 -0.2850
   80CHL1   H2A 8374   5.040   1.119   6.950 -1.5413  1.0465  0.6398
   80CHL1   H2B 8375   4.871   1.086   6.956 -0.3431 -0.3766 -2.4121
   80CHL1   C20 8376   4.975   0.762   7.880 -0.2019  0.1745  0.2208
   80CHL1   H20 8377   4.980   0.873   7.885 -0.5746  0.3973 -2.6615
   80CHL1   C21 8378   5.097   0.713   7.961 -0.0699 -0.4568 -0.3904
   80CHL1  H21A 8379   5.123   0.605   7.962  0.0941 -0.4264  1.1895
   80CHL1  H21B 8380   5.069   0.741   8.065  0.2865 -0.6111 -0.2502
   80CHL1  H21C 8381   5.190   0.769   7.938 -0.9212  1.5489  0.8285
   80CHL1   C22 8382   4.843   0.715   7.949  0.5042 -0.4129  0.6423
   80CHL1  H22A 8383   4.760   0.711   7.876 -1.6309 -2.0654  3.0195
   80CHL1  H22B 8384   4.863   0.609   7.974 -2.2795 -1.0559  0.3811
   80CHL1   C23 8385   4.804   0.792   8.071  0.0749 -0.0415 -0.6729
   80CHL1  H23A 8386   4.890   0.804   8.140  0.0933  1.3847 -0.9130
   80CHL1  H23B 8387   4.782   0.896   8.039 -0.8822 -0.2565 -0.7440
   80CHL1   C24 8388   4.685   0.719   8.142  0.7503  0.3571  0.3410
   80CHL1  H24A 8389   4.600   0.712   8.070  0.4055 -1.1890  0.8567
   80CHL1  H24B 8390   4.715   0.613   8.158  1.9580  0.9077  1.8858
   80CHL1   C25 8391   4.644   0.794   8.266  0.1178 -0.2514 -0.6268
   80CHL1   H25 8392   4.731   0.809   8.333  1.0340 -0.7536 -1.6659
   80CHL1   C26 8393   4.574   0.927   8.231 -0.2098 -0.2561  0.7366
   80CHL1  H26A 8394   4.499   0.918   8.149  1.0088  1.2131 -0.6244
   80CHL1  H26B 8395   4.518   0.963   8.319  1.9581 -0.2629  2.1990
   80CHL1  H26C 8396   4.653   1.000   8.201  0.1934 -0.9425  0.1068
   80CHL1   C27 8397   4.546   0.708   8.346 -0.3475  0.2299 -0.0180
   80CHL1  H27A 8398   4.535   0.740   8.452  1.4074  0.0445  0.2534
   80CHL1  H27B 8399   4.449   0.699   8.292  0.3707  0.8904 -1.4721
   80CHL1  H27C 8400   4.580   0.602   8.354  0.9536  0.6413  0.1703
   81CHL1    C3 8401   2.600   5.861   6.668  0.7432 -0.0504  0.1710
   81CHL1    H3 8402   2.602   5.971   6.655 -1.3988  0.1433  1.0065
   81CHL1    O3 8403   2.588   5.794   6.538 -0.6209 -0.1209  0.2560
   81CHL1   H3' 8404   2.600   5.700   6.553 -0.2374  0.0290  0.9858
   81CHL1    C4 8405   2.720   5.804   6.747 -0.0402 -0.4918  0.0087
   81CHL1   H4A 8406   2.712   5.693   6.747  1.1140 -0.5879 -1.1286
   81CHL1   H4B 8407   2.807   5.835   6.686 -2.0810  2.5839 -1.6161
   81CHL1    C5 8408   2.734   5.855   6.890  0.1776  0.9953  0.2543
   81CHL1    C6 8409   2.843   5.907   6.944 -0.2212 -0.7535  0.4224
   81CHL1    H6 8410   2.932   5.902   6.879  0.5930  1.9308  1.2095
   81CHL1    C7 8411   2.864   5.938   7.090  0.2666 -0.0670 -0.6287
   81CHL1   H7A 8412   2.957   5.891   7.126 -0.5890 -0.7831  0.7187
   81CHL1   H7B 8413   2.873   6.049   7.100  0.3478 -0.1493  0.2315
   81CHL1    C8 8414   2.749   5.887   7.177 -0.3391 -0.1986 -0.3660
   81CHL1    H8 8415   2.765   5.781   7.205  0.0536 -0.2749 -0.8604
   81CHL1   C14 8416   2.754   5.968   7.307  0.6231 -0.6529  0.7956
   81CHL1   H14 8417   2.725   6.073   7.286  1.3814 -0.4930  0.5237
   81CHL1   C15 8418   2.881   5.991   7.379  0.0805 -1.0158  0.3757
   81CHL1  H15A 8419   2.932   5.892   7.387 -1.3203 -1.6852  1.6583
   81CHL1  H15B 8420   2.957   6.067   7.352 -0.4030 -0.5180  0.4108
   81CHL1   C16 8421   2.834   6.026   7.519 -0.2692 -0.1103 -0.0405
   81CHL1  H16A 8422   2.874   5.949   7.589 -1.5337 -1.0821 -0.3442
   81CHL1  H16B 8423   2.863   6.128   7.552 -0.9981  0.6814 -1.7413
   81CHL1   C17 8424   2.679   6.017   7.526  0.2053  0.0732 -0.0871
   81CHL1   H17 8425   2.653   6.116   7.483  0.0368 -0.6692 -1.7701
   81CHL1   C13 8426   2.655   5.923   7.411  0.1460  0.3603 -0.3107
   81CHL1   C18 8427   2.690   5.778   7.455  0.0172  0.1273 -0.2981
   81CHL1  H18A 8428   2.658   5.708   7.374 -1.6566  0.8020 -0.2589
   81CHL1  H18B 8429   2.795   5.755   7.483 -0.3993 -1.0183  0.3818
   81CHL1  H18C 8430   2.633   5.744   7.543  0.8742 -0.5542  0.0068
   81CHL1   C12 8431   2.511   5.937   7.349 -0.0800 -0.3322  0.1640
   81CHL1  H12A 8432   2.449   5.887   7.426  0.4010  1.3234  1.7148
   81CHL1  H12B 8433   2.505   6.048   7.345 -0.9790 -0.4088 -1.1411
   81CHL1   C11 8434   2.490   5.859   7.217 -0.4338 -0.5661  0.3223
   81CHL1  H11A 8435   2.490   5.749   7.237  0.0275 -0.1349  3.1799
   81CHL1  H11B 8436   2.398   5.894   7.166 -0.0204  0.0553 -0.0138
   81CHL1    C9 8437   2.607   5.903   7.117 -0.5986 -0.1967 -0.4904
   81CHL1    H9 8438   2.597   6.013   7.108 -2.1812 -0.3614 -0.9962
   81CHL1   C10 8439   2.600   5.837   6.975  0.2078  0.5317 -0.0569
   81CHL1   C19 8440   2.590   5.686   6.994  0.4259 -0.3535 -0.9590
   81CHL1  H19A 8441   2.495   5.671   7.048  0.6518  2.5624  0.4734
   81CHL1  H19B 8442   2.591   5.624   6.902  1.9540 -1.7476 -0.0690
   81CHL1  H19C 8443   2.675   5.640   7.049  0.1607  0.6998  0.4013
   81CHL1    C1 8444   2.482   5.895   6.886 -0.0118  0.0841 -0.6425
   81CHL1   H1A 8445   2.390   5.892   6.948  1.0383 -0.4805  0.9596
   81CHL1   H1B 8446   2.501   6.005   6.888 -0.5483  0.1759  0.1774
   81CHL1    C2 8447   2.469   5.839   6.746  0.1113  0.1700  0.6713
   81CHL1   H2A 8448   2.392   5.896   6.689  2.3683  0.8171 -1.9263
   81CHL1   H2B 8449   2.440   5.732   6.745  1.5503 -0.2309  0.0380
   81CHL1   C20 8450   2.632   6.000   7.670  1.0525  0.3941 -0.0116
   81CHL1   H20 8451   2.638   5.894   7.701 -0.3613 -0.5136 -2.5531
   81CHL1   C21 8452   2.480   6.045   7.672 -0.9237 -0.1285  0.1911
   81CHL1  H21A 8453   2.463   6.134   7.607 -1.1862  0.6110  1.2336
   81CHL1  H21B 8454   2.442   6.066   7.774  1.9022  0.5117  1.2104
   81CHL1  H21C 8455   2.426   5.963   7.621 -0.1066  0.1267 -1.1293
   81CHL1   C22 8456   2.724   6.077   7.779  0.8829  0.3517 -0.0993
   81CHL1  H22A 8457   2.811   6.011   7.796  0.6748 -0.0215 -0.4829
   81CHL1  H22B 8458   2.753   6.170   7.725  0.2836 -0.2537 -1.4910
   81CHL1   C23 8459   2.672   6.103   7.921 -0.3984 -0.0747 -0.2256
   81CHL1  H23A 8460   2.601   6.188   7.926  1.8761  1.8785  1.1054
   81CHL1  H23B 8461   2.617   6.018   7.967 -0.1986  0.7855  1.7022
   81CHL1   C24 8462   2.785   6.146   8.027 -0.3273  0.4913 -0.1246
   81CHL1  H24A 8463   2.864   6.068   8.028 -0.7499  0.0523  0.9262
   81CHL1  H24B 8464   2.818   6.250   8.002 -1.7192  1.5652  2.1872
   81CHL1   C25 8465   2.728   6.148   8.165  0.4393 -0.9015 -0.3135
   81CHL1   H25 8466   2.803   6.183   8.239  0.7088  1.0004 -1.4047
   81CHL1   C26 8467   2.613   6.256   8.171 -0.1805  0.7849  0.1078
   81CHL1  H26A 8468   2.650   6.343   8.112  2.7913 -0.8103 -0.5838
   81CHL1  H26B 8469   2.521   6.208   8.131 -0.1766 -0.4662  1.4957
   81CHL1  H26C 8470   2.596   6.285   8.277 -0.2413 -1.8425  0.8997
   81CHL1   C27 8471   2.680   6.009   8.219  0.1114  0.1522  0.3920
   81CHL1  H27A 8472   2.651   6.018   8.325  3.3616  1.0290  1.3259
   81CHL1  H27B 8473   2.596   5.970   8.157 -0.9505 -0.2088  2.0174
   81CHL1  H27C 8474   2.750   5.922   8.220  0.3120  0.2245  3.8735
   82CHL1    C3 8475   5.857   1.690   6.957  0.5123 -0.3625  0.3869
   82CHL1    H3 8476   5.959   1.724   6.984  1.0061 -0.7240 -0.9457
   82CHL1    O3 8477   5.853   1.687   6.818 -0.2646 -0.4440 -0.0262
   82CHL1   H3' 8478   5.812   1.766   6.784  1.3160  1.2744  1.8025
   82CHL1    C4 8479   5.825   1.546   7.015  0.0580  0.1298 -0.0242
   82CHL1   H4A 8480   5.719   1.533   6.985  0.1025  1.4063 -0.8130
   82CHL1   H4B 8481   5.888   1.478   6.953  1.1124  1.2508 -0.2265
   82CHL1    C5 8482   5.855   1.546   7.162 -0.2650  0.0460  0.0067
   82CHL1    C6 8483   5.954   1.469   7.207 -0.5155  0.6306 -0.0907
   82CHL1    H6 8484   6.010   1.414   7.130  1.0373  2.3540 -0.2550
   82CHL1    C7 8485   5.984   1.445   7.350  0.4864  0.8488 -0.1129
   82CHL1   H7A 8486   6.018   1.341   7.365  1.0927  1.1102  0.3738
   82CHL1   H7B 8487   6.069   1.514   7.370  1.4205 -0.5457  0.8843
   82CHL1    C8 8488   5.867   1.489   7.438  0.0198  0.1620 -0.4690
   82CHL1    H8 8489   5.790   1.411   7.420 -0.1249  0.3461 -0.6419
   82CHL1   C14 8490   5.916   1.496   7.582 -0.4554  0.8448  0.0292
   82CHL1   H14 8491   5.986   1.582   7.573 -1.5935  1.7874 -0.1409
   82CHL1   C15 8492   5.996   1.373   7.636  0.8557  0.1221  0.1171
   82CHL1  H15A 8493   5.959   1.278   7.593  0.1194  0.8158 -0.8343
   82CHL1  H15B 8494   6.100   1.387   7.599  0.4755  0.7785 -0.7349
   82CHL1   C16 8495   5.988   1.389   7.785  0.7422  0.5777  0.0603
   82CHL1  H16A 8496   5.929   1.302   7.821  0.1289  1.5860  1.5880
   82CHL1  H16B 8497   6.070   1.383   7.860  1.1578 -1.5007 -0.4883
   82CHL1   C17 8498   5.911   1.520   7.813 -0.4046  0.2299 -0.2337
   82CHL1   H17 8499   5.991   1.596   7.805 -2.0738  2.2039  0.7884
   82CHL1   C13 8500   5.819   1.538   7.697 -0.1326 -0.4309  0.0680
   82CHL1   C18 8501   5.695   1.440   7.688 -0.0288 -0.4744  0.3065
   82CHL1  H18A 8502   5.637   1.433   7.783  1.9217 -0.5909  1.5400
   82CHL1  H18B 8503   5.632   1.472   7.603  1.7919 -0.7026 -1.1789
   82CHL1  H18C 8504   5.726   1.335   7.668  0.7481 -0.0776 -0.6037
   82CHL1   C12 8505   5.763   1.682   7.659  0.8420  0.5444  0.8664
   82CHL1  H12A 8506   5.678   1.709   7.725  0.6099 -1.7812  1.6208
   82CHL1  H12B 8507   5.844   1.754   7.684  2.6405 -0.4884 -1.4921
   82CHL1   C11 8508   5.727   1.697   7.510  0.1330 -0.1064 -0.1975
   82CHL1  H11A 8509   5.620   1.669   7.501  0.1589 -0.3622  0.2597
   82CHL1  H11B 8510   5.723   1.806   7.486  1.6526  0.0192 -0.0073
   82CHL1    C9 8511   5.816   1.628   7.395 -0.4092 -0.2318 -0.6957
   82CHL1    H9 8512   5.908   1.690   7.390  1.2499 -2.4737  0.1810
   82CHL1   C10 8513   5.762   1.630   7.249 -0.0939 -0.9656  0.6138
   82CHL1   C19 8514   5.611   1.590   7.254 -0.3196  0.1356 -0.7668
   82CHL1  H19A 8515   5.574   1.561   7.153 -1.1435 -1.8161  0.0605
   82CHL1  H19B 8516   5.600   1.504   7.323  3.5443  0.4810  0.5126
   82CHL1  H19C 8517   5.552   1.676   7.292 -0.1999 -1.0942  2.4635
   82CHL1    C1 8518   5.775   1.777   7.184  0.6762  0.0928 -0.1859
   82CHL1   H1A 8519   5.705   1.850   7.230  0.2459 -0.3160 -0.1857
   82CHL1   H1B 8520   5.879   1.814   7.200  1.1111 -1.6820  1.3797
   82CHL1    C2 8521   5.753   1.781   7.028  0.5313 -0.4482  0.2924
   82CHL1   H2A 8522   5.769   1.884   6.991 -0.8955  0.1686  1.2800
   82CHL1   H2B 8523   5.646   1.756   7.011 -0.0263  0.3545  2.2828
   82CHL1   C20 8524   5.845   1.540   7.954  0.5453  0.4352 -0.3512
   82CHL1   H20 8525   5.757   1.472   7.948  1.7708 -1.0972 -4.8577
   82CHL1   C21 8526   5.795   1.683   7.985 -0.6747  0.4661 -0.5323
   82CHL1  H21A 8527   5.879   1.753   7.960 -0.8262  0.3363 -1.4333
   82CHL1  H21B 8528   5.764   1.685   8.092 -1.0671 -0.9591 -0.6009
   82CHL1  H21C 8529   5.709   1.709   7.920 -1.7026 -0.0892  0.5740
   82CHL1   C22 8530   5.939   1.493   8.071 -0.2467 -0.1642 -0.4695
   82CHL1  H22A 8531   5.888   1.490   8.169 -0.4042  0.1842 -0.5420
   82CHL1  H22B 8532   5.963   1.387   8.048 -1.9832 -0.7154  0.0865
   82CHL1   C23 8533   6.074   1.571   8.083  0.5903  0.2890 -0.5934
   82CHL1  H23A 8534   6.113   1.572   7.979  0.4805  2.4459 -0.6683
   82CHL1  H23B 8535   6.046   1.676   8.106  0.7835  0.8645 -2.7421
   82CHL1   C24 8536   6.188   1.521   8.175 -0.0927  0.4428 -0.1256
   82CHL1  H24A 8537   6.236   1.435   8.123 -2.4675 -0.4470 -0.9825
   82CHL1  H24B 8538   6.273   1.593   8.173  0.4363 -0.1700 -0.0598
   82CHL1   C25 8539   6.151   1.500   8.326  0.1505  0.3909  0.4444
   82CHL1   H25 8540   6.091   1.406   8.335  0.6712  0.1044  0.9678
   82CHL1   C26 8541   6.279   1.479   8.407  0.2780 -0.1573 -1.1774
   82CHL1  H26A 8542   6.253   1.423   8.499 -1.4963 -0.4847 -1.8379
   82CHL1  H26B 8543   6.358   1.422   8.353  0.1347 -0.6785 -0.8382
   82CHL1  H26C 8544   6.307   1.581   8.440  3.2803 -1.7981  2.0219
   82CHL1   C27 8545   6.068   1.611   8.390  0.0091 -0.7876  0.4924
   82CHL1  H27A 8546   6.120   1.710   8.396 -2.7456  0.9022 -1.3792
   82CHL1  H27B 8547   5.974   1.628   8.334 -0.9539  3.3303  2.9264
   82CHL1  H27C 8548   6.026   1.583   8.489 -2.5872 -2.6864 -1.0302
   83CHL1    C3 8549   5.982   2.138   6.729  0.0945  0.7230  0.3268
   83CHL1    H3 8550   5.890   2.081   6.755 -0.4971  1.6650  0.3391
   83CHL1    O3 8551   5.976   2.160   6.591  0.3224 -0.1441  0.9189
   83CHL1   H3' 8552   5.885   2.173   6.562  0.6409  1.8952  0.7162
   83CHL1    C4 8553   5.977   2.272   6.802 -0.7379 -0.2264  0.2023
   83CHL1   H4A 8554   6.061   2.340   6.777 -0.5542 -0.7615 -0.6712
   83CHL1   H4B 8555   5.883   2.323   6.773 -0.7577 -0.3993 -0.0425
   83CHL1    C5 8556   5.973   2.243   6.955  0.2550 -0.0800 -0.5997
   83CHL1    C6 8557   5.887   2.300   7.042 -0.3008 -0.5816 -0.0545
   83CHL1    H6 8558   5.810   2.368   7.000 -1.2348 -0.2810  2.0165
   83CHL1    C7 8559   5.892   2.282   7.188 -0.4799 -0.0777 -0.1458
   83CHL1   H7A 8560   5.879   2.378   7.241 -0.1419 -0.2072  0.1702
   83CHL1   H7B 8561   5.801   2.226   7.217 -0.0997  0.1693  1.6121
   83CHL1    C8 8562   6.008   2.205   7.249  0.0499 -0.9258  0.3949
   83CHL1    H8 8563   6.085   2.283   7.268  1.1936 -1.8729 -0.2322
   83CHL1   C14 8564   5.980   2.144   7.383 -0.7270  0.5076 -0.1765
   83CHL1   H14 8565   5.906   2.068   7.351 -0.0386  0.1864 -1.0471
   83CHL1   C15 8566   5.921   2.224   7.500  0.1751 -0.1300  0.2914
   83CHL1  H15A 8567   5.968   2.324   7.503  2.0726 -0.9416 -1.0321
   83CHL1  H15B 8568   5.811   2.229   7.481  0.3918  0.3306 -0.8769
   83CHL1   C16 8569   5.955   2.144   7.624  0.0373  0.7977  0.6315
   83CHL1  H16A 8570   6.019   2.208   7.689  2.8363 -0.1377 -1.0484
   83CHL1  H16B 8571   5.874   2.099   7.687  0.8384 -0.2015  0.9859
   83CHL1   C17 8572   6.049   2.025   7.580  0.0484  0.5087 -0.2096
   83CHL1   H17 8573   5.981   1.937   7.573 -3.3250  2.7391  1.4179
   83CHL1   C13 8574   6.102   2.063   7.442 -0.1087  0.3141  0.6607
   83CHL1   C18 8575   6.221   2.155   7.467 -0.5640  0.4946  0.4087
   83CHL1  H18A 8576   6.309   2.092   7.494 -0.7660 -1.1185 -2.3305
   83CHL1  H18B 8577   6.246   2.191   7.365 -1.4860  0.3065  0.1113
   83CHL1  H18C 8578   6.203   2.247   7.527  2.3374  1.4504  0.0187
   83CHL1   C12 8579   6.138   1.947   7.349  0.1593 -0.0203 -0.1392
   83CHL1  H12A 8580   6.216   1.873   7.374  0.7600 -0.7751 -3.7127
   83CHL1  H12B 8581   6.048   1.884   7.329  2.1481 -2.4291 -2.1463
   83CHL1   C11 8582   6.172   1.998   7.205 -0.6025  0.6642  0.0465
   83CHL1  H11A 8583   6.270   2.049   7.208 -0.2787  0.2072 -1.7718
   83CHL1  H11B 8584   6.180   1.908   7.141 -2.3860 -1.5611  2.6712
   83CHL1    C9 8585   6.061   2.097   7.150  0.1143  0.2646  0.0022
   83CHL1    H9 8586   5.976   2.026   7.138  0.5218 -0.3197  0.5490
   83CHL1   C10 8587   6.086   2.149   7.006 -0.2622 -0.2816  1.0978
   83CHL1   C19 8588   6.217   2.237   7.009  0.2595  0.5423 -0.4028
   83CHL1  H19A 8589   6.230   2.295   6.915  0.3753 -0.0245 -0.7377
   83CHL1  H19B 8590   6.211   2.303   7.098  1.2463 -1.1545  0.9696
   83CHL1  H19C 8591   6.303   2.170   7.029 -0.6847 -0.5110  0.3127
   83CHL1    C1 8592   6.110   2.026   6.917 -0.2079 -0.3740 -0.4408
   83CHL1   H1A 8593   6.205   1.971   6.938 -0.6756 -0.1670  2.6406
   83CHL1   H1B 8594   6.022   1.960   6.926 -0.2402 -0.6332 -2.2358
   83CHL1    C2 8595   6.109   2.055   6.760 -0.0274  0.2815 -0.7243
   83CHL1   H2A 8596   6.118   1.961   6.702 -1.3649 -0.5085  0.2704
   83CHL1   H2B 8597   6.202   2.115   6.747  1.0495 -1.1730  0.0267
   83CHL1   C20 8598   6.150   1.996   7.690 -0.2338  0.8981 -0.4558
   83CHL1   H20 8599   6.212   2.086   7.707 -2.3095  2.9608 -2.8863
   83CHL1   C21 8600   6.246   1.880   7.656  0.5652 -0.5099  0.5244
   83CHL1  H21A 8601   6.326   1.916   7.588  0.6009  1.2250  1.4444
   83CHL1  H21B 8602   6.201   1.784   7.623 -0.6461  0.1516  0.1896
   83CHL1  H21C 8603   6.298   1.844   7.747  1.5330  0.6751  0.4732
   83CHL1   C22 8604   6.074   1.952   7.828 -0.5057 -0.3929  0.5365
   83CHL1  H22A 8605   5.974   1.908   7.808 -0.2842 -1.2372  1.2200
   83CHL1  H22B 8606   6.135   1.877   7.883 -0.4143  0.2704  1.3662
   83CHL1   C23 8607   6.064   2.060   7.939  0.2961 -0.0415 -0.8547
   83CHL1  H23A 8608   6.157   2.118   7.924  0.9088 -0.0734  2.0512
   83CHL1  H23B 8609   5.978   2.126   7.918  0.4901  0.2942 -0.6037
   83CHL1   C24 8610   6.058   2.020   8.082 -0.1121  0.3928  0.6561
   83CHL1  H24A 8611   5.984   1.938   8.084 -0.3713  0.4378 -2.2941
   83CHL1  H24B 8612   6.158   1.976   8.100  1.2323  3.3805  1.1894
   83CHL1   C25 8613   6.005   2.127   8.178 -0.4784 -0.1345 -0.1748
   83CHL1   H25 8614   5.907   2.165   8.144 -0.8082  0.0832  0.9518
   83CHL1   C26 8615   5.977   2.056   8.315 -0.1649  0.7194  0.2985
   83CHL1  H26A 8616   6.068   2.009   8.356 -0.5109  0.9689  1.3894
   83CHL1  H26B 8617   5.926   2.132   8.379 -0.9147  0.3565  0.1483
   83CHL1  H26C 8618   5.894   1.983   8.303  1.0472 -0.7283  0.4853
   83CHL1   C27 8619   6.113   2.237   8.197  0.2988  0.4949  0.1673
   83CHL1  H27A 8620   6.068   2.309   8.269  0.4031  0.8217 -0.0958
   83CHL1  H27B 8621   6.200   2.195   8.252  0.8619 -1.0145 -1.7462
   83CHL1  H27C 8622   6.153   2.271   8.099 -0.7237  0.6580 -0.2083
   84CHL1    C3 8623   0.675   0.506   6.817  0.5830 -0.5592  0.5252
   84CHL1    H3 8624   0.719   0.602   6.850 -0.0955 -0.1885  0.3628
   84CHL1    O3 8625   0.658   0.505   6.676  0.1134  0.4456  0.3366
   84CHL1   H3' 8626   0.591   0.572   6.658 -0.8916 -1.1135 -2.4797
   84CHL1    C4 8627   0.756   0.388   6.858  0.3567 -0.1056  0.1431
   84CHL1   H4A 8628   0.716   0.291   6.819  2.1354  0.2120 -2.7217
   84CHL1   H4B 8629   0.857   0.385   6.813  0.4247  0.1749  0.2730
   84CHL1    C5 8630   0.765   0.380   7.006  0.4050 -0.3680 -0.1919
   84CHL1    C6 8631   0.885   0.371   7.074  0.3568  0.3150  0.6672
   84CHL1    H6 8632   0.977   0.370   7.014  0.1670  0.2557  0.3776
   84CHL1    C7 8633   0.895   0.369   7.224 -0.5802 -0.1940  0.0524
   84CHL1   H7A 8634   0.973   0.297   7.257 -1.5872 -0.9393  0.8763
   84CHL1   H7B 8635   0.925   0.469   7.262  3.3563 -0.8996 -0.7423
   84CHL1    C8 8636   0.758   0.326   7.295  0.0453 -0.6469  0.2332
   84CHL1    H8 8637   0.735   0.221   7.269  0.2409 -0.7194  0.3537
   84CHL1   C14 8638   0.764   0.336   7.449 -0.2431 -0.9862 -0.0383
   84CHL1   H14 8639   0.784   0.444   7.466  0.6076 -1.0572 -0.5569
   84CHL1   C15 8640   0.870   0.260   7.522  0.0057 -0.2130 -0.5217
   84CHL1  H15A 8641   0.886   0.152   7.503  1.4391 -0.4513  1.6563
   84CHL1  H15B 8642   0.966   0.310   7.496  0.4903 -0.4241  0.7620
   84CHL1   C16 8643   0.829   0.270   7.670 -0.9793 -0.1935  0.5226
   84CHL1  H16A 8644   0.829   0.170   7.718 -0.4472  0.7107  2.5155
   84CHL1  H16B 8645   0.889   0.340   7.733  0.0852  1.8385 -2.5514
   84CHL1   C17 8646   0.685   0.328   7.672  0.1740 -0.0102  0.5100
   84CHL1   H17 8647   0.700   0.437   7.690 -0.0577  0.1324 -0.1285
   84CHL1   C13 8648   0.634   0.308   7.527 -0.5005 -0.5070  1.1915
   84CHL1   C18 8649   0.598   0.162   7.509 -0.4149  0.0956 -0.0827
   84CHL1  H18A 8650   0.600   0.134   7.402  1.3500 -1.5966  0.3426
   84CHL1  H18B 8651   0.675   0.098   7.556  0.5536  1.9527  0.9956
   84CHL1  H18C 8652   0.506   0.138   7.567 -0.5690  0.0771 -0.3309
   84CHL1   C12 8653   0.532   0.407   7.466 -0.4056 -0.0356  0.1373
   84CHL1  H12A 8654   0.435   0.401   7.519  0.4888 -2.0461  1.6556
   84CHL1  H12B 8655   0.561   0.512   7.489 -1.0418  0.1952 -0.0817
   84CHL1   C11 8656   0.516   0.384   7.321  0.6131 -0.7541  0.3558
   84CHL1  H11A 8657   0.495   0.277   7.298  0.2625 -0.4564 -0.7628
   84CHL1  H11B 8658   0.438   0.450   7.278  1.2186 -0.4537 -0.3059
   84CHL1    C9 8659   0.648   0.409   7.238 -0.6568  0.3647 -0.2772
   84CHL1    H9 8660   0.678   0.515   7.254  2.1498 -0.5426  1.3189
   84CHL1   C10 8661   0.629   0.382   7.083 -0.3447  0.2113 -0.2631
   84CHL1   C19 8662   0.557   0.246   7.045 -0.5773 -0.5888  0.3212
   84CHL1  H19A 8663   0.540   0.230   6.936  0.4496 -2.0862  0.3452
   84CHL1  H19B 8664   0.611   0.160   7.089 -0.5058 -0.1932  1.0179
   84CHL1  H19C 8665   0.455   0.246   7.087 -0.9635  1.0103 -0.5154
   84CHL1    C1 8666   0.544   0.501   7.030  0.4559  0.7436 -0.3038
   84CHL1   H1A 8667   0.440   0.500   7.068  0.0467 -1.9197 -1.2425
   84CHL1   H1B 8668   0.596   0.592   7.068 -0.8003  1.4625 -0.2578
   84CHL1    C2 8669   0.534   0.504   6.872 -0.5212  0.1573 -0.9018
   84CHL1   H2A 8670   0.476   0.591   6.835 -0.1382 -0.8343 -4.1467
   84CHL1   H2B 8671   0.478   0.413   6.841 -1.6247 -0.5685  2.7996
   84CHL1   C20 8672   0.598   0.274   7.796 -0.0894 -0.3774  0.2463
   84CHL1   H20 8673   0.599   0.164   7.783  1.4277 -0.1950 -1.4998
   84CHL1   C21 8674   0.458   0.322   7.801  0.5277 -0.9465 -0.6580
   84CHL1  H21A 8675   0.460   0.427   7.837 -1.8415 -0.7538 -0.9582
   84CHL1  H21B 8676   0.394   0.255   7.863 -0.1443  0.5855  0.3792
   84CHL1  H21C 8677   0.404   0.338   7.705  0.2017 -2.0720 -0.6790
   84CHL1   C22 8678   0.669   0.310   7.930  0.1190  0.5728  0.0096
   84CHL1  H22A 8679   0.773   0.271   7.930 -0.2719 -0.7878  3.1284
   84CHL1  H22B 8680   0.665   0.419   7.954 -1.0760 -0.2513  4.6207
   84CHL1   C23 8681   0.597   0.243   8.053  0.4470 -0.0890 -0.2360
   84CHL1  H23A 8682   0.491   0.276   8.047  0.1564 -0.9133  0.1848
   84CHL1  H23B 8683   0.600   0.135   8.028  2.2387  0.2810 -1.8315
   84CHL1   C24 8684   0.656   0.270   8.202  0.3591  0.3867  0.3478
   84CHL1  H24A 8685   0.758   0.311   8.186  0.5908 -0.4577 -0.3827
   84CHL1  H24B 8686   0.586   0.350   8.234 -1.7915  0.2881 -3.4910
   84CHL1   C25 8687   0.656   0.149   8.291 -0.6360  0.1242 -0.3214
   84CHL1   H25 8688   0.674   0.186   8.394 -0.1928 -3.0054  0.8321
   84CHL1   C26 8689   0.515   0.080   8.294 -0.4444  0.0507  0.1711
   84CHL1  H26A 8690   0.510   0.017   8.385  1.4136  3.0880  2.6071
   84CHL1  H26B 8691   0.431   0.153   8.305  0.0736  0.7291 -0.2631
   84CHL1  H26C 8692   0.495   0.017   8.205  0.8542 -2.1340  1.3542
   84CHL1   C27 8693   0.764   0.048   8.239 -0.0322  0.7912  1.1595
   84CHL1  H27A 8694   0.781  -0.019   8.325  0.2270  1.8685  1.9715
   84CHL1  H27B 8695   0.736  -0.003   8.144  3.5963 -2.0070  1.3999
   84CHL1  H27C 8696   0.854   0.113   8.230  0.4359  0.1021  0.7332
   85CHL1    C3 8697   2.687   0.934   6.700  0.1976 -0.3024 -0.6113
   85CHL1    H3 8698   2.769   0.867   6.732 -0.5409 -0.4129  1.1573
   85CHL1    O3 8699   2.676   0.940   6.559  0.2287 -0.6655 -0.3103
   85CHL1   H3' 8700   2.644   1.026   6.532 -0.7326 -1.1200 -0.6670
   85CHL1    C4 8701   2.556   0.871   6.746  0.5160  0.2722 -0.0524
   85CHL1   H4A 8702   2.472   0.930   6.703  0.9124  2.5693  2.1342
   85CHL1   H4B 8703   2.554   0.769   6.701 -0.7771  0.4276 -0.3819
   85CHL1    C5 8704   2.537   0.874   6.899  0.1187 -0.9755 -0.0093
   85CHL1    C6 8705   2.521   0.760   6.966  0.1209 -0.2979  0.5407
   85CHL1    H6 8706   2.510   0.669   6.905  0.2765 -1.2591  1.9205
   85CHL1    C7 8707   2.504   0.752   7.114  0.0287 -0.0514  0.3709
   85CHL1   H7A 8708   2.422   0.681   7.137  0.8706 -1.0113  0.5051
   85CHL1   H7B 8709   2.599   0.714   7.158 -0.2353  0.0800  1.0632
   85CHL1    C8 8710   2.457   0.892   7.166 -0.4283 -0.0732 -0.1095
   85CHL1    H8 8711   2.354   0.919   7.135  0.0958  1.3117 -0.7274
   85CHL1   C14 8712   2.461   0.886   7.320  0.0829  0.0637  0.3287
   85CHL1   H14 8713   2.562   0.850   7.349  1.6598  4.5730  1.1772
   85CHL1   C15 8714   2.371   0.779   7.389 -0.3873 -0.1567  0.8074
   85CHL1  H15A 8715   2.270   0.779   7.341  0.0670  1.2592 -0.1966
   85CHL1  H15B 8716   2.411   0.677   7.368  2.2094  1.5947 -4.4162
   85CHL1   C16 8717   2.370   0.825   7.535 -0.6435  0.7965  0.6244
   85CHL1  H16A 8718   2.268   0.855   7.568 -1.0583  1.1227 -0.9039
   85CHL1  H16B 8719   2.420   0.758   7.608 -1.8578 -1.4840 -0.5500
   85CHL1   C17 8720   2.447   0.963   7.543 -0.2831  0.8911  0.3921
   85CHL1   H17 8721   2.553   0.935   7.560 -1.2277 -3.7407 -0.1271
   85CHL1   C13 8722   2.437   1.018   7.399  0.1543  0.2711  0.2699
   85CHL1   C18 8723   2.296   1.075   7.377  0.0158  0.3977  0.3047
   85CHL1  H18A 8724   2.270   1.098   7.271  0.1069  1.6060  0.5386
   85CHL1  H18B 8725   2.221   1.002   7.414  0.1336  0.0431 -0.1364
   85CHL1  H18C 8726   2.273   1.169   7.431 -1.7926  0.2300 -0.0860
   85CHL1   C12 8727   2.544   1.121   7.348  0.6481  0.9218 -0.0394
   85CHL1  H12A 8728   2.515   1.223   7.379 -0.3267  1.0915 -1.4261
   85CHL1  H12B 8729   2.643   1.089   7.388  1.3504  2.2528 -0.6515
   85CHL1   C11 8730   2.546   1.138   7.193 -0.7573 -0.6687  0.3082
   85CHL1  H11A 8731   2.452   1.192   7.169 -0.7866 -0.3628  1.0745
   85CHL1  H11B 8732   2.629   1.205   7.163  1.3487 -2.9664  0.6897
   85CHL1    C9 8733   2.552   1.002   7.117  0.1266  0.4836  0.3391
   85CHL1    H9 8734   2.651   0.960   7.144  0.2737 -0.6376 -1.7318
   85CHL1   C10 8735   2.552   1.009   6.961  0.1012 -0.0996 -1.1026
   85CHL1   C19 8736   2.423   1.094   6.929  0.3064 -0.7425 -0.0897
   85CHL1  H19A 8737   2.426   1.204   6.947 -3.0153  0.0692 -3.2948
   85CHL1  H19B 8738   2.415   1.100   6.819 -1.6550  2.0215  0.1070
   85CHL1  H19C 8739   2.330   1.051   6.972 -0.4236  1.1790  0.3748
   85CHL1    C1 8740   2.685   1.080   6.913 -0.1241  0.8034  0.4322
   85CHL1   H1A 8741   2.703   1.182   6.952  2.9038  0.2255  0.8084
   85CHL1   H1B 8742   2.765   1.011   6.946 -0.9906 -0.9541 -0.9141
   85CHL1    C2 8743   2.688   1.073   6.758  0.3565 -0.0346 -0.6510
   85CHL1   H2A 8744   2.774   1.131   6.717  0.4420 -1.4842 -2.6638
   85CHL1   H2B 8745   2.599   1.129   6.721  1.7828  4.1657  1.6673
   85CHL1   C20 8746   2.392   1.052   7.650  0.4967 -0.5697 -0.9566
   85CHL1   H20 8747   2.289   1.075   7.613  1.4523  0.9810 -2.8391
   85CHL1   C21 8748   2.464   1.189   7.668  0.2663 -0.7751  0.0162
   85CHL1  H21A 8749   2.439   1.235   7.570 -2.0254  0.3492  1.0587
   85CHL1  H21B 8750   2.573   1.186   7.686  0.6716  1.3831 -1.7133
   85CHL1  H21C 8751   2.405   1.244   7.745 -2.5657 -0.9993 -1.8249
   85CHL1   C22 8752   2.371   0.989   7.792 -0.5781  0.1674 -0.2570
   85CHL1  H22A 8753   2.282   0.923   7.791 -1.8966  1.7904 -2.7561
   85CHL1  H22B 8754   2.463   0.943   7.833  0.6717  0.2164 -2.8036
   85CHL1   C23 8755   2.336   1.081   7.911  0.2573 -0.0003 -0.3432
   85CHL1  H23A 8756   2.425   1.141   7.935  0.1528 -1.0950  3.3675
   85CHL1  H23B 8757   2.249   1.149   7.898 -2.3184 -3.2185 -1.7431
   85CHL1   C24 8758   2.310   0.998   8.039  0.2454 -0.2352 -1.1849
   85CHL1  H24A 8759   2.233   0.926   8.004  0.9702 -1.1553 -0.9001
   85CHL1  H24B 8760   2.394   0.934   8.070  0.7833 -0.0800 -2.2818
   85CHL1   C25 8761   2.252   1.077   8.153 -0.9017 -0.2375 -0.3929
   85CHL1   H25 8762   2.166   1.143   8.126 -2.6496 -2.3762 -0.3444
   85CHL1   C26 8763   2.197   0.990   8.269 -0.1700  0.3610  0.0147
   85CHL1  H26A 8764   2.105   0.940   8.232 -0.3230  1.3824 -1.0624
   85CHL1  H26B 8765   2.267   0.910   8.300 -0.0424  0.7008  0.6100
   85CHL1  H26C 8766   2.176   1.046   8.362  1.4194 -2.2122  2.0747
   85CHL1   C27 8767   2.356   1.183   8.206 -0.1534  1.0456  0.0203
   85CHL1  H27A 8768   2.456   1.136   8.218 -0.2713  1.2209  2.0241
   85CHL1  H27B 8769   2.367   1.250   8.119 -1.3255  0.8558 -0.2889
   85CHL1  H27C 8770   2.327   1.246   8.293 -1.2416  0.2539  0.2568
   86CHL1    C3 8771   3.912   4.897   6.777 -0.1050  0.0609 -1.1430
   86CHL1    H3 8772   3.806   4.928   6.791  0.5614  2.1710 -0.5003
   86CHL1    O3 8773   3.917   4.817   6.663 -0.1268 -0.2316 -0.7185
   86CHL1   H3' 8774   4.011   4.807   6.647  0.0468 -1.3934  0.7904
   86CHL1    C4 8775   3.992   5.028   6.766 -0.4335 -0.0620 -0.3257
   86CHL1   H4A 8776   4.097   4.994   6.749 -0.3360 -0.0758  0.2506
   86CHL1   H4B 8777   3.950   5.079   6.677  2.8496  2.8010 -0.4640
   86CHL1    C5 8778   3.985   5.106   6.894 -0.4451 -0.2914  0.0029
   86CHL1    C6 8779   3.937   5.229   6.892  0.3671 -0.2577  0.0419
   86CHL1    H6 8780   3.908   5.272   6.795  0.2331 -1.2997 -0.3954
   86CHL1    C7 8781   3.936   5.319   7.011  0.1184 -0.2918  0.3288
   86CHL1   H7A 8782   4.001   5.405   6.982  2.5861 -2.2386 -0.2778
   86CHL1   H7B 8783   3.831   5.351   7.029 -0.1677 -0.1042 -1.4333
   86CHL1    C8 8784   4.002   5.257   7.147 -0.1618 -0.2503  0.8759
   86CHL1    H8 8785   4.112   5.271   7.155 -0.3710  0.8735  2.1644
   86CHL1   C14 8786   3.948   5.324   7.274  0.3177 -0.5270  0.1092
   86CHL1   H14 8787   3.840   5.301   7.285 -0.0702  2.0220  3.2407
   86CHL1   C15 8788   3.959   5.478   7.273  0.1233  0.9617 -0.1607
   86CHL1  H15A 8789   4.060   5.504   7.234  0.2773  0.5366 -0.0607
   86CHL1  H15B 8790   3.883   5.525   7.208 -0.7693 -2.0306 -1.4845
   86CHL1   C16 8791   3.943   5.512   7.420  0.1507  0.4529  0.0036
   86CHL1  H16A 8792   4.017   5.586   7.456 -1.2813  2.7123 -1.4785
   86CHL1  H16B 8793   3.844   5.556   7.442 -0.4014 -0.9775  0.5452
   86CHL1   C17 8794   3.947   5.377   7.504 -0.2884 -0.6144  0.2118
   86CHL1   H17 8795   3.845   5.340   7.528  0.3592 -1.2118  2.2325
   86CHL1   C13 8796   4.008   5.279   7.405 -0.2542  0.6957  0.1131
   86CHL1   C18 8797   4.168   5.302   7.409 -0.0269  0.0632 -0.6599
   86CHL1  H18A 8798   4.190   5.409   7.388 -0.7638  0.0196 -1.7368
   86CHL1  H18B 8799   4.217   5.265   7.502  0.6453 -0.1274 -1.0782
   86CHL1  H18C 8800   4.221   5.261   7.320  0.2361  0.6872 -0.8028
   86CHL1   C12 8801   3.968   5.134   7.411  0.1397  0.6662  0.3638
   86CHL1  H12A 8802   4.015   5.084   7.498  0.5770 -0.3043 -0.4179
   86CHL1  H12B 8803   3.858   5.127   7.413  0.0145  1.9153 -0.5122
   86CHL1   C11 8804   4.011   5.043   7.290 -0.1788 -0.6304 -0.0095
   86CHL1  H11A 8805   4.121   5.026   7.296  0.0366  0.8116  0.5517
   86CHL1  H11B 8806   3.952   4.950   7.304  0.0676 -0.5093  2.3281
   86CHL1    C9 8807   3.978   5.109   7.154 -0.1020  0.4541  0.1519
   86CHL1    H9 8808   3.867   5.108   7.153 -0.1221  1.6153 -0.5245
   86CHL1   C10 8809   4.018   5.027   7.024 -1.0585 -0.8208  0.7294
   86CHL1   C19 8810   4.166   4.994   7.033 -0.2944 -0.3184  0.0153
   86CHL1  H19A 8811   4.237   5.076   7.057 -0.8987 -0.0469  0.9403
   86CHL1  H19B 8812   4.182   4.910   7.103  3.4544  0.8143  0.7305
   86CHL1  H19C 8813   4.212   4.953   6.940  2.3553 -0.5401  1.3255
   86CHL1    C1 8814   3.939   4.897   7.024 -0.4690  0.5678  0.1039
   86CHL1   H1A 8815   3.965   4.837   7.114  0.7516 -1.6125 -1.5920
   86CHL1   H1B 8816   3.831   4.919   7.038 -0.8538  0.2747 -2.0905
   86CHL1    C2 8817   3.963   4.811   6.895 -0.0409  0.4491 -0.3661
   86CHL1   H2A 8818   3.921   4.709   6.900  0.3046  0.1002 -3.0711
   86CHL1   H2B 8819   4.072   4.790   6.886  0.0227  0.8769 -0.6577
   86CHL1   C20 8820   4.011   5.400   7.639 -0.1752  0.2623 -0.8025
   86CHL1   H20 8821   4.117   5.432   7.635  0.2960 -1.2894 -1.2875
   86CHL1   C21 8822   4.000   5.258   7.713  0.2118 -0.4967 -0.3412
   86CHL1  H21A 8823   3.896   5.218   7.708  0.2683 -0.5145 -1.8428
   86CHL1  H21B 8824   4.039   5.267   7.816 -0.8728  0.1045  0.0368
   86CHL1  H21C 8825   4.070   5.191   7.660 -0.6487 -0.9493 -0.9321
   86CHL1   C22 8826   3.933   5.500   7.724  0.2152  0.6403  0.6772
   86CHL1  H22A 8827   3.917   5.593   7.665  0.7502  0.8711  0.8884
   86CHL1  H22B 8828   3.832   5.458   7.746 -0.8630  1.7259 -1.8074
   86CHL1   C23 8829   4.018   5.547   7.843 -0.1992  0.1136  0.0881
   86CHL1  H23A 8830   4.041   5.459   7.906  1.6902  1.9648  2.1836
   86CHL1  H23B 8831   4.115   5.588   7.807  0.5665 -1.3521  0.4325
   86CHL1   C24 8832   3.959   5.653   7.939 -0.0775  0.2613 -0.0875
   86CHL1  H24A 8833   3.922   5.735   7.874 -0.2723 -0.8630 -1.4239
   86CHL1  H24B 8834   3.873   5.604   7.990  1.5787 -0.8941  1.7531
   86CHL1   C25 8835   4.064   5.725   8.027  0.4680  0.3850 -0.8320
   86CHL1   H25 8836   4.141   5.784   7.973 -0.4953  2.5784  0.1059
   86CHL1   C26 8837   3.987   5.817   8.116 -0.1351 -0.3414 -0.5034
   86CHL1  H26A 8838   4.049   5.850   8.202 -0.0740 -0.4669 -0.4989
   86CHL1  H26B 8839   3.940   5.907   8.070  0.5122  0.9692  1.2880
   86CHL1  H26C 8840   3.901   5.770   8.169  1.2202 -0.9015  1.2894
   86CHL1   C27 8841   4.149   5.625   8.112 -0.4521 -0.6623 -0.3683
   86CHL1  H27A 8842   4.086   5.566   8.182  0.5824  1.1055  2.2083
   86CHL1  H27B 8843   4.201   5.550   8.050 -0.1990 -0.5517 -0.2924
   86CHL1  H27C 8844   4.220   5.688   8.170 -1.7139  1.7591 -1.3228
   87CHL1    C3 8845   3.652   3.726   7.014  0.4538  0.2188 -0.2631
   87CHL1    H3 8846   3.542   3.743   7.016  0.5308  1.1003 -1.8857
   87CHL1    O3 8847   3.679   3.713   6.876  0.2377  0.5553 -0.0947
   87CHL1   H3' 8848   3.774   3.705   6.862  0.1955 -0.8083  0.3090
   87CHL1    C4 8849   3.726   3.860   7.063 -0.0028  1.1851  0.6772
   87CHL1   H4A 8850   3.835   3.850   7.043  0.4742  2.6352  2.3421
   87CHL1   H4B 8851   3.691   3.950   7.009  1.4717  2.7467  2.1999
   87CHL1    C5 8852   3.714   3.874   7.209  0.1707 -0.5434 -0.3358
   87CHL1    C6 8853   3.650   3.980   7.263 -0.2639  0.3470 -0.3926
   87CHL1    H6 8854   3.611   4.063   7.202  1.3098  1.9224  0.6336
   87CHL1    C7 8855   3.654   4.010   7.412 -0.3357 -0.1858  0.1258
   87CHL1   H7A 8856   3.706   4.107   7.425 -0.4350 -0.2679  1.2377
   87CHL1   H7B 8857   3.548   4.016   7.445  0.2874 -0.4264  2.3487
   87CHL1    C8 8858   3.724   3.904   7.495  0.6465  0.4019 -0.3897
   87CHL1    H8 8859   3.832   3.931   7.487  0.6501  0.7427  0.6900
   87CHL1   C14 8860   3.674   3.912   7.635 -0.2999  0.0877 -0.0441
   87CHL1   H14 8861   3.573   3.868   7.623  0.2558 -1.5615  1.0167
   87CHL1   C15 8862   3.667   4.042   7.698  0.9913 -0.6176 -0.4221
   87CHL1  H15A 8863   3.766   4.093   7.702  0.5352  0.2213  1.9318
   87CHL1  H15B 8864   3.592   4.109   7.651  1.1087  0.0325  0.2994
   87CHL1   C16 8865   3.641   4.008   7.845  0.3262 -0.5855  0.2135
   87CHL1  H16A 8866   3.713   4.059   7.914 -0.1116 -0.3668  0.5112
   87CHL1  H16B 8867   3.543   4.052   7.874 -0.2507 -0.1211 -2.1962
   87CHL1   C17 8868   3.649   3.851   7.861 -0.4268 -0.1527  0.1529
   87CHL1   H17 8869   3.550   3.813   7.828 -1.2193  0.5823  1.5863
   87CHL1   C13 8870   3.744   3.818   7.735  0.6642  0.0216 -0.3154
   87CHL1   C18 8871   3.889   3.849   7.759  0.3320 -0.4697  0.2396
   87CHL1  H18A 8872   3.934   3.760   7.807 -0.1040 -0.3130  0.9487
   87CHL1  H18B 8873   3.938   3.871   7.661  1.7207  1.4047  1.3055
   87CHL1  H18C 8874   3.901   3.938   7.824 -0.4795 -0.4368  0.3574
   87CHL1   C12 8875   3.726   3.672   7.682 -0.0970 -0.5820  0.2225
   87CHL1  H12A 8876   3.787   3.608   7.748  0.0142  1.4658  2.2331
   87CHL1  H12B 8877   3.617   3.649   7.682  0.0759 -1.4246 -0.3274
   87CHL1   C11 8878   3.787   3.662   7.539 -0.3748 -0.0124  0.2788
   87CHL1  H11A 8879   3.894   3.688   7.551 -0.2132 -1.1445  1.6513
   87CHL1  H11B 8880   3.780   3.554   7.514 -1.9751 -0.1277  1.1062
   87CHL1    C9 8881   3.709   3.764   7.444  0.5198 -0.1788 -0.0965
   87CHL1    H9 8882   3.601   3.741   7.451  0.4920  0.3226  1.6007
   87CHL1   C10 8883   3.755   3.761   7.299  0.0351  0.5213 -0.1156
   87CHL1   C19 8884   3.907   3.751   7.292  0.5944  0.1368  0.0380
   87CHL1  H19A 8885   3.948   3.847   7.329  1.1814  0.7911 -2.1353
   87CHL1  H19B 8886   3.936   3.663   7.354 -1.1495  0.3660  1.2333
   87CHL1  H19C 8887   3.945   3.741   7.188 -0.3433  1.2019 -0.4254
   87CHL1    C1 8888   3.692   3.631   7.242 -0.0869  0.1831  0.1821
   87CHL1   H1A 8889   3.720   3.543   7.304  1.9225  1.4189  1.1660
   87CHL1   H1B 8890   3.583   3.646   7.260  0.0031  1.4872 -0.2673
   87CHL1    C2 8891   3.710   3.608   7.094  0.2962  0.0899  0.1140
   87CHL1   H2A 8892   3.661   3.512   7.069  1.0822 -0.3150  0.0960
   87CHL1   H2B 8893   3.817   3.593   7.068 -0.1982 -2.8889 -0.5555
   87CHL1   C20 8894   3.676   3.814   8.007  0.0954  0.1862  0.2132
   87CHL1   H20 8895   3.749   3.884   8.053  1.0865 -0.5348 -0.2476
   87CHL1   C21 8896   3.751   3.676   8.022  0.3544  0.0066 -0.4169
   87CHL1  H21A 8897   3.850   3.681   7.972  0.8889 -1.7523  0.3920
   87CHL1  H21B 8898   3.693   3.585   7.994 -1.7211  0.2340  2.6695
   87CHL1  H21C 8899   3.769   3.670   8.131  2.3150 -0.5146 -0.7246
   87CHL1   C22 8900   3.546   3.812   8.105  0.1479 -0.2166  0.1426
   87CHL1  H22A 8901   3.583   3.795   8.208 -2.8787  1.2605  1.5956
   87CHL1  H22B 8902   3.498   3.912   8.102 -0.0975 -0.2622  1.8044
   87CHL1   C23 8903   3.438   3.707   8.070  0.1195 -0.2593  0.1159
   87CHL1  H23A 8904   3.395   3.741   7.973  1.6058  0.1893 -0.4307
   87CHL1  H23B 8905   3.468   3.602   8.054  0.8441  0.1860 -1.8229
   87CHL1   C24 8906   3.319   3.719   8.169 -0.2755 -0.1873  0.4693
   87CHL1  H24A 8907   3.265   3.814   8.147  1.4033  0.5338 -0.7912
   87CHL1  H24B 8908   3.256   3.630   8.153 -0.0630 -0.3358  0.4553
   87CHL1   C25 8909   3.351   3.721   8.316 -0.0455  0.0699  0.2248
   87CHL1   H25 8910   3.396   3.822   8.325  1.8826 -0.6169 -1.0342
   87CHL1   C26 8911   3.224   3.707   8.398 -0.0781  0.3538  0.5255
   87CHL1  H26A 8912   3.174   3.806   8.405 -0.2653  0.4090 -1.2009
   87CHL1  H26B 8913   3.154   3.635   8.352  1.5779 -0.2722 -1.1410
   87CHL1  H26C 8914   3.239   3.675   8.503 -0.2933  0.6092  0.6352
   87CHL1   C27 8915   3.447   3.611   8.371  0.7120 -0.0212  0.5209
   87CHL1  H27A 8916   3.538   3.600   8.307 -0.7848  1.0964 -1.9712
   87CHL1  H27B 8917   3.474   3.639   8.474  1.7892 -0.7786  0.4608
   87CHL1  H27C 8918   3.400   3.510   8.381 -0.5483  0.7275  2.5911
   88CHL1    C3 8919   2.213   2.158   6.737  0.0805 -0.2534 -0.7839
   88CHL1    H3 8920   2.107   2.138   6.763  0.0148 -0.0505 -0.8890
   88CHL1    O3 8921   2.235   2.108   6.609  0.1905 -0.8249 -0.1053
   88CHL1   H3' 8922   2.325   2.119   6.578  0.0648 -1.9596 -0.9310
   88CHL1    C4 8923   2.235   2.306   6.745 -0.0490  0.1231 -0.3344
   88CHL1   H4A 8924   2.339   2.328   6.711  0.5030 -0.4359  0.8929
   88CHL1   H4B 8925   2.169   2.360   6.675 -0.9643 -0.5024  0.0305
   88CHL1    C5 8926   2.230   2.362   6.887 -0.5219  0.1714  0.5159
   88CHL1    C6 8927   2.151   2.470   6.919 -0.1569  0.2344  0.3788
   88CHL1    H6 8928   2.086   2.515   6.843 -1.7611 -1.9649  0.3549
   88CHL1    C7 8929   2.137   2.525   7.056  0.8573 -0.8781  0.3063
   88CHL1   H7A 8930   2.157   2.634   7.059  0.1626 -0.7563  3.2202
   88CHL1   H7B 8931   2.030   2.507   7.081  1.1843 -3.3325  0.2063
   88CHL1    C8 8932   2.222   2.454   7.163 -0.1457 -0.6653  0.8885
   88CHL1    H8 8933   2.316   2.513   7.166 -0.8718  1.0750 -3.1844
   88CHL1   C14 8934   2.154   2.473   7.296  0.6601  0.6554  0.2764
   88CHL1   H14 8935   2.057   2.418   7.289  1.4614 -1.0488  1.8527
   88CHL1   C15 8936   2.104   2.611   7.341 -0.2136  0.7655 -0.8304
   88CHL1  H15A 8937   2.185   2.684   7.319  0.9828 -0.3613 -0.2865
   88CHL1  H15B 8938   2.014   2.648   7.287 -0.9921 -0.8146 -0.6884
   88CHL1   C16 8939   2.085   2.598   7.489 -0.3369  0.5246 -0.6713
   88CHL1  H16A 8940   2.152   2.674   7.535 -1.3636  1.1921 -0.2416
   88CHL1  H16B 8941   1.981   2.619   7.523 -0.3361 -2.2474  1.4089
   88CHL1   C17 8942   2.131   2.456   7.528  0.4652  0.1288  0.2482
   88CHL1   H17 8943   2.043   2.392   7.508 -0.1082  0.7162  0.8525
   88CHL1   C13 8944   2.226   2.414   7.419  0.5552 -0.3049  0.5345
   88CHL1   C18 8945   2.362   2.493   7.442  0.0976  0.0774  0.0557
   88CHL1  H18A 8946   2.405   2.469   7.541 -1.7970  1.7253  1.3500
   88CHL1  H18B 8947   2.432   2.461   7.361 -0.3329  2.3729 -1.2841
   88CHL1  H18C 8948   2.348   2.602   7.433 -1.0082 -0.1030 -0.6272
   88CHL1   C12 8949   2.258   2.268   7.396  0.9634 -0.1300 -0.6415
   88CHL1  H12A 8950   2.320   2.229   7.480 -0.9300  0.5654  1.1731
   88CHL1  H12B 8951   2.156   2.230   7.418 -0.1702  2.6365 -0.7151
   88CHL1   C11 8952   2.320   2.245   7.255  0.1557  0.5406 -0.8273
   88CHL1  H11A 8953   2.421   2.289   7.266 -0.2363  1.9038 -2.2332
   88CHL1  H11B 8954   2.336   2.135   7.245  2.6224  0.8899 -1.3796
   88CHL1    C9 8955   2.248   2.305   7.136 -0.4482  0.1084  0.1563
   88CHL1    H9 8956   2.149   2.254   7.140  0.4604 -1.7718 -0.3098
   88CHL1   C10 8957   2.313   2.285   6.995 -0.3038 -0.2047  0.0100
   88CHL1   C19 8958   2.467   2.324   6.992  1.0475 -0.2464  0.3692
   88CHL1  H19A 8959   2.511   2.284   6.898 -1.8389  2.9039 -2.6164
   88CHL1  H19B 8960   2.471   2.435   6.986 -0.8011 -0.1957 -0.5367
   88CHL1  H19C 8961   2.522   2.301   7.086  0.1429 -1.5322  0.6060
   88CHL1    C1 8962   2.310   2.136   6.977  0.1582 -0.3159  0.3176
   88CHL1   H1A 8963   2.397   2.090   7.028 -0.2047  0.4226  1.6594
   88CHL1   H1B 8964   2.213   2.098   7.017  0.2335  2.0758  3.1619
   88CHL1    C2 8965   2.317   2.087   6.828  0.0346  0.3558 -0.1444
   88CHL1   H2A 8966   2.299   1.978   6.820  0.5968  0.2767 -0.3910
   88CHL1   H2B 8967   2.425   2.102   6.804  0.4152 -0.4412  0.9712
   88CHL1   C20 8968   2.175   2.424   7.673  0.1512  0.7994 -0.1614
   88CHL1   H20 8969   2.275   2.374   7.674 -0.0594  0.3604 -0.6940
   88CHL1   C21 8970   2.074   2.315   7.722  0.1643 -0.2471 -0.4223
   88CHL1  H21A 8971   2.081   2.232   7.649  3.0081  1.0398 -1.7878
   88CHL1  H21B 8972   1.972   2.356   7.734 -0.2103 -1.5350  1.2074
   88CHL1  H21C 8973   2.102   2.270   7.820 -3.1507 -2.3359 -0.2929
   88CHL1   C22 8974   2.197   2.557   7.759  0.8288 -0.0464 -0.4969
   88CHL1  H22A 8975   2.274   2.621   7.711  0.8217 -0.0318 -0.4891
   88CHL1  H22B 8976   2.101   2.613   7.759 -0.4462 -2.1062  0.5666
   88CHL1   C23 8977   2.228   2.527   7.907  0.3141 -1.0570  0.4440
   88CHL1  H23A 8978   2.151   2.452   7.937 -2.4888  1.0164 -1.0807
   88CHL1  H23B 8979   2.332   2.490   7.904  0.7207  0.0540  0.3404
   88CHL1   C24 8980   2.233   2.653   7.993  0.4497  0.4970 -0.6166
   88CHL1  H24A 8981   2.316   2.715   7.955 -0.2148  1.6704 -0.1948
   88CHL1  H24B 8982   2.138   2.708   7.978 -0.4527  0.4517  3.6909
   88CHL1   C25 8983   2.257   2.619   8.139 -0.1545  0.1279 -0.2631
   88CHL1   H25 8984   2.355   2.571   8.158 -0.2582  1.0147  3.1319
   88CHL1   C26 8985   2.256   2.759   8.209  0.2870  0.4907  0.1771
   88CHL1  H26A 8986   2.298   2.756   8.312  0.8650 -0.0025 -0.0668
   88CHL1  H26B 8987   2.329   2.824   8.156  2.6278 -0.6184  1.8013
   88CHL1  H26C 8988   2.152   2.792   8.189  0.6338  0.1931 -2.3371
   88CHL1   C27 8989   2.129   2.548   8.194 -0.3273 -0.0755  0.2693
   88CHL1  H27A 8990   2.040   2.614   8.186  0.7886  1.5960  1.0082
   88CHL1  H27B 8991   2.113   2.448   8.147  0.9243 -0.5684  0.8381
   88CHL1  H27C 8992   2.144   2.528   8.302 -1.2965  2.0040  0.8448
   89CHL1    C3 8993   4.029   5.912   6.890  0.3453 -0.4713  0.2571
   89CHL1    H3 8994   4.103   5.994   6.897  0.4584 -0.5681  0.2064
   89CHL1    O3 8995   4.053   5.866   6.757 -0.0607  0.0348  0.1833
   89CHL1   H3' 8996   3.977   5.814   6.730  0.8913 -0.7606 -1.0814
   89CHL1    C4 8997   4.037   5.801   6.998 -0.2189  0.2511 -0.1490
   89CHL1   H4A 8998   3.969   5.718   6.967 -2.1621  1.5421  0.4424
   89CHL1   H4B 8999   4.139   5.760   6.986  1.1132  3.4475 -0.6931
   89CHL1    C5 9000   4.000   5.859   7.135 -0.0754 -0.3248  1.0781
   89CHL1    C6 9001   4.086   5.858   7.235 -0.2150 -0.1157  0.3607
   89CHL1    H6 9002   4.181   5.806   7.217 -0.4630  0.0019 -1.4915
   89CHL1    C7 9003   4.055   5.902   7.374 -0.0946  0.1033 -0.7653
   89CHL1   H7A 9004   4.110   5.829   7.436  1.2315 -0.3078 -2.3726
   89CHL1   H7B 9005   4.102   6.003   7.386  1.7130 -0.7559 -0.3069
   89CHL1    C8 9006   3.904   5.923   7.400  0.2001 -0.3168 -0.3602
   89CHL1    H8 9007   3.850   5.826   7.407  0.1381 -0.2807 -0.3344
   89CHL1   C14 9008   3.899   6.008   7.529  0.9051  0.7764  0.1098
   89CHL1   H14 9009   3.938   6.107   7.497 -0.8276  1.1474 -1.0377
   89CHL1   C15 9010   3.983   5.970   7.645 -0.2146  0.2584  0.1982
   89CHL1  H15A 9011   3.979   5.862   7.669  2.6941  0.0420  0.0238
   89CHL1  H15B 9012   4.091   5.993   7.645 -0.1300  0.0138  2.0452
   89CHL1   C16 9013   3.915   6.057   7.760 -0.6646 -0.1778  0.5107
   89CHL1  H16A 9014   3.893   5.989   7.845  0.4631 -0.5009  0.5651
   89CHL1  H16B 9015   3.990   6.126   7.806 -1.3111  1.3521 -0.6601
   89CHL1   C17 9016   3.790   6.124   7.698  0.1588  0.0551  0.1729
   89CHL1   H17 9017   3.812   6.223   7.654 -2.8853  0.1791 -1.2657
   89CHL1   C13 9018   3.757   6.032   7.571 -0.8323 -0.0804  0.1924
   89CHL1   C18 9019   3.682   5.901   7.616  0.5349  0.6757  1.6923
   89CHL1  H18A 9020   3.749   5.819   7.649  0.6205  0.3453  0.7242
   89CHL1  H18B 9021   3.604   5.927   7.691 -1.0245  1.3963 -0.0961
   89CHL1  H18C 9022   3.639   5.855   7.525  2.3111  0.0775  1.1135
   89CHL1   C12 9023   3.683   6.109   7.460  0.1834  0.0724 -0.5592
   89CHL1  H12A 9024   3.576   6.091   7.483  0.3538  0.9600  1.0986
   89CHL1  H12B 9025   3.724   6.213   7.462 -0.9380  0.5298 -0.8870
   89CHL1   C11 9026   3.704   6.047   7.327 -0.1247  0.2049 -0.2236
   89CHL1  H11A 9027   3.648   5.951   7.320 -0.0263  0.1602 -0.4030
   89CHL1  H11B 9028   3.667   6.128   7.259  0.9932 -0.9475 -2.3107
   89CHL1    C9 9029   3.847   6.007   7.284 -1.2456 -0.4867  0.0752
   89CHL1    H9 9030   3.902   6.102   7.270  1.4887 -1.7461  1.4448
   89CHL1   C10 9031   3.868   5.937   7.149  0.1428  0.6365 -0.5421
   89CHL1   C19 9032   3.763   5.825   7.141  0.3765 -0.3729  0.1712
   89CHL1  H19A 9033   3.661   5.866   7.137  0.9632  1.1717  0.5276
   89CHL1  H19B 9034   3.766   5.768   7.045 -0.1638  0.9851 -0.6841
   89CHL1  H19C 9035   3.766   5.758   7.229 -2.1604 -1.6610 -0.6330
   89CHL1    C1 9036   3.864   6.037   7.033  0.8887 -0.1726  1.3730
   89CHL1   H1A 9037   3.761   6.079   7.030  0.2079 -1.7899  1.2627
   89CHL1   H1B 9038   3.943   6.113   7.056 -1.4995  2.5256  1.2425
   89CHL1    C2 9039   3.892   5.980   6.890  0.1907 -0.3478  0.0985
   89CHL1   H2A 9040   3.891   6.061   6.814 -0.2522  0.3724  0.8553
   89CHL1   H2B 9041   3.807   5.913   6.863  0.2203  0.0518 -1.0463
   89CHL1   C20 9042   3.685   6.151   7.804 -0.5376  0.1826 -0.8608
   89CHL1   H20 9043   3.657   6.062   7.864 -0.0523  0.9009  0.4710
   89CHL1   C21 9044   3.556   6.210   7.742 -0.1702  0.1581  0.8481
   89CHL1  H21A 9045   3.585   6.308   7.700 -1.6108  0.1389 -0.2832
   89CHL1  H21B 9046   3.478   6.236   7.816 -1.3679  0.5791 -0.5154
   89CHL1  H21C 9047   3.507   6.143   7.668  4.8891 -0.2456 -2.6922
   89CHL1   C22 9048   3.738   6.248   7.913  0.6523  0.2756  0.1817
   89CHL1  H22A 9049   3.847   6.267   7.900  1.3893 -3.6707 -0.6807
   89CHL1  H22B 9050   3.695   6.350   7.900 -2.7900 -0.9423  1.0200
   89CHL1   C23 9051   3.707   6.211   8.056  0.0801 -0.2574  0.2187
   89CHL1  H23A 9052   3.599   6.185   8.054 -0.7194  2.6867 -2.0797
   89CHL1  H23B 9053   3.773   6.134   8.101  1.0943  1.5457  1.9779
   89CHL1   C24 9054   3.725   6.337   8.148 -0.4627  0.3353  0.5635
   89CHL1  H24A 9055   3.832   6.366   8.145 -0.2858 -0.3552 -1.3627
   89CHL1  H24B 9056   3.666   6.416   8.096  0.2266 -0.5619 -1.7452
   89CHL1   C25 9057   3.671   6.305   8.285  0.2128 -0.2900  0.2445
   89CHL1   H25 9058   3.725   6.213   8.314 -1.7435 -1.7701 -0.5956
   89CHL1   C26 9059   3.708   6.415   8.383 -0.3658 -0.8521  0.0407
   89CHL1  H26A 9060   3.654   6.507   8.354 -2.0343 -1.0839  2.1550
   89CHL1  H26B 9061   3.676   6.389   8.486  0.2970  1.1514  0.8130
   89CHL1  H26C 9062   3.818   6.431   8.378 -0.4006 -0.4092  0.5553
   89CHL1   C27 9063   3.513   6.283   8.285 -0.2339 -1.0832 -0.3098
   89CHL1  H27A 9064   3.478   6.258   8.388  2.4705 -2.8879  0.2914
   89CHL1  H27B 9065   3.462   6.372   8.244 -1.6686 -1.3417  0.8525
   89CHL1  H27C 9066   3.486   6.201   8.215 -0.1426 -1.4573  0.0889
   90CHL1    C3 9067   1.052   2.283   7.061 -0.0294 -0.1615 -0.2044
   90CHL1    H3 9068   1.097   2.384   7.063 -1.1154  0.3254  0.3615
   90CHL1    O3 9069   1.072   2.223   6.934 -0.8051  0.8280 -0.1598
   90CHL1   H3' 9070   1.056   2.286   6.863  2.3312 -2.0348 -3.9207
   90CHL1    C4 9071   1.107   2.194   7.173  0.5255  0.5785  0.1898
   90CHL1   H4A 9072   1.053   2.098   7.155  0.1039  0.4531  1.9451
   90CHL1   H4B 9073   1.216   2.184   7.155  0.2987 -0.3746 -0.8063
   90CHL1    C5 9074   1.076   2.237   7.322  0.4251 -0.1360 -0.0759
   90CHL1    C6 9075   1.166   2.262   7.414  0.6777 -0.9043 -0.0522
   90CHL1    H6 9076   1.272   2.252   7.387  1.0583  1.6395  0.1768
   90CHL1    C7 9077   1.157   2.316   7.552 -0.1494  0.0024  0.3954
   90CHL1   H7A 9078   1.226   2.263   7.621  1.8480 -0.7999 -2.0655
   90CHL1   H7B 9079   1.190   2.422   7.540 -1.0728  0.0572 -2.1327
   90CHL1    C8 9080   1.014   2.307   7.593 -0.1918 -0.2995  0.2409
   90CHL1    H8 9081   0.989   2.204   7.625  0.3309 -0.0733  1.4555
   90CHL1   C14 9082   0.983   2.387   7.723 -0.7757  0.7001 -0.5944
   90CHL1   H14 9083   1.007   2.492   7.697 -0.6888  0.9522  0.4574
   90CHL1   C15 9084   1.066   2.356   7.844  0.5638 -0.0305 -0.3599
   90CHL1  H15A 9085   1.055   2.249   7.870  0.7027  0.5953  2.6443
   90CHL1  H15B 9086   1.170   2.393   7.829 -0.2205  1.9791 -1.2600
   90CHL1   C16 9087   0.994   2.428   7.962 -0.5793 -1.0699  0.3078
   90CHL1  H16A 9088   0.978   2.363   8.050  0.6265 -1.0793  0.5330
   90CHL1  H16B 9089   1.053   2.515   7.997  0.8146 -1.7074 -0.3544
   90CHL1   C17 9090   0.857   2.479   7.896  0.0636 -0.4785  0.1002
   90CHL1   H17 9091   0.886   2.582   7.865  0.7609 -0.2020  1.6037
   90CHL1   C13 9092   0.841   2.395   7.764 -0.0782  0.4987 -0.0474
   90CHL1   C18 9093   0.786   2.248   7.796  0.4380  0.4107 -0.1939
   90CHL1  H18A 9094   0.833   2.201   7.885  1.2942  1.9154  0.1931
   90CHL1  H18B 9095   0.676   2.258   7.811  0.7697  2.6962  1.2255
   90CHL1  H18C 9096   0.800   2.187   7.705  1.6703  1.5560 -0.8096
   90CHL1   C12 9097   0.752   2.456   7.656 -0.2063 -0.9240  0.1707
   90CHL1  H12A 9098   0.647   2.466   7.691 -0.5585 -1.8186 -0.5853
   90CHL1  H12B 9099   0.784   2.562   7.645  2.8355 -1.7119  0.6074
   90CHL1   C11 9100   0.768   2.378   7.529  0.5199  0.0223  0.9811
   90CHL1  H11A 9101   0.712   2.282   7.533  0.3782  0.1273  1.5167
   90CHL1  H11B 9102   0.711   2.423   7.444  1.9531  1.8958  0.9554
   90CHL1    C9 9103   0.922   2.353   7.479 -0.0687 -0.0603  0.7760
   90CHL1    H9 9104   0.954   2.456   7.454  0.6560  0.0174  1.9714
   90CHL1   C10 9105   0.930   2.275   7.349  0.5859 -0.4335 -0.3678
   90CHL1   C19 9106   0.848   2.144   7.369 -0.0103 -0.0265 -0.1038
   90CHL1  H19A 9107   0.869   2.072   7.287 -1.9039 -0.6374 -0.1035
   90CHL1  H19B 9108   0.859   2.079   7.459 -1.3172 -1.0448 -0.6590
   90CHL1  H19C 9109   0.741   2.173   7.366 -0.6139 -1.7799  1.7333
   90CHL1    C1 9110   0.878   2.358   7.230 -0.2729  0.4574  0.3189
   90CHL1   H1A 9111   0.767   2.371   7.231 -0.5429 -1.1774 -1.4701
   90CHL1   H1B 9112   0.931   2.455   7.235  0.1591  0.2342  0.0491
   90CHL1    C2 9113   0.902   2.294   7.089 -0.9542 -0.4146  0.7772
   90CHL1   H2A 9114   0.856   2.364   7.016 -0.2565 -0.2847  0.4512
   90CHL1   H2B 9115   0.865   2.190   7.081 -0.1314 -0.6789  0.2747
   90CHL1   C20 9116   0.725   2.486   7.982 -0.0274 -0.4873  0.7093
   90CHL1   H20 9117   0.628   2.476   7.928 -0.7563  1.0163  1.6794
   90CHL1   C21 9118   0.716   2.643   8.022 -0.2788 -0.5442  0.4165
   90CHL1  H21A 9119   0.713   2.691   7.921 -1.8165 -1.5402 -0.0479
   90CHL1  H21B 9120   0.793   2.682   8.092  0.8389 -0.0507 -1.0291
   90CHL1  H21C 9121   0.612   2.655   8.060 -0.0062  0.4397  0.8813
   90CHL1   C22 9122   0.733   2.395   8.105 -0.1906  0.0991 -0.5989
   90CHL1  H22A 9123   0.743   2.287   8.081 -2.6558 -0.6516  1.3233
   90CHL1  H22B 9124   0.808   2.436   8.176 -1.2502  0.8189  0.1293
   90CHL1   C23 9125   0.599   2.391   8.187  0.0920 -0.4508  0.0487
   90CHL1  H23A 9126   0.569   2.488   8.233 -0.4920 -0.2052 -0.8199
   90CHL1  H23B 9127   0.517   2.356   8.119  0.2698  0.1889 -0.5103
   90CHL1   C24 9128   0.604   2.285   8.301 -0.2849  0.0959 -0.0858
   90CHL1  H24A 9129   0.648   2.194   8.255  0.9927  0.6042  0.0803
   90CHL1  H24B 9130   0.668   2.314   8.387 -1.3505 -1.0675  1.1414
   90CHL1   C25 9131   0.465   2.254   8.351 -0.4014  0.1000  0.2415
   90CHL1   H25 9132   0.401   2.230   8.264  1.0059  3.2316 -1.8198
   90CHL1   C26 9133   0.471   2.143   8.458 -0.0954 -0.0885 -0.3992
   90CHL1  H26A 9134   0.540   2.060   8.431 -0.5498 -0.2408 -1.1070
   90CHL1  H26B 9135   0.510   2.188   8.552  1.3724 -0.1424 -0.9577
   90CHL1  H26C 9136   0.370   2.104   8.482 -1.1373  1.1453 -2.5667
   90CHL1   C27 9137   0.399   2.372   8.422  0.6773  0.0293  0.1293
   90CHL1  H27A 9138   0.295   2.349   8.456  1.3457 -1.3780  1.3118
   90CHL1  H27B 9139   0.447   2.424   8.506 -2.2665 -0.6745  2.4291
   90CHL1  H27C 9140   0.379   2.456   8.352 -0.6615  1.3517  2.0065
   91CHL1    C3 9141   4.867   3.692   7.353 -0.1387  0.3166 -0.1746
   91CHL1    H3 9142   4.758   3.681   7.336  0.0760  0.0285 -1.4524
   91CHL1    O3 9143   4.924   3.637   7.233 -0.0483  0.0705  0.4190
   91CHL1   H3' 9144   4.973   3.558   7.258  0.1752  0.8983  2.8754
   91CHL1    C4 9145   4.898   3.845   7.365 -0.1019  0.0229  0.1355
   91CHL1   H4A 9146   5.007   3.865   7.369 -0.1794  0.7647 -0.9616
   91CHL1   H4B 9147   4.870   3.896   7.270 -0.5170 -1.4604 -0.5754
   91CHL1    C5 9148   4.827   3.898   7.484  0.0314  0.3931 -0.3344
   91CHL1    C6 9149   4.745   4.005   7.471  0.3807 -0.8112 -0.1430
   91CHL1    H6 9150   4.725   4.049   7.373  1.5885 -2.3039 -1.1052
   91CHL1    C7 9151   4.681   4.069   7.587 -0.2656  0.1716 -0.3361
   91CHL1   H7A 9152   4.686   4.180   7.600  0.5219  0.1938 -0.7861
   91CHL1   H7B 9153   4.575   4.036   7.597  0.3143 -1.6956 -0.0747
   91CHL1    C8 9154   4.747   4.027   7.725 -0.6376 -0.3648 -0.3590
   91CHL1    H8 9155   4.843   4.083   7.723 -2.7398  3.6378  0.9099
   91CHL1   C14 9156   4.672   4.080   7.844 -0.2216 -1.0427 -0.3014
   91CHL1   H14 9157   4.570   4.036   7.837 -0.7869 -0.2083  1.7664
   91CHL1   C15 9158   4.646   4.232   7.846 -0.2676 -0.3808  0.7853
   91CHL1  H15A 9159   4.746   4.273   7.824  0.2351 -1.9223  0.0514
   91CHL1  H15B 9160   4.570   4.272   7.776  0.3471 -2.5758 -1.2795
   91CHL1   C16 9161   4.616   4.262   7.997  0.1401 -0.8728 -1.1326
   91CHL1  H16A 9162   4.684   4.349   8.012 -0.9488  0.0154 -1.2772
   91CHL1  H16B 9163   4.512   4.298   8.014  1.1524  1.2728  1.3685
   91CHL1   C17 9164   4.641   4.135   8.074  0.4743  0.1111  0.1364
   91CHL1   H17 9165   4.539   4.092   8.072  0.3266  0.3301 -3.4083
   91CHL1   C13 9166   4.728   4.045   7.978 -0.1935 -0.2471  0.2855
   91CHL1   C18 9167   4.877   4.095   7.997  0.5619  0.1187  0.2693
   91CHL1  H18A 9168   4.935   4.056   7.910 -3.0842 -1.7629 -1.5554
   91CHL1  H18B 9169   4.876   4.206   8.008 -0.0519  0.0921  0.5260
   91CHL1  H18C 9170   4.916   4.052   8.091  3.3615  1.5935 -0.1002
   91CHL1   C12 9171   4.723   3.892   7.988  0.6944  0.0478 -0.0639
   91CHL1  H12A 9172   4.754   3.864   8.091 -1.5381 -0.3333  0.5661
   91CHL1  H12B 9173   4.614   3.872   7.977  0.7157  0.0777 -0.3462
   91CHL1   C11 9174   4.811   3.822   7.881  0.3651 -0.4479  0.0666
   91CHL1  H11A 9175   4.915   3.848   7.911  0.2513 -0.0927  0.1561
   91CHL1  H11B 9176   4.811   3.710   7.881  2.3351 -0.5240 -2.0781
   91CHL1    C9 9177   4.774   3.873   7.736 -1.3719 -0.0197 -0.1198
   91CHL1    H9 9178   4.668   3.843   7.723 -2.1325  2.4738 -0.2271
   91CHL1   C10 9179   4.861   3.819   7.618  1.1418  0.0388 -0.2792
   91CHL1   C19 9180   5.020   3.848   7.653 -0.1911  0.7601  0.8640
   91CHL1  H19A 9181   5.090   3.821   7.571 -2.3219 -1.5138 -0.3532
   91CHL1  H19B 9182   5.040   3.952   7.685 -0.4616  1.8904 -2.3240
   91CHL1  H19C 9183   5.046   3.788   7.743  0.9774  1.0773  0.7590
   91CHL1    C1 9184   4.828   3.676   7.598 -0.4200  0.1765  0.0062
   91CHL1   H1A 9185   4.841   3.619   7.692  0.1523 -1.4970 -1.0549
   91CHL1   H1B 9186   4.720   3.658   7.579  0.2509 -3.0607 -1.3198
   91CHL1    C2 9187   4.913   3.619   7.482 -0.0981  0.7193 -0.3537
   91CHL1   H2A 9188   4.902   3.508   7.477  2.8868  0.0183  3.3748
   91CHL1   H2B 9189   5.022   3.636   7.497  0.3083 -1.9631  0.3779
   91CHL1   C20 9190   4.694   4.137   8.224 -0.3146 -0.3725  0.7522
   91CHL1   H20 9191   4.771   4.061   8.246  0.2769 -0.5609 -1.6440
   91CHL1   C21 9192   4.570   4.106   8.314 -0.0319  0.3025  0.3335
   91CHL1  H21A 9193   4.537   4.005   8.282 -1.3818  1.3395 -1.8085
   91CHL1  H21B 9194   4.494   4.186   8.301 -2.0869 -1.9485 -3.0862
   91CHL1  H21C 9195   4.604   4.099   8.419  2.9823  3.3326 -0.2473
   91CHL1   C22 9196   4.763   4.273   8.267  0.4204  0.6369  0.5980
   91CHL1  H22A 9197   4.824   4.319   8.186 -0.0634  0.2835  0.0194
   91CHL1  H22B 9198   4.678   4.344   8.277  0.0008  0.2456 -0.0641
   91CHL1   C23 9199   4.846   4.269   8.396 -1.1149 -0.3550 -1.0519
   91CHL1  H23A 9200   4.780   4.246   8.482 -0.9430 -1.4814 -1.2163
   91CHL1  H23B 9201   4.900   4.173   8.388 -0.5860 -0.2361  0.5689
   91CHL1   C24 9202   4.959   4.384   8.417  0.1571  0.4338 -0.3115
   91CHL1  H24A 9203   5.016   4.370   8.511 -0.3091  3.6727  0.5642
   91CHL1  H24B 9204   5.038   4.380   8.339  0.5429 -0.4613  0.1137
   91CHL1   C25 9205   4.913   4.536   8.405 -0.2455 -0.1301 -0.3119
   91CHL1   H25 9206   4.860   4.553   8.309  2.2178  1.1465 -1.5616
   91CHL1   C26 9207   4.816   4.580   8.525  0.6644  0.1703 -0.7585
   91CHL1  H26A 9208   4.861   4.550   8.622  1.0118  0.1786 -0.9184
   91CHL1  H26B 9209   4.805   4.690   8.534 -0.2184 -0.0675  2.3974
   91CHL1  H26C 9210   4.715   4.534   8.518  0.3477  0.5183  0.9705
   91CHL1   C27 9211   5.037   4.627   8.401  0.2834 -0.6165 -0.6760
   91CHL1  H27A 9212   5.003   4.731   8.420  1.9069 -0.2586  0.4557
   91CHL1  H27B 9213   5.115   4.587   8.470  0.1605  1.5752  0.8184
   91CHL1  H27C 9214   5.086   4.636   8.301  0.3865  2.2417 -0.4485
   92CHL1    C3 9215   5.056   5.218   6.878  0.2526  0.3244 -0.2159
   92CHL1    H3 9216   5.160   5.184   6.897  0.0907 -0.0038  0.0883
   92CHL1    O3 9217   5.011   5.188   6.749  0.0874  0.3544 -0.3596
   92CHL1   H3' 9218   5.021   5.093   6.744 -1.3204  0.2391 -2.3444
   92CHL1    C4 9219   4.978   5.124   6.971  0.3149  0.3587  0.0827
   92CHL1   H4A 9220   4.870   5.133   6.946 -0.2664  0.5586  2.4303
   92CHL1   H4B 9221   5.000   5.019   6.942 -2.0046  0.0748 -0.8976
   92CHL1    C5 9222   4.994   5.153   7.119  0.4484 -0.0656  0.1254
   92CHL1    C6 9223   5.033   5.055   7.202 -0.3419 -0.4344 -0.5031
   92CHL1    H6 9224   5.057   4.955   7.162 -0.4572 -0.4796 -0.4614
   92CHL1    C7 9225   5.052   5.072   7.350  0.7216  0.8117  0.3720
   92CHL1   H7A 9226   5.002   4.987   7.402 -0.0028  0.7414 -0.4205
   92CHL1   H7B 9227   5.161   5.081   7.369  1.0768  0.7827 -1.5311
   92CHL1    C8 9228   4.973   5.201   7.399  0.1888  0.6046  0.2918
   92CHL1    H8 9229   4.864   5.181   7.404  0.3471 -0.2411  0.6146
   92CHL1   C14 9230   4.996   5.237   7.541 -0.6266  0.4195 -0.2618
   92CHL1   H14 9231   5.102   5.271   7.549 -1.0463  1.4854  1.5803
   92CHL1   C15 9232   4.990   5.128   7.654  0.9668  0.0690 -1.4060
   92CHL1  H15A 9233   4.890   5.080   7.652 -0.1777  2.3114 -1.1752
   92CHL1  H15B 9234   5.066   5.048   7.640  1.6013  0.5968 -1.0445
   92CHL1   C16 9235   4.989   5.203   7.784 -0.6795 -1.2374  0.6590
   92CHL1  H16A 9236   4.902   5.165   7.843 -1.8221  1.6618  0.9783
   92CHL1  H16B 9237   5.065   5.192   7.864  0.0959  0.6569  0.2231
   92CHL1   C17 9238   4.972   5.354   7.739  0.4501  0.2601  0.8685
   92CHL1   H17 9239   5.072   5.403   7.740  0.7179 -0.1726 -1.3163
   92CHL1   C13 9240   4.921   5.355   7.593  0.3316 -0.0752 -0.4986
   92CHL1   C18 9241   4.765   5.334   7.594  0.1324 -0.1078  0.3566
   92CHL1  H18A 9242   4.734   5.287   7.499  0.9690  1.3855 -0.6977
   92CHL1  H18B 9243   4.743   5.255   7.669 -0.9387 -1.3931 -1.2672
   92CHL1  H18C 9244   4.706   5.423   7.624 -1.5524 -1.4027  1.0364
   92CHL1   C12 9245   4.964   5.476   7.514  0.2984  0.5302  0.3481
   92CHL1  H12A 9246   4.920   5.575   7.541  0.0865  0.3613  0.6306
   92CHL1  H12B 9247   5.074   5.487   7.511  0.3869 -0.3746 -1.4714
   92CHL1   C11 9248   4.933   5.454   7.368  0.3217 -0.4596  0.3565
   92CHL1  H11A 9249   4.823   5.447   7.353  0.2437  2.4551 -1.1203
   92CHL1  H11B 9250   4.973   5.536   7.306  0.3331 -0.5471  0.2471
   92CHL1    C9 9251   4.995   5.322   7.307 -0.5927 -0.0262  0.4108
   92CHL1    H9 9252   5.105   5.338   7.304 -0.6469  0.5246  1.2736
   92CHL1   C10 9253   4.967   5.297   7.162  0.7004 -0.8789 -0.5481
   92CHL1   C19 9254   4.809   5.319   7.138 -0.0459  0.4496  0.2183
   92CHL1  H19A 9255   4.789   5.286   7.033  0.2952 -0.2772  0.3729
   92CHL1  H19B 9256   4.748   5.257   7.207  0.7920  0.7205  1.2212
   92CHL1  H19C 9257   4.776   5.425   7.143 -2.0099 -0.0983 -0.1674
   92CHL1    C1 9258   5.044   5.396   7.065  0.6460 -0.3560  0.2540
   92CHL1   H1A 9259   5.028   5.504   7.090  1.8549 -0.0783 -0.1078
   92CHL1   H1B 9260   5.147   5.363   7.089  0.5498 -1.1866 -0.4488
   92CHL1    C2 9261   5.028   5.368   6.915  0.8396  0.0443  0.0499
   92CHL1   H2A 9262   5.116   5.421   6.872  1.0919  0.7908  1.4347
   92CHL1   H2B 9263   4.932   5.411   6.879  2.2111  2.5276 -0.9219
   92CHL1   C20 9264   4.876   5.436   7.842  0.4265 -0.0459  0.1972
   92CHL1   H20 9265   4.768   5.408   7.849 -0.4529  2.0908 -2.6691
   92CHL1   C21 9266   4.861   5.587   7.805  0.1272 -0.0483 -0.7867
   92CHL1  H21A 9267   4.957   5.626   7.767 -0.0398 -1.9309 -3.4756
   92CHL1  H21B 9268   4.809   5.647   7.883  2.9963  0.8273  0.5900
   92CHL1  H21C 9269   4.797   5.583   7.714 -0.4388 -2.0246 -0.3554
   92CHL1   C22 9270   4.935   5.434   7.985  0.0538  0.4543 -0.0593
   92CHL1  H22A 9271   4.949   5.329   8.019 -0.0266  0.3825 -0.2526
   92CHL1  H22B 9272   5.037   5.479   7.984 -0.4525  1.6718  0.5875
   92CHL1   C23 9273   4.854   5.494   8.102 -0.1020  1.1962  0.3139
   92CHL1  H23A 9274   4.832   5.602   8.093  0.6223  1.7518  3.6765
   92CHL1  H23B 9275   4.766   5.426   8.109  0.5894  0.3038  0.7109
   92CHL1   C24 9276   4.950   5.495   8.233 -0.0302 -0.2282  0.4848
   92CHL1  H24A 9277   4.974   5.386   8.238 -2.7550 -1.1279 -2.3082
   92CHL1  H24B 9278   5.040   5.557   8.214  1.1621 -1.1642  2.7077
   92CHL1   C25 9279   4.877   5.542   8.364 -0.9333 -0.0463 -0.2940
   92CHL1   H25 9280   4.843   5.646   8.342  0.6334  0.9140  1.5313
   92CHL1   C26 9281   4.756   5.463   8.397 -0.1441 -0.4176  0.3110
   92CHL1  H26A 9282   4.678   5.462   8.317 -0.7319 -1.8457  0.8710
   92CHL1  H26B 9283   4.789   5.359   8.416  2.9738  0.2682 -0.7984
   92CHL1  H26C 9284   4.708   5.504   8.488 -0.3292 -1.0579  0.5096
   92CHL1   C27 9285   4.977   5.541   8.480 -0.1039  0.6418  0.0539
   92CHL1  H27A 9286   4.922   5.556   8.575 -2.9891 -0.5728 -1.2902
   92CHL1  H27B 9287   5.035   5.448   8.497 -0.3165  0.2325 -1.3021
   92CHL1  H27C 9288   5.054   5.619   8.464  0.8402 -0.0850  0.9674
   93CHL1    C3 9289   6.639   2.229   7.100  0.0545  0.7546 -0.7360
   93CHL1    H3 9290   6.531   2.216   7.122 -0.1561  3.0455 -0.1212
   93CHL1    O3 9291   6.663   2.267   6.967  0.1350 -0.3548  0.4672
   93CHL1   H3' 9292   6.755   2.255   6.946 -0.1663 -0.3191 -0.9704
   93CHL1    C4 9293   6.694   2.337   7.194  0.3552  0.0931 -0.4360
   93CHL1   H4A 9294   6.804   2.332   7.176  0.4757 -0.0045  0.2859
   93CHL1   H4B 9295   6.646   2.430   7.157 -1.5970 -0.2707  0.9985
   93CHL1    C5 9296   6.670   2.304   7.337 -0.0054 -0.6611 -0.1317
   93CHL1    C6 9297   6.603   2.386   7.424  0.1909 -0.1616 -0.6981
   93CHL1    H6 9298   6.561   2.480   7.387 -1.0309 -1.0698 -1.7079
   93CHL1    C7 9299   6.602   2.369   7.571  0.4476  0.3093 -0.3802
   93CHL1   H7A 9300   6.634   2.451   7.638 -1.2072  0.3540  0.3982
   93CHL1   H7B 9301   6.497   2.357   7.605  1.2370 -0.2691  2.1361
   93CHL1    C8 9302   6.663   2.226   7.628 -0.1383 -0.1679  0.6284
   93CHL1    H8 9303   6.770   2.243   7.650 -0.4661  0.5784  1.7190
   93CHL1   C14 9304   6.581   2.171   7.743 -0.2653 -0.5606 -0.9479
   93CHL1   H14 9305   6.481   2.162   7.696 -0.1480 -0.0291 -1.3127
   93CHL1   C15 9306   6.554   2.274   7.858 -0.3232 -0.2816  1.1111
   93CHL1  H15A 9307   6.652   2.321   7.879  0.8756 -0.2805 -3.4684
   93CHL1  H15B 9308   6.484   2.355   7.829  1.1520  1.2712  1.7473
   93CHL1   C16 9309   6.505   2.185   7.972  0.1070  0.2240 -0.2556
   93CHL1  H16A 9310   6.565   2.199   8.065 -1.4249 -0.5324  0.8712
   93CHL1  H16B 9311   6.401   2.212   7.997  0.4953  1.5032  0.0702
   93CHL1   C17 9312   6.519   2.043   7.924  0.9410 -0.2713 -0.4043
   93CHL1   H17 9313   6.421   2.014   7.879  0.8047 -0.2799 -0.1045
   93CHL1   C13 9314   6.628   2.042   7.814  0.1605 -0.1374  0.3790
   93CHL1   C18 9315   6.773   2.048   7.876  0.0530 -0.0950 -0.4467
   93CHL1  H18A 9316   6.756   2.118   7.961 -1.4430  3.0554 -3.1258
   93CHL1  H18B 9317   6.798   1.943   7.900  0.2377 -0.5202 -2.3543
   93CHL1  H18C 9318   6.856   2.088   7.814 -0.8151 -0.0262 -1.6177
   93CHL1   C12 9319   6.623   1.927   7.705 -0.1232 -0.2006 -0.8398
   93CHL1  H12A 9320   6.650   1.830   7.751 -0.7606  1.3434  3.1425
   93CHL1  H12B 9321   6.520   1.906   7.667 -0.5025 -0.1137  0.1028
   93CHL1   C11 9322   6.714   1.972   7.586  0.5862 -0.4575  0.2347
   93CHL1  H11A 9323   6.819   1.979   7.620  0.7976 -1.1226 -0.2617
   93CHL1  H11B 9324   6.712   1.896   7.504  0.9897 -1.9687  1.5759
   93CHL1    C9 9325   6.658   2.111   7.525 -0.0703  0.1932  0.6436
   93CHL1    H9 9326   6.549   2.095   7.512 -0.0670 -1.8936  2.6740
   93CHL1   C10 9327   6.714   2.158   7.381  0.4147 -0.6760  0.2918
   93CHL1   C19 9328   6.865   2.156   7.388  0.2335 -0.6102  0.1359
   93CHL1  H19A 9329   6.907   2.211   7.475  2.6359 -0.6631 -0.9291
   93CHL1  H19B 9330   6.885   2.049   7.408 -2.1366 -1.3150 -0.8921
   93CHL1  H19C 9331   6.914   2.183   7.292  0.5303  0.7976  0.6661
   93CHL1    C1 9332   6.675   2.050   7.273 -0.0955  0.3196  0.3206
   93CHL1   H1A 9333   6.732   1.956   7.286  0.2756  0.4884 -0.0989
   93CHL1   H1B 9334   6.566   2.027   7.281 -0.6776  1.2284 -3.2635
   93CHL1    C2 9335   6.707   2.089   7.129  0.5305  0.2689 -0.2664
   93CHL1   H2A 9336   6.680   2.007   7.059  0.6080 -2.4809  2.6795
   93CHL1   H2B 9337   6.817   2.098   7.127  0.6720 -0.8365  1.0158
   93CHL1   C20 9338   6.536   1.952   8.046  0.0648  0.2404 -0.0691
   93CHL1   H20 9339   6.625   1.991   8.099 -0.8696  2.6797 -0.1425
   93CHL1   C21 9340   6.553   1.804   8.000 -0.2454  0.4492 -0.2903
   93CHL1  H21A 9341   6.653   1.783   7.956 -0.0539  1.0276 -0.1344
   93CHL1  H21B 9342   6.484   1.776   7.917 -0.0713 -1.7551  0.2507
   93CHL1  H21C 9343   6.543   1.727   8.079 -0.7355  0.2596 -0.5290
   93CHL1   C22 9344   6.422   1.960   8.153  0.5345  0.4800  0.1712
   93CHL1  H22A 9345   6.380   2.062   8.166 -0.5684  0.2134 -1.0886
   93CHL1  H22B 9346   6.341   1.893   8.115 -0.4401  1.5438  0.3204
   93CHL1   C23 9347   6.465   1.909   8.296  0.0705 -0.5777 -0.0129
   93CHL1  H23A 9348   6.493   1.801   8.287  1.3402 -0.3202  0.5652
   93CHL1  H23B 9349   6.563   1.954   8.322 -0.6572  0.9412  0.1591
   93CHL1   C24 9350   6.363   1.930   8.409 -0.5247 -0.8779 -0.0410
   93CHL1  H24A 9351   6.346   2.039   8.409 -1.4896 -1.0121 -1.4282
   93CHL1  H24B 9352   6.277   1.864   8.384 -1.3988  0.8535 -1.7696
   93CHL1   C25 9353   6.394   1.870   8.553 -0.9924  0.1133  0.0827
   93CHL1   H25 9354   6.419   1.762   8.552 -0.0292  0.3268  0.0474
   93CHL1   C26 9355   6.511   1.932   8.622  0.0895  0.2364 -0.7610
   93CHL1  H26A 9356   6.520   1.891   8.725 -1.9419  0.8364 -0.3110
   93CHL1  H26B 9357   6.601   1.923   8.557 -0.2144 -3.2820 -0.8863
   93CHL1  H26C 9358   6.491   2.039   8.644 -2.3332 -0.5611  1.3308
   93CHL1   C27 9359   6.265   1.888   8.643  0.0548  0.6038  0.2902
   93CHL1  H27A 9360   6.246   1.997   8.657  1.1091  0.8104  0.2309
   93CHL1  H27B 9361   6.177   1.844   8.592 -0.4518  2.3057 -0.3639
   93CHL1  H27C 9362   6.289   1.837   8.739  0.8053  0.0271 -0.1866
   94CHL1    C3 9363   3.015   1.647   6.694 -0.1459  0.4871  0.4063
   94CHL1    H3 9364   2.951   1.736   6.711  1.6746  2.3158 -1.6468
   94CHL1    O3 9365   3.052   1.634   6.560  0.4540 -0.4949  0.1866
   94CHL1   H3' 9366   3.051   1.724   6.526  1.0358 -0.7930 -0.6480
   94CHL1    C4 9367   3.139   1.644   6.775 -0.0022 -1.0635 -0.5365
   94CHL1   H4A 9368   3.188   1.546   6.753  0.6191 -1.2042  1.3050
   94CHL1   H4B 9369   3.211   1.721   6.740  0.9544 -2.0953 -0.8917
   94CHL1    C5 9370   3.123   1.646   6.928  0.2581 -0.4310  0.3148
   94CHL1    C6 9371   3.159   1.752   6.996 -0.7799  0.4381  0.6488
   94CHL1    H6 9372   3.211   1.834   6.944 -0.8165 -0.2328 -0.4735
   94CHL1    C7 9373   3.127   1.778   7.136  0.5237 -0.4285 -0.3035
   94CHL1   H7A 9374   3.206   1.821   7.200 -0.5131  0.9638  0.0962
   94CHL1   H7B 9375   3.053   1.861   7.134  2.1677  1.1208  0.9449
   94CHL1    C8 9376   3.064   1.660   7.210  0.2995 -0.2599 -0.4098
   94CHL1    H8 9377   3.142   1.586   7.239  1.7052  1.2609 -0.1610
   94CHL1   C14 9378   2.994   1.712   7.334  0.5523  0.2083 -0.2522
   94CHL1   H14 9379   2.917   1.787   7.305  1.6762  1.6919  0.4715
   94CHL1   C15 9380   3.076   1.790   7.438  0.2248 -0.1193  0.4842
   94CHL1  H15A 9381   3.167   1.732   7.464  1.3812  0.2600 -2.3161
   94CHL1  H15B 9382   3.095   1.896   7.410  0.1503  0.4048  2.3118
   94CHL1   C16 9383   2.974   1.800   7.557 -0.5679 -0.2109  0.9910
   94CHL1  H16A 9384   3.023   1.770   7.652 -0.1865  1.1879  1.2471
   94CHL1  H16B 9385   2.933   1.903   7.553  0.5347  0.3001  2.3021
   94CHL1   C17 9386   2.859   1.690   7.535 -0.1423 -0.1492  0.0626
   94CHL1   H17 9387   2.768   1.744   7.502 -1.1401 -2.5456 -1.4100
   94CHL1   C13 9388   2.909   1.613   7.410 -0.7382  0.1358 -0.8167
   94CHL1   C18 9389   3.006   1.504   7.464  0.2707 -0.2475 -0.6256
   94CHL1  H18A 9390   2.947   1.424   7.512  1.4022 -0.9871 -0.4380
   94CHL1  H18B 9391   3.064   1.461   7.380  0.1599 -1.3526 -0.1440
   94CHL1  H18C 9392   3.078   1.548   7.536 -0.7945  1.0429 -0.2978
   94CHL1   C12 9393   2.803   1.553   7.315 -0.3656 -0.1574  0.4149
   94CHL1  H12A 9394   2.732   1.477   7.356  1.7653 -2.9065 -0.7064
   94CHL1  H12B 9395   2.741   1.635   7.275 -0.4578  0.0313  0.9398
   94CHL1   C11 9396   2.869   1.498   7.185  0.2175  0.1872 -0.2700
   94CHL1  H11A 9397   2.922   1.406   7.218  0.4244  0.3007 -0.2827
   94CHL1  H11B 9398   2.784   1.472   7.120 -1.2853 -0.0297  1.6877
   94CHL1    C9 9399   2.965   1.596   7.117  0.0449  0.4104 -0.0947
   94CHL1    H9 9400   2.902   1.680   7.083  1.7347  1.0803 -1.6852
   94CHL1   C10 9401   3.023   1.547   6.982  0.3564  0.2913 -0.0894
   94CHL1   C19 9402   3.108   1.417   7.003 -1.1558  0.1466 -0.1256
   94CHL1  H19A 9403   3.177   1.417   7.090 -0.6305  1.5995 -0.5260
   94CHL1  H19B 9404   3.040   1.332   7.026 -0.3346 -0.5627 -0.2588
   94CHL1  H19C 9405   3.155   1.384   6.908  0.1883  0.7260  0.3158
   94CHL1    C1 9406   2.898   1.520   6.885  0.7470  0.7911 -0.2257
   94CHL1   H1A 9407   2.849   1.426   6.917  0.8160  1.1300  0.9299
   94CHL1   H1B 9408   2.831   1.606   6.904 -0.7732 -0.1320 -1.2720
   94CHL1    C2 9409   2.936   1.518   6.735 -0.0325  0.0691 -0.3801
   94CHL1   H2A 9410   2.840   1.517   6.680 -1.2974  1.2017  1.6611
   94CHL1   H2B 9411   2.999   1.428   6.722  1.8271  0.6775  3.2220
   94CHL1   C20 9412   2.821   1.611   7.658 -0.3175  0.0282 -0.0431
   94CHL1   H20 9413   2.909   1.563   7.706 -1.6383  0.9416  3.5762
   94CHL1   C21 9414   2.709   1.505   7.635  0.2679 -0.0677 -0.2729
   94CHL1  H21A 9415   2.735   1.425   7.562  1.5621 -0.7706  0.9268
   94CHL1  H21B 9416   2.604   1.540   7.623 -0.2357 -1.0599  1.0750
   94CHL1  H21C 9417   2.696   1.445   7.727  0.5500  2.6903  1.6809
   94CHL1   C22 9418   2.780   1.703   7.774 -0.0660  0.0874  0.5491
   94CHL1  H22A 9419   2.855   1.783   7.792  1.8273 -1.7711  1.3483
   94CHL1  H22B 9420   2.684   1.755   7.752 -0.1844  0.7587  2.4777
   94CHL1   C23 9421   2.754   1.623   7.903  0.3518 -0.3574  0.0311
   94CHL1  H23A 9422   2.659   1.566   7.890  0.6225 -1.4595  2.2529
   94CHL1  H23B 9423   2.833   1.547   7.921  0.8797  0.5281  1.6933
   94CHL1   C24 9424   2.744   1.725   8.013  0.9629 -0.2291 -1.3202
   94CHL1  H24A 9425   2.839   1.779   8.028  0.2655  0.8699 -0.7807
   94CHL1  H24B 9426   2.675   1.808   7.986  0.7269 -0.0460 -0.1839
   94CHL1   C25 9427   2.719   1.658   8.149 -0.7838 -0.7681  0.2002
   94CHL1   H25 9428   2.689   1.746   8.209  0.4780  0.3249 -0.6995
   94CHL1   C26 9429   2.603   1.563   8.157 -0.2740  0.2227 -0.6867
   94CHL1  H26A 9430   2.625   1.487   8.079  2.3712 -0.9023  1.0375
   94CHL1  H26B 9431   2.583   1.521   8.258  2.0064 -0.1615 -0.3449
   94CHL1  H26C 9432   2.524   1.630   8.117  0.1116  1.1967  0.1641
   94CHL1   C27 9433   2.851   1.595   8.194  0.0200 -0.7026  0.0270
   94CHL1  H27A 9434   2.847   1.559   8.299 -0.9303  1.4562  0.7993
   94CHL1  H27B 9435   2.872   1.506   8.131  1.7723 -1.0771  1.0875
   94CHL1  H27C 9436   2.939   1.659   8.170  1.4494 -2.5384  0.1449
   95CHL1    C3 9437   6.247   4.900   6.681  0.2680  0.4187  0.2773
   95CHL1    H3 9438   6.154   4.852   6.719  0.9057  0.6216  2.2021
   95CHL1    O3 9439   6.252   4.899   6.538  0.4608 -0.8063  0.3336
   95CHL1   H3' 9440   6.338   4.935   6.516  0.1603 -0.1250  0.2694
   95CHL1    C4 9441   6.256   5.047   6.730  0.9044 -0.2575  0.0192
   95CHL1   H4A 9442   6.354   5.076   6.686  0.0644 -0.2140 -1.8730
   95CHL1   H4B 9443   6.180   5.112   6.683  0.5932  0.3744  1.3497
   95CHL1    C5 9444   6.254   5.060   6.876 -0.3958  0.6336  0.2051
   95CHL1    C6 9445   6.165   5.135   6.951 -0.4650  0.8136 -0.0633
   95CHL1    H6 9446   6.086   5.187   6.894  0.8949 -0.0277 -2.8914
   95CHL1    C7 9447   6.179   5.152   7.097  0.9455  0.4800  0.1590
   95CHL1   H7A 9448   6.173   5.258   7.128 -1.1922  1.2597 -2.5723
   95CHL1   H7B 9449   6.099   5.091   7.145  1.6509 -0.1979  0.5032
   95CHL1    C8 9450   6.311   5.095   7.162  0.3852 -1.0414 -0.4717
   95CHL1    H8 9451   6.394   5.163   7.133 -2.0886  1.9451 -1.1023
   95CHL1   C14 9452   6.298   5.097   7.316  0.0048  0.3026  0.0878
   95CHL1   H14 9453   6.206   5.035   7.331  0.8468 -1.1126 -0.3470
   95CHL1   C15 9454   6.255   5.222   7.390 -0.5342  0.1995 -0.5114
   95CHL1  H15A 9455   6.290   5.314   7.339  1.1417 -0.0838  0.0464
   95CHL1  H15B 9456   6.146   5.243   7.398 -0.6435 -0.5509  0.1290
   95CHL1   C16 9457   6.308   5.201   7.534  0.6101 -0.4976 -0.5270
   95CHL1  H16A 9458   6.385   5.276   7.560 -0.2865 -0.0713  1.0567
   95CHL1  H16B 9459   6.232   5.220   7.614 -0.4604  0.5522 -1.7461
   95CHL1   C17 9460   6.371   5.049   7.542 -0.4411  0.3210  0.1695
   95CHL1   H17 9461   6.287   4.984   7.571  0.2796 -0.7317 -0.0579
   95CHL1   C13 9462   6.416   5.027   7.397 -0.2788  0.0595  0.6653
   95CHL1   C18 9463   6.551   5.105   7.362  0.0698 -0.2163  0.0263
   95CHL1  H18A 9464   6.636   5.067   7.422  0.2415 -1.4751 -0.9498
   95CHL1  H18B 9465   6.564   5.087   7.253 -0.1078  3.1195 -0.6465
   95CHL1  H18C 9466   6.542   5.214   7.382 -2.6423 -0.9065  3.4702
   95CHL1   C12 9467   6.430   4.881   7.344 -0.0621  0.3972  0.4105
   95CHL1  H12A 9468   6.520   4.829   7.384  0.1218  1.3647  1.3271
   95CHL1  H12B 9469   6.344   4.825   7.386 -1.6719  2.6087  0.2767
   95CHL1   C11 9470   6.441   4.867   7.192  0.0768 -0.1418  0.7068
   95CHL1  H11A 9471   6.542   4.906   7.168  0.7347  1.4669  5.0305
   95CHL1  H11B 9472   6.431   4.762   7.159  0.9956 -0.7089  2.1157
   95CHL1    C9 9473   6.340   4.958   7.112 -0.4501 -0.3129  0.0869
   95CHL1    H9 9474   6.244   4.905   7.130 -0.8568 -0.0289 -1.1489
   95CHL1   C10 9475   6.357   4.968   6.949 -0.2513 -0.7513 -0.7132
   95CHL1   C19 9476   6.496   5.021   6.914  0.0582 -0.0591 -0.5719
   95CHL1  H19A 9477   6.572   4.952   6.956 -0.1097  1.2369  2.1351
   95CHL1  H19B 9478   6.521   5.026   6.806  1.6186 -0.3703 -0.2431
   95CHL1  H19C 9479   6.527   5.116   6.962  3.2142  1.0291 -4.2682
   95CHL1    C1 9480   6.342   4.822   6.890 -0.0225 -0.5239 -0.1513
   95CHL1   H1A 9481   6.418   4.757   6.938  0.1332  1.6770  2.8364
   95CHL1   H1B 9482   6.247   4.771   6.917 -0.6334  1.0928  0.8770
   95CHL1    C2 9483   6.353   4.810   6.737  0.2932 -0.5411 -0.2944
   95CHL1   H2A 9484   6.359   4.704   6.705 -0.8407 -0.1538 -1.8807
   95CHL1   H2B 9485   6.448   4.853   6.697 -1.2176  1.9817 -1.4824
   95CHL1   C20 9486   6.480   5.028   7.652  0.5412 -0.4197  1.0744
   95CHL1   H20 9487   6.570   5.087   7.625 -0.7258  0.4402 -1.5843
   95CHL1   C21 9488   6.519   4.877   7.654  0.0031 -0.4606  0.7453
   95CHL1  H21A 9489   6.556   4.858   7.757  0.5769  3.1255  1.3062
   95CHL1  H21B 9490   6.605   4.866   7.584  0.7591  3.3406  0.8712
   95CHL1  H21C 9491   6.441   4.801   7.633  0.3022 -0.3596 -0.9551
   95CHL1   C22 9492   6.437   5.078   7.789  0.5168  0.5851 -0.3405
   95CHL1  H22A 9493   6.328   5.080   7.805  0.4729  0.3253 -0.5919
   95CHL1  H22B 9494   6.483   5.020   7.872  2.2422  3.4161  0.8366
   95CHL1   C23 9495   6.496   5.221   7.819  0.3234 -0.0528 -0.4039
   95CHL1  H23A 9496   6.598   5.242   7.781  0.0150 -0.2226 -1.3350
   95CHL1  H23B 9497   6.450   5.309   7.770  0.4514  0.5372  0.5077
   95CHL1   C24 9498   6.489   5.251   7.977 -0.0983  0.0406 -0.9071
   95CHL1  H24A 9499   6.396   5.210   8.021  0.9852  0.2892  1.8496
   95CHL1  H24B 9500   6.562   5.180   8.021 -1.3496 -1.2632 -0.8443
   95CHL1   C25 9501   6.515   5.395   8.031  0.7242  0.1832 -0.2705
   95CHL1   H25 9502   6.479   5.469   7.956  0.1827 -0.7997 -1.0061
   95CHL1   C26 9503   6.432   5.428   8.156 -0.0004 -0.0158  0.1446
   95CHL1  H26A 9504   6.449   5.351   8.234  1.9887 -0.2448 -0.4585
   95CHL1  H26B 9505   6.443   5.522   8.215 -0.3037  0.2222 -0.1746
   95CHL1  H26C 9506   6.323   5.433   8.134  0.2156  1.8657 -0.6869
   95CHL1   C27 9507   6.659   5.428   8.061 -0.3224 -0.2115  0.6417
   95CHL1  H27A 9508   6.678   5.537   8.057 -1.1233 -0.0753  0.3758
   95CHL1  H27B 9509   6.703   5.382   8.152  1.2627 -0.7435 -0.3448
   95CHL1  H27C 9510   6.721   5.395   7.975  0.3680  0.4928  0.8523
   96CHL1    C3 9511   0.368   1.505   6.680 -0.5145 -0.1930 -0.1235
   96CHL1    H3 9512   0.273   1.542   6.723 -0.5645 -0.2526 -0.1824
   96CHL1    O3 9513   0.359   1.518   6.541  0.0925 -0.1675  0.2851
   96CHL1   H3' 9514   0.442   1.531   6.496  0.1511 -0.4445  0.3133
   96CHL1    C4 9515   0.489   1.589   6.729 -0.1831  0.2689  0.3153
   96CHL1   H4A 9516   0.587   1.563   6.685 -0.0055  0.9614  0.3034
   96CHL1   H4B 9517   0.474   1.697   6.708  1.5341  0.4808  0.1049
   96CHL1    C5 9518   0.499   1.576   6.880 -0.2252  0.1728 -0.4183
   96CHL1    C6 9519   0.492   1.678   6.966  0.5953  0.0535 -0.5621
   96CHL1    H6 9520   0.471   1.783   6.940 -0.7347  0.1366  0.7494
   96CHL1    C7 9521   0.498   1.676   7.116  0.5177  0.7698 -0.4483
   96CHL1   H7A 9522   0.562   1.762   7.144  0.7557  0.8874 -1.3211
   96CHL1   H7B 9523   0.399   1.698   7.160  0.6120  0.6420 -0.1711
   96CHL1    C8 9524   0.560   1.541   7.163 -0.2120  0.0510  0.5234
   96CHL1    H8 9525   0.671   1.532   7.152 -0.2811 -0.4342  0.2159
   96CHL1   C14 9526   0.546   1.529   7.316  0.2614 -0.5971 -0.0364
   96CHL1   H14 9527   0.437   1.543   7.332  0.2374 -0.5919 -0.2029
   96CHL1   C15 9528   0.619   1.636   7.399  0.6448  0.3200  0.2634
   96CHL1  H15A 9529   0.725   1.648   7.366 -0.0472  1.0922 -1.8759
   96CHL1  H15B 9530   0.577   1.738   7.386  0.5617 -0.0690 -3.6855
   96CHL1   C16 9531   0.602   1.581   7.540  0.7751 -0.1927  0.1468
   96CHL1  H16A 9532   0.705   1.593   7.579  0.9361  2.3964 -0.8686
   96CHL1  H16B 9533   0.534   1.630   7.613  0.4515 -0.1105 -0.2117
   96CHL1   C17 9534   0.565   1.428   7.529  0.3071 -0.5622  0.6881
   96CHL1   H17 9535   0.456   1.429   7.554  0.3879  0.6075  1.0923
   96CHL1   C13 9536   0.580   1.396   7.378  0.4790 -0.5349 -1.2676
   96CHL1   C18 9537   0.727   1.363   7.366  0.2126 -0.1973  0.8501
   96CHL1  H18A 9538   0.752   1.355   7.258  0.8036  0.9978  0.8827
   96CHL1  H18B 9539   0.794   1.439   7.412 -0.2504  0.4559  0.4589
   96CHL1  H18C 9540   0.749   1.259   7.398 -0.5338 -0.7494 -0.3376
   96CHL1   C12 9541   0.484   1.297   7.310  0.2139 -0.7043 -0.5162
   96CHL1  H12A 9542   0.479   1.198   7.361 -0.4262 -0.8497 -0.8457
   96CHL1  H12B 9543   0.379   1.328   7.331  0.7256 -0.7434  2.4520
   96CHL1   C11 9544   0.507   1.293   7.162  0.3163  0.9212 -0.5259
   96CHL1  H11A 9545   0.608   1.250   7.144 -1.2294 -2.8054 -1.2136
   96CHL1  H11B 9546   0.436   1.220   7.118  0.8929 -0.3244  0.5354
   96CHL1    C9 9547   0.485   1.425   7.094 -0.0173 -0.1885 -1.0062
   96CHL1    H9 9548   0.379   1.448   7.119  0.4163  0.6820  0.1067
   96CHL1   C10 9549   0.509   1.430   6.932  0.5708 -0.1859 -0.3156
   96CHL1   C19 9550   0.650   1.380   6.901 -0.5712  0.4490 -0.3917
   96CHL1  H19A 9551   0.664   1.379   6.791  1.8755 -1.9419 -0.1740
   96CHL1  H19B 9552   0.728   1.438   6.955  0.4792 -0.3377 -1.0165
   96CHL1  H19C 9553   0.666   1.273   6.928 -1.8246 -0.3867 -2.6574
   96CHL1    C1 9554   0.406   1.338   6.867 -0.2102  0.0797 -0.2243
   96CHL1   H1A 9555   0.425   1.229   6.883  1.8377  0.1593 -1.6646
   96CHL1   H1B 9556   0.307   1.364   6.910 -0.3195 -0.7115  0.0311
   96CHL1    C2 9557   0.390   1.353   6.718 -1.1201  0.1473  0.3213
   96CHL1   H2A 9558   0.305   1.289   6.686  0.0806  0.3212 -3.9141
   96CHL1   H2B 9559   0.480   1.325   6.659 -1.4395  1.5758 -0.9209
   96CHL1   C20 9560   0.641   1.340   7.627 -0.3387 -0.3752  0.6307
   96CHL1   H20 9561   0.750   1.363   7.625 -0.4331  0.4366  2.4101
   96CHL1   C21 9562   0.622   1.194   7.621  0.1279 -0.0385 -0.0783
   96CHL1  H21A 9563   0.679   1.147   7.704 -0.7621  1.0071  1.1899
   96CHL1  H21B 9564   0.652   1.146   7.526  0.4622  0.7431 -0.3787
   96CHL1  H21C 9565   0.516   1.160   7.629 -0.3284  0.8073 -1.9781
   96CHL1   C22 9566   0.604   1.389   7.772 -0.2126 -0.0944 -0.2233
   96CHL1  H22A 9567   0.576   1.496   7.783 -1.2530 -0.2391 -1.2741
   96CHL1  H22B 9568   0.508   1.339   7.795 -1.7091  1.8420 -1.9096
   96CHL1   C23 9569   0.710   1.355   7.879  0.1471 -0.1729 -0.7933
   96CHL1  H23A 9570   0.730   1.246   7.885  1.6504  0.0609 -1.2950
   96CHL1  H23B 9571   0.807   1.396   7.843  0.3174 -1.3468 -1.7405
   96CHL1   C24 9572   0.675   1.413   8.025 -0.7218  0.1571  0.5197
   96CHL1  H24A 9573   0.658   1.522   8.014 -0.2458  0.0929 -1.0864
   96CHL1  H24B 9574   0.584   1.360   8.060 -1.1544  0.6419  0.1395
   96CHL1   C25 9575   0.788   1.391   8.129  0.2515  0.0511 -0.8469
   96CHL1   H25 9576   0.763   1.296   8.180 -0.8599 -0.8927 -2.9830
   96CHL1   C26 9577   0.932   1.395   8.076  0.7360  0.2690  0.2510
   96CHL1  H26A 9578   1.000   1.398   8.164 -1.2277  0.7005  1.8084
   96CHL1  H26B 9579   0.935   1.303   8.014 -1.1196  1.4937 -1.7765
   96CHL1  H26C 9580   0.940   1.487   8.015 -0.9155 -0.5754 -1.3362
   96CHL1   C27 9581   0.783   1.478   8.250  0.0068 -0.2611 -0.1266
   96CHL1  H27A 9582   0.727   1.418   8.325  1.7641 -1.8672 -0.0161
   96CHL1  H27B 9583   0.883   1.491   8.297 -0.9595  0.3062  1.8940
   96CHL1  H27C 9584   0.718   1.568   8.243 -3.4976 -2.6087 -0.3331
   97OSM      N 9585   0.777   2.857  10.918  0.5826  0.6314 -0.1344
   97OSM    C15 9586   0.776   2.853  10.772 -0.2516 -0.5534  0.3768
   97OSM   H15A 9587   0.805   2.754  10.740  1.3557 -0.6294  1.9305
   97OSM   H15B 9588   0.851   2.924  10.741 -0.3612  0.0346  1.4196
   97OSM   H15C 9589   0.685   2.878  10.719  2.0997  1.2023 -3.2917
   97OSM    C14 9590   0.693   2.748  10.989  0.2541  0.4058  0.1519
   97OSM   H14A 9591   0.720   2.749  11.093 -5.2397 -2.1948  1.9593
   97OSM   H14B 9592   0.700   2.653  10.938  1.6099  1.4300 -1.7221
   97OSM   H14C 9593   0.588   2.774  10.981 -0.7442 -2.4801  2.3196
   97OSM    C13 9594   0.919   2.822  10.947  0.3425 -0.5544 -0.4809
   97OSM   H13A 9595   0.981   2.909  10.934 -1.6713  1.1883  0.9904
   97OSM   H13B 9596   0.950   2.744  10.878  2.0667 -1.1250  0.8472
   97OSM   H13C 9597   0.933   2.772  11.042 -4.3769 -1.5733 -0.1196
   97OSM    C12 9598   0.739   2.989  10.979 -0.1186  0.0980  1.0502
   97OSM   H12A 9599   0.640   3.015  10.945  1.1522  1.1479 -2.2885
   97OSM   H12B 9600   0.802   3.066  10.937  1.4731 -1.5438  0.2741
   97OSM    C11 9601   0.756   3.013  11.128  0.4899 -0.0193 -0.4208
   97OSM   H11A 9602   0.747   3.122  11.150  0.2357  0.6388 -3.3681
   97OSM   H11B 9603   0.859   2.994  11.166  0.0148 -0.6710  0.5885
   97OSM      P 9604   0.510   2.989  11.201  0.2755  0.0373 -0.0785
   97OSM    O13 9605   0.425   2.894  11.270 -0.3456 -0.3328 -0.4766
   97OSM    O14 9606   0.514   3.123  11.258  0.5584 -0.0711 -0.1324
   97OSM    O11 9607   0.465   2.985  11.050 -0.7398  0.0460 -0.1181
   97OSM    O12 9608   0.656   2.933  11.197  0.0840  0.2882  0.0606
   97OSM    C1S 9609   0.397   3.098  10.994 -0.7694 -0.5372 -0.5109
   97OSM    H1S 9610   0.472   3.180  10.985 -0.6451 -0.6506 -0.5132
   97OSM    H1T 9611   0.314   3.139  11.055  0.4831  0.8012  0.3585
   97OSM     NF 9612   0.326   3.181  10.776  0.1547 -0.8448 -0.2078
   97OSM    HNF 9613   0.233   3.208  10.753  1.0412  4.8808  1.4386
   97OSM    C2S 9614   0.352   3.060  10.851  0.2124  0.0624  0.1852
   97OSM    H2S 9615   0.438   3.004  10.808  0.6680  2.4742 -2.2648
   97OSM    C3S 9616   0.233   2.957  10.863  0.5844 -0.1667 -0.0240
   97OSM    H3S 9617   0.151   2.991  10.929 -1.3437 -3.3047 -0.5835
   97OSM     O3 9618   0.281   2.827  10.912 -0.2762 -0.1902 -0.2889
   97OSM    HO3 9619   0.360   2.863  10.953  0.2732  0.5667 -1.9032
   97OSM    C4S 9620   0.173   2.937  10.723 -0.0012 -0.0910 -0.4567
   97OSM    H4S 9621   0.244   2.902  10.647  0.7363 -1.7285  0.9268
   97OSM    C5S 9622   0.044   2.959  10.691  0.0941 -0.0367  0.1767
   97OSM    H5S 9623  -0.012   3.015  10.767  0.2370 -0.3977  0.5551
   97OSM    C6S 9624  -0.033   2.950  10.560 -0.3732  0.2145 -0.6310
   97OSM    H6S 9625  -0.136   2.992  10.558  0.0114  1.1574 -1.0806
   97OSM    H6T 9626  -0.040   2.839  10.552  2.0155 -0.0928  0.8082
   97OSM    C7S 9627   0.045   3.000  10.436 -0.0575 -0.3969  0.0312
   97OSM    H7S 9628   0.154   2.991  10.454 -0.2263  1.4808  2.6303
   97OSM    H7T 9629   0.041   3.111  10.434 -1.2123 -0.3232  2.4134
   97OSM    C8S 9630  -0.003   2.947  10.298  0.3575 -0.5198  0.1473
   97OSM    H8S 9631  -0.094   3.010  10.282 -0.6367 -1.9370  0.0500
   97OSM    H8T 9632  -0.016   2.837  10.311  0.0672 -0.3338  1.6217
   97OSM    C9S 9633   0.087   2.978  10.190 -0.0641 -0.0460 -0.2762
   97OSM    H9S 9634   0.192   2.953  10.216 -0.4986 -1.3622  0.3356
   97OSM    H9T 9635   0.090   3.084  10.158  0.9203 -0.3477 -1.2749
   97OSM   C10S 9636   0.040   2.893  10.065  0.6063  0.1647  0.0139
   97OSM   H10S 9637  -0.071   2.884  10.070  0.8036 -2.7856  1.3791
   97OSM   H10T 9638   0.088   2.793  10.065 -1.8501 -1.1183 -1.4498
   97OSM   C11S 9639   0.071   2.961   9.929  0.7908 -0.2753 -0.1408
   97OSM   H11S 9640   0.175   2.997   9.914  1.2705 -0.1636  2.7606
   97OSM   H11T 9641   0.014   3.056   9.927 -0.2374 -0.8889 -0.7989
   97OSM   C12S 9642   0.019   2.889   9.806  0.3779 -0.2192 -0.4370
   97OSM   H12S 9643  -0.082   2.852   9.833  0.6924 -1.0565 -0.3768
   97OSM   H12T 9644   0.084   2.800   9.810 -1.9618 -1.9885  1.0296
   97OSM   C13S 9645   0.030   2.969   9.675  0.5011 -0.0441  0.8056
   97OSM   H13S 9646   0.132   3.014   9.668  0.4751 -0.1339 -0.3715
   97OSM   H13T 9647  -0.046   3.049   9.677  2.1588  1.6494 -0.1422
   97OSM   C14S 9648   0.013   2.874   9.553  0.3136  0.2576  0.4396
   97OSM   H14S 9649  -0.067   2.798   9.571 -0.4501  0.6531 -1.1243
   97OSM   H14T 9650   0.110   2.825   9.530 -0.2020 -0.6756  0.2202
   97OSM   C15S 9651  -0.023   2.944   9.423  0.5128 -0.3285  0.2585
   97OSM   H15S 9652   0.053   3.024   9.420 -0.0475  0.2752  1.5638
   97OSM   H15T 9653  -0.123   2.991   9.429  0.8690  0.3578  1.0120
   97OSM   C16S 9654  -0.005   2.858   9.301 -1.2472 -0.0497  0.1325
   97OSM   H16S 9655   0.102   2.831   9.302 -0.0726  3.9141  2.8410
   97OSM   H16T 9656  -0.016   2.920   9.209 -3.5300  1.1899  1.1689
   97OSM   C17S 9657  -0.083   2.725   9.308  0.3832  0.1529  0.2274
   97OSM   H17S 9658  -0.065   2.675   9.406 -0.4416  0.5272  0.5805
   97OSM   H17T 9659  -0.040   2.665   9.225  0.6532  1.0497 -0.2953
   97OSM   C18S 9660  -0.227   2.745   9.269 -0.1254 -0.0141  0.3275
   97OSM   H18S 9661  -0.275   2.644   9.270 -0.4870  0.1408 -0.4134
   97OSM   H18T 9662  -0.229   2.769   9.160  1.2622 -1.3552 -0.0274
   97OSM   H18U 9663  -0.292   2.804   9.337  2.4680 -0.9574  3.8806
   97OSM    C1F 9664   0.434   3.253  10.740 -0.0728 -0.4954  0.3787
   97OSM     OF 9665   0.545   3.210  10.748 -0.5006  0.5490 -0.2771
   97OSM    C2F 9666   0.406   3.394  10.694 -0.0244 -0.1929  0.2159
   97OSM    H2F 9667   0.488   3.455  10.738 -0.0072  0.6539 -0.9271
   97OSM    H2G 9668   0.310   3.437  10.729  0.7398  0.3543  1.7202
   97OSM    C3F 9669   0.402   3.398  10.542 -0.0897 -0.3103 -0.1915
   97OSM    H3F 9670   0.507   3.376  10.513 -0.3502  0.3557 -1.7311
   97OSM    H3G 9671   0.391   3.505  10.512  1.5449  0.5515  2.0045
   97OSM    C4F 9672   0.288   3.321  10.474 -0.8413  0.0513  0.0366
   97OSM    H4F 9673   0.196   3.377  10.501 -0.2006  1.3001 -0.2875
   97OSM    H4G 9674   0.278   3.217  10.513 -1.6332 -0.1054 -0.5595
   97OSM    C5F 9675   0.294   3.315  10.322 -0.2494 -0.2966  0.0643
   97OSM    H5F 9676   0.275   3.416  10.280  0.8512  0.1386  0.5790
   97OSM    H5G 9677   0.204   3.253  10.299 -0.2207 -0.7539  1.1133
   97OSM    C6F 9678   0.420   3.248  10.262 -0.2875  0.6023 -0.2526
   97OSM    H6F 9679   0.414   3.148  10.311 -3.6105  1.0506  0.5076
   97OSM    H6G 9680   0.517   3.290  10.297  0.7860 -2.4856  0.8258
   97OSM    C7F 9681   0.413   3.225  10.115 -0.4579  0.0209  0.8659
   97OSM    H7F 9682   0.437   3.314  10.054  1.9551 -1.0730  0.0866
   97OSM    H7G 9683   0.313   3.183  10.088 -1.1415  1.4904  1.0284
   97OSM    C8F 9684   0.524   3.127  10.066  0.8478 -0.8144  0.3561
   97OSM    H8F 9685   0.494   3.099   9.963 -0.4149  0.2012  0.4217
   97OSM    H8G 9686   0.507   3.041  10.135  1.4955 -1.0999  0.1718
   97OSM    C9F 9687   0.667   3.179  10.077  0.4496 -0.0309 -0.7213
   97OSM    H9F 9688   0.687   3.249  10.160 -2.3118  0.3645 -0.2801
   97OSM   C10F 9689   0.769   3.160   9.990  0.7250  0.0600  0.1123
   97OSM   H10F 9690   0.862   3.218   9.994 -0.1290  1.5466 -0.8448
   97OSM   C11F 9691   0.753   3.074   9.870 -0.2950  0.3272  0.0232
   97OSM   H11F 9692   0.653   3.030   9.853 -1.2042  2.0938  0.6015
   97OSM   H11G 9693   0.818   2.988   9.898  0.6900  0.7596 -0.8456
   97OSM   C12F 9694   0.794   3.134   9.732  0.0358 -0.3483 -0.9480
   97OSM   H12F 9695   0.786   3.063   9.646  0.4626 -1.4940 -0.0666
   97OSM   H12G 9696   0.897   3.176   9.738 -0.6352  1.1134  1.6203
   97OSM   C13F 9697   0.692   3.242   9.686 -0.2812  0.0285 -0.3837
   97OSM   H13F 9698   0.745   3.284   9.598  2.4447 -1.4186  0.4506
   97OSM   H13G 9699   0.690   3.321   9.763 -0.4298 -0.2428 -0.1060
   97OSM   C14F 9700   0.545   3.195   9.660  0.2455 -0.5864 -0.3569
   97OSM   H14F 9701   0.493   3.279   9.609 -0.6610 -1.1818 -0.4279
   97OSM   H14G 9702   0.499   3.178   9.760  2.0616 -0.7301  0.4988
   97OSM   C15F 9703   0.528   3.061   9.585 -0.2471  0.6914  0.1242
   97OSM   H15F 9704   0.533   2.973   9.652  2.5944  1.1154  0.5792
   97OSM   H15G 9705   0.614   3.050   9.515 -1.2317 -1.3127 -0.8403
   97OSM   C16F 9706   0.399   3.057   9.503  0.6674 -0.2659 -0.1507
   97OSM   H16F 9707   0.311   3.092   9.561 -0.4741 -0.7290 -1.5456
   97OSM   H16G 9708   0.371   2.949   9.500 -0.4748 -0.1784  3.3114
   97OSM   C17F 9709   0.372   3.137   9.371 -0.3889  0.1846  0.1562
   97OSM   H17F 9710   0.370   3.246   9.388 -0.1088 -0.0369  1.8138
   97OSM   H17G 9711   0.274   3.104   9.331  0.0782 -0.5236 -0.4389
   97OSM   C18F 9712   0.477   3.109   9.255 -0.1478 -0.2404 -0.0842
   97OSM   H18F 9713   0.440   3.139   9.155 -0.7396  1.5361  0.6177
   97OSM   H18G 9714   0.481   2.998   9.254 -0.6173 -0.2539 -0.2610
   97OSM   H18H 9715   0.577   3.153   9.279 -1.6008  4.2073 -1.2088
   98OSM      N 9716   5.932   5.184  10.845  0.1796  0.4093 -0.4275
   98OSM    C15 9717   5.939   5.032  10.861 -0.7079  0.4052  0.7138
   98OSM   H15A 9718   5.880   5.010  10.948  2.4617  0.9882  3.1982
   98OSM   H15B 9719   6.042   5.002  10.875 -0.8707  0.4671  2.2160
   98OSM   H15C 9720   5.895   4.984  10.775  1.1187  0.6733 -0.4458
   98OSM    C14 9721   5.987   5.233  10.979  0.1663  0.0180  0.1661
   98OSM   H14A 9722   5.987   5.341  10.990  0.9119  0.2345 -1.5288
   98OSM   H14B 9723   6.083   5.184  10.984 -0.8193 -2.1393 -0.6841
   98OSM   H14C 9724   5.930   5.191  11.060 -1.0763  1.7914  0.2796
   98OSM    C13 9725   6.023   5.223  10.732 -0.0977 -0.5264 -0.1549
   98OSM   H13A 9726   5.980   5.184  10.640 -1.4024  1.0795 -0.2812
   98OSM   H13B 9727   6.121   5.183  10.753  0.3194 -1.1472 -2.8583
   98OSM   H13C 9728   6.036   5.330  10.727  0.9112 -0.6076  0.5506
   98OSM    C12 9729   5.800   5.237  10.825 -0.1604  0.6637  0.4434
   98OSM   H12A 9730   5.770   5.195  10.730  1.0296 -0.3149  0.4648
   98OSM   H12B 9731   5.810   5.343  10.812 -0.7211  0.8712  1.5960
   98OSM    C11 9732   5.689   5.215  10.931 -0.6175 -0.8223  0.7551
   98OSM   H11A 9733   5.599   5.267  10.891 -0.8709 -0.4199  1.8358
   98OSM   H11B 9734   5.712   5.265  11.027 -0.2818 -1.5983  1.0860
   98OSM      P 9735   5.557   4.985  10.892 -0.2393  0.0389 -0.0128
   98OSM    O13 9736   5.582   4.844  10.948 -0.5825 -0.7679  0.2001
   98OSM    O14 9737   5.427   5.041  10.924 -0.3156  0.5140 -0.5362
   98OSM    O11 9738   5.579   5.005  10.733 -0.0292 -0.1349 -0.7032
   98OSM    O12 9739   5.662   5.081  10.959  0.4750  0.2754  0.1769
   98OSM    C1S 9740   5.542   4.892  10.646  0.1530 -0.3919  0.6495
   98OSM    H1S 9741   5.437   4.854  10.651 -0.5003  0.2526 -3.8324
   98OSM    H1T 9742   5.611   4.805  10.658 -1.2350 -1.7229 -0.5357
   98OSM     NF 9743   5.520   4.803  10.420  0.4180 -0.8112  0.0637
   98OSM    HNF 9744   5.601   4.752  10.392  3.8718  3.9173  0.2690
   98OSM    C2S 9745   5.555   4.926  10.495 -0.4602 -1.0956  0.0852
   98OSM    H2S 9746   5.493   5.013  10.467  1.2463 -0.4051 -1.7558
   98OSM    C3S 9747   5.700   4.974  10.465  0.5341  0.3244 -0.4029
   98OSM    H3S 9748   5.763   4.891  10.505  0.6955  0.1225 -1.0734
   98OSM     O3 9749   5.743   5.092  10.535  0.1853  0.0836  0.1567
   98OSM    HO3 9750   5.670   5.093  10.598 -1.4316 -0.8231 -1.6071
   98OSM    C4S 9751   5.739   4.987  10.322  0.6139 -0.4293  1.4246
   98OSM    H4S 9752   5.794   4.899  10.287 -1.0585 -0.2674 -1.9986
   98OSM    C5S 9753   5.726   5.095  10.236 -1.1085  0.4603 -0.1549
   98OSM    H5S 9754   5.691   5.192  10.275 -3.5867  0.5450 -2.3025
   98OSM    C6S 9755   5.781   5.082  10.091 -0.7195 -0.1776 -0.9845
   98OSM    H6S 9756   5.873   5.020  10.089  2.1612  3.6255  0.3000
   98OSM    H6T 9757   5.817   5.182  10.058  0.4457  0.1162  0.9731
   98OSM    C7S 9758   5.679   5.017   9.998  0.4847  0.3335 -0.2474
   98OSM    H7S 9759   5.588   5.081   9.998 -1.3375 -2.0526  1.6463
   98OSM    H7T 9760   5.647   4.924  10.050 -2.4205  0.6350 -1.2629
   98OSM    C8S 9761   5.731   4.974   9.854 -0.5737 -0.1956 -0.5070
   98OSM    H8S 9762   5.814   4.903   9.872  0.5458  1.0754 -0.4507
   98OSM    H8T 9763   5.769   5.059   9.792 -0.7948 -0.1146 -0.5334
   98OSM    C9S 9764   5.617   4.902   9.776 -0.1935  0.2654 -1.0755
   98OSM    H9S 9765   5.529   4.970   9.771 -0.1393  0.3455 -0.9412
   98OSM    H9T 9766   5.586   4.810   9.830  2.0420 -0.2622 -0.5886
   98OSM   C10S 9767   5.665   4.852   9.639 -0.2614 -0.2885 -0.6068
   98OSM   H10S 9768   5.750   4.784   9.661 -0.0911  0.1212  0.0326
   98OSM   H10T 9769   5.713   4.939   9.589  0.9213 -0.1701  0.6787
   98OSM   C11S 9770   5.556   4.780   9.563  0.3586  0.2810 -0.2648
   98OSM   H11S 9771   5.468   4.848   9.565  0.6872  0.7171  2.3915
   98OSM   H11T 9772   5.521   4.682   9.604  0.8575 -0.1947 -0.9562
   98OSM   C12S 9773   5.591   4.746   9.418  0.1028 -0.1599 -0.1387
   98OSM   H12S 9774   5.660   4.659   9.407 -2.5171 -2.2913 -0.6489
   98OSM   H12T 9775   5.634   4.839   9.376 -1.5302  0.4342 -0.5511
   98OSM   C13S 9776   5.463   4.704   9.339 -0.6106  0.4090  0.0535
   98OSM   H13S 9777   5.373   4.765   9.360 -0.5436  0.5788 -0.1471
   98OSM   H13T 9778   5.444   4.607   9.390 -2.0532  1.2843  1.2685
   98OSM   C14S 9779   5.488   4.693   9.193  0.0113  0.0116  0.2821
   98OSM   H14S 9780   5.570   4.621   9.172 -0.6825 -0.6885 -0.0796
   98OSM   H14T 9781   5.504   4.786   9.135  1.2724  1.4504  2.7638
   98OSM   C15S 9782   5.366   4.619   9.123 -0.0822  0.5596 -0.0150
   98OSM   H15S 9783   5.280   4.687   9.140  0.2329  1.1042 -0.5324
   98OSM   H15T 9784   5.359   4.526   9.182 -2.2794  1.8140  1.8770
   98OSM   C16S 9785   5.375   4.592   8.967  0.5986  0.3420  0.7302
   98OSM   H16S 9786   5.282   4.539   8.938  0.0432  2.2233 -1.2094
   98OSM   H16T 9787   5.470   4.537   8.954  0.7151  1.0754 -2.1633
   98OSM   C17S 9788   5.378   4.712   8.873 -0.0144 -0.2791 -0.1950
   98OSM   H17S 9789   5.467   4.778   8.879  1.6231 -2.3368 -0.9044
   98OSM   H17T 9790   5.295   4.778   8.908  0.1159 -0.5297  0.5932
   98OSM   C18S 9791   5.354   4.680   8.727 -0.1792  0.1016  0.6414
   98OSM   H18S 9792   5.442   4.626   8.684  0.8934  2.0852  0.2445
   98OSM   H18T 9793   5.349   4.775   8.669 -0.6760  0.0122  0.5358
   98OSM   H18U 9794   5.259   4.623   8.724 -0.1902  0.1395 -0.9317
   98OSM    C1F 9795   5.391   4.766  10.409 -0.3790 -0.0127 -0.6201
   98OSM     OF 9796   5.305   4.853  10.420 -0.5231 -0.9138 -0.3806
   98OSM    C2F 9797   5.370   4.627  10.357  0.5146 -0.0108  0.1829
   98OSM    H2F 9798   5.427   4.563  10.426  0.8269 -0.6891 -0.6889
   98OSM    H2G 9799   5.431   4.629  10.264  0.7687  1.5575  0.3539
   98OSM    C3F 9800   5.223   4.596  10.333  0.2484  0.6766 -0.2890
   98OSM    H3F 9801   5.175   4.680  10.278 -2.2341  0.8016  1.8517
   98OSM    H3G 9802   5.168   4.591  10.430 -0.8915 -0.3335 -0.9559
   98OSM    C4F 9803   5.195   4.471  10.251  0.2627  0.1115  0.0990
   98OSM    H4F 9804   5.093   4.430  10.267  0.5836 -0.3787  0.9864
   98OSM    H4G 9805   5.263   4.387  10.277  0.0469 -0.3025 -0.6319
   98OSM    C5F 9806   5.221   4.486  10.101 -0.1253 -0.5200  0.2792
   98OSM    H5F 9807   5.328   4.497  10.076 -0.5848  0.9058 -1.2649
   98OSM    H5G 9808   5.171   4.579  10.066  0.3055 -0.3194  0.1891
   98OSM    C6F 9809   5.182   4.366  10.013 -0.1743  0.1993 -0.0085
   98OSM    H6F 9810   5.074   4.380   9.991 -0.5782 -3.0013 -0.4982
   98OSM    H6G 9811   5.177   4.275  10.076 -0.0713  0.2174  0.0256
   98OSM    C7F 9812   5.261   4.351   9.878 -0.4916  1.1325 -0.3276
   98OSM    H7F 9813   5.218   4.260   9.832  0.0769 -0.0442  1.3461
   98OSM    H7G 9814   5.367   4.327   9.899 -0.9358 -0.6123  0.0637
   98OSM    C8F 9815   5.251   4.467   9.786 -0.1752 -0.3687 -0.1055
   98OSM    H8F 9816   5.324   4.465   9.702 -0.0934  1.1083 -0.1059
   98OSM    H8G 9817   5.297   4.558   9.831  1.8622 -0.7030 -1.3559
   98OSM    C9F 9818   5.116   4.495   9.728  0.3851 -0.1310 -0.0197
   98OSM    H9F 9819   5.040   4.513   9.806  0.1740 -4.6557  1.0639
   98OSM   C10F 9820   5.070   4.491   9.598 -0.0374  0.3100 -0.0574
   98OSM   H10F 9821   4.962   4.501   9.578  0.3185  2.6896 -1.1227
   98OSM   C11F 9822   5.168   4.458   9.491 -0.7480 -0.0083 -0.8094
   98OSM   H11F 9823   5.269   4.505   9.500 -1.0264  0.3093  1.2991
   98OSM   H11G 9824   5.119   4.489   9.397 -1.7289  0.9388 -0.0221
   98OSM   C12F 9825   5.193   4.306   9.480  0.4576  0.1630  0.5841
   98OSM   H12F 9826   5.106   4.239   9.495  1.2001 -1.3609 -1.4963
   98OSM   H12G 9827   5.257   4.288   9.569 -1.2926 -0.7532  1.7154
   98OSM   C13F 9828   5.260   4.282   9.348  0.1847  0.1963  0.4240
   98OSM   H13F 9829   5.367   4.310   9.349 -0.1324  1.4417  1.1635
   98OSM   H13G 9830   5.211   4.349   9.275  2.6654 -0.0359 -1.6046
   98OSM   C14F 9831   5.260   4.134   9.300 -0.0228 -0.7616  0.0664
   98OSM   H14F 9832   5.159   4.090   9.286 -0.8922  0.8248  0.9907
   98OSM   H14G 9833   5.313   4.078   9.379  0.5474  1.0841  1.0631
   98OSM   C15F 9834   5.330   4.126   9.166  0.0616  0.1539  0.3986
   98OSM   H15F 9835   5.341   4.017   9.147  0.6687  0.3820 -0.6337
   98OSM   H15G 9836   5.432   4.171   9.166  0.8252 -1.1663 -3.5941
   98OSM   C16F 9837   5.251   4.181   9.042 -0.5355  1.1415  0.0747
   98OSM   H16F 9838   5.238   4.291   9.052  0.9445  1.2403  1.1508
   98OSM   H16G 9839   5.149   4.138   9.050  0.8082 -2.5387 -0.5743
   98OSM   C17F 9840   5.328   4.166   8.905 -0.2958 -0.2336 -0.7349
   98OSM   H17F 9841   5.371   4.064   8.898 -1.8341 -1.1878  2.1305
   98OSM   H17G 9842   5.408   4.237   8.936 -1.9415  2.1776 -1.7136
   98OSM   C18F 9843   5.245   4.208   8.785  0.0964 -0.5157 -0.1986
   98OSM   H18F 9844   5.229   4.317   8.794 -0.2708 -0.6102  0.2805
   98OSM   H18G 9845   5.150   4.152   8.771 -1.1170  1.4958 -0.3164
   98OSM   H18H 9846   5.312   4.205   8.696  0.5701 -1.2633  0.1695
   99OSM      N 9847   6.120   6.043  10.784  0.1612 -0.3126  0.7160
   99OSM    C15 9848   6.029   5.976  10.888 -0.2544 -0.4033  0.0707
   99OSM   H15A 9849   5.989   6.062  10.939  0.2313 -0.2617  0.2098
   99OSM   H15B 9850   6.089   5.926  10.962 -1.7151 -2.1941  0.1341
   99OSM   H15C 9851   5.957   5.905  10.849  0.1201 -1.2629  0.8914
   99OSM    C14 9852   6.040   6.108  10.684 -0.5881 -0.4302  0.3987
   99OSM   H14A 9853   5.980   6.190  10.719 -1.9839 -0.4811 -1.6942
   99OSM   H14B 9854   5.979   6.042  10.625  1.2944 -1.5297 -0.4051
   99OSM   H14C 9855   6.098   6.152  10.604  0.6895 -3.1877 -0.3034
   99OSM    C13 9856   6.200   6.152  10.850 -0.6088 -0.5631  0.8433
   99OSM   H13A 9857   6.279   6.117  10.916  1.8338  0.5458 -1.2906
   99OSM   H13B 9858   6.133   6.226  10.891 -0.4479  1.9457 -2.9496
   99OSM   H13C 9859   6.263   6.192  10.772 -2.0991 -0.6198 -0.4300
   99OSM    C12 9860   6.208   5.944  10.723  0.2602 -0.3325  0.4289
   99OSM   H12A 9861   6.253   5.991  10.637  0.4138 -0.1292  0.6201
   99OSM   H12B 9862   6.154   5.859  10.683  2.7237 -1.2718 -1.0996
   99OSM    C11 9863   6.319   5.888  10.807 -1.0279  0.3742  0.0885
   99OSM   H11A 9864   6.355   5.804  10.743 -1.5734  1.5786 -1.8926
   99OSM   H11B 9865   6.298   5.845  10.907  0.1969 -2.5132 -0.7766
   99OSM      P 9866   6.563   5.929  10.857 -0.4698  0.0153  0.2104
   99OSM    O13 9867   6.655   6.049  10.856  0.4018  0.0237 -0.1555
   99OSM    O14 9868   6.569   5.846  10.976 -0.1094  0.0332  0.2075
   99OSM    O11 9869   6.583   5.835  10.726  0.1686 -0.5930 -0.4990
   99OSM    O12 9870   6.419   5.989  10.829 -0.0604 -0.4752  0.3233
   99OSM    C1S 9871   6.598   5.908  10.597  0.0352 -0.0082 -0.2503
   99OSM    H1S 9872   6.688   5.973  10.595  0.2709 -0.3036  0.5494
   99OSM    H1T 9873   6.515   5.983  10.589  0.3145  0.3838  0.4700
   99OSM     NF 9874   6.543   5.917  10.356  0.2547 -1.1500  0.4493
   99OSM    HNF 9875   6.445   5.920  10.337  0.1448 -1.9606  0.8517
   99OSM    C2S 9876   6.585   5.823  10.462  0.1476 -0.3695 -0.2332
   99OSM    H2S 9877   6.681   5.783  10.426  0.4962  1.1844 -1.1316
   99OSM    C3S 9878   6.486   5.704  10.472 -0.5470 -0.1328 -0.3285
   99OSM    H3S 9879   6.387   5.755  10.480 -1.1940 -1.3789 -0.0432
   99OSM     O3 9880   6.500   5.607  10.580 -0.1084 -0.2743  0.4090
   99OSM    HO3 9881   6.576   5.643  10.627 -0.3384  1.3472 -0.3911
   99OSM    C4S 9882   6.498   5.624  10.347  0.3868 -0.1831  0.3384
   99OSM    H4S 9883   6.586   5.560  10.331  0.3726 -0.3563  0.9198
   99OSM    C5S 9884   6.394   5.617  10.258  0.0384 -0.0294 -0.2843
   99OSM    H5S 9885   6.298   5.665  10.283  1.0536  1.8272  0.1636
   99OSM    C6S 9886   6.393   5.543  10.129 -0.2992 -0.0218  0.3261
   99OSM    H6S 9887   6.356   5.440  10.150  2.6668 -0.7705  2.4113
   99OSM    H6T 9888   6.496   5.518  10.096  0.7363  1.9193  1.9243
   99OSM    C7S 9889   6.315   5.607  10.019  0.1552 -0.1658  0.4725
   99OSM    H7S 9890   6.312   5.718  10.022  0.5668 -0.1477  0.3719
   99OSM    H7T 9891   6.214   5.562  10.012  0.4785 -0.6908 -1.5183
   99OSM    C8S 9892   6.372   5.573   9.878 -0.0291  0.4237 -0.3460
   99OSM    H8S 9893   6.382   5.462   9.877 -0.0768  0.3973 -2.0796
   99OSM    H8T 9894   6.473   5.619   9.872  0.5594 -0.5580  1.2983
   99OSM    C9S 9895   6.288   5.625   9.766  0.4153  0.1142 -0.7708
   99OSM    H9S 9896   6.298   5.735   9.777  1.5828 -0.0793  0.3195
   99OSM    H9T 9897   6.184   5.592   9.785 -0.2259  2.3698 -0.0803
   99OSM   C10S 9898   6.329   5.577   9.635 -1.1550  0.7133  0.8196
   99OSM   H10S 9899   6.348   5.469   9.650 -1.9056  0.2513 -1.2535
   99OSM   H10T 9900   6.420   5.633   9.603 -0.6102 -0.4647  0.2775
   99OSM   C11S 9901   6.220   5.599   9.528 -0.1980  0.9442  0.3630
   99OSM   H11S 9902   6.179   5.702   9.533  1.3263  1.6911 -1.2073
   99OSM   H11T 9903   6.139   5.523   9.537  0.1199  0.6144  0.4874
   99OSM   C12S 9904   6.274   5.583   9.378  0.2033 -0.1968  0.2753
   99OSM   H12S 9905   6.343   5.670   9.371 -0.7223  0.7520  2.2690
   99OSM   H12T 9906   6.329   5.490   9.351  0.7955  0.6635 -1.6858
   99OSM   C13S 9907   6.177   5.598   9.265  0.3100 -0.2687  1.2939
   99OSM   H13S 9908   6.109   5.512   9.280  2.5608 -2.3349  0.2445
   99OSM   H13T 9909   6.228   5.579   9.168 -1.9278  0.7356 -0.1632
   99OSM   C14S 9910   6.095   5.726   9.247  0.7714  0.2560  0.3290
   99OSM   H14S 9911   6.158   5.816   9.229 -2.7212  2.5474 -1.5617
   99OSM   H14T 9912   6.038   5.749   9.339  1.2435 -0.7668  0.8943
   99OSM   C15S 9913   6.000   5.718   9.137  0.1512 -0.2345 -0.0070
   99OSM   H15S 9914   5.927   5.802   9.135 -0.1971 -0.4329  1.9797
   99OSM   H15T 9915   5.934   5.631   9.160  0.3461 -0.4366 -0.2130
   99OSM   C16S 9916   6.070   5.689   8.994  0.1713 -0.0403 -0.3887
   99OSM   H16S 9917   6.107   5.584   8.987  0.9396  0.2526 -0.8102
   99OSM   H16T 9918   6.158   5.748   8.962 -0.5591 -0.9492 -4.7215
   99OSM   C17S 9919   5.964   5.706   8.871 -0.2646 -0.3735 -0.5094
   99OSM   H17S 9920   5.921   5.808   8.878 -0.9995 -0.5033 -2.5230
   99OSM   H17T 9921   5.886   5.627   8.867  1.7969 -2.4735 -2.0572
   99OSM   C18S 9922   6.030   5.699   8.730 -0.4743  0.0921  0.3687
   99OSM   H18S 9923   5.956   5.700   8.647 -0.3121 -0.3137  0.2192
   99OSM   H18T 9924   6.089   5.605   8.721  1.7840  1.4532  0.0622
   99OSM   H18U 9925   6.100   5.785   8.720  1.6088 -1.4556  0.8243
   99OSM    C1F 9926   6.632   6.006  10.304  0.1372  0.2706  0.3068
   99OSM     OF 9927   6.740   6.024  10.362  0.1115 -0.3034  0.2029
   99OSM    C2F 9928   6.589   6.082  10.181  0.4770  0.2821  0.1714
   99OSM    H2F 9929   6.678   6.139  10.146  2.7838 -1.2689  3.0868
   99OSM    H2G 9930   6.496   6.142  10.196 -0.8787 -1.2109 -1.8558
   99OSM    C3F 9931   6.546   5.984  10.071  0.7347 -0.1789  1.0304
   99OSM    H3F 9932   6.608   5.892  10.060 -1.8814 -1.9600  0.0497
   99OSM    H3G 9933   6.441   5.950  10.088 -0.2554  1.0671 -1.9161
   99OSM    C4F 9934   6.537   6.046   9.927  0.1873 -0.3880 -0.5880
   99OSM    H4F 9935   6.633   6.094   9.899 -0.1129  1.9717  1.9132
   99OSM    H4G 9936   6.467   6.132   9.932  0.0170 -0.5288 -0.5431
   99OSM    C5F 9937   6.488   5.949   9.825  0.2874  0.0022 -0.2037
   99OSM    H5F 9938   6.380   5.927   9.813  0.2304 -0.3483  0.8498
   99OSM    H5G 9939   6.548   5.857   9.841 -0.9021 -1.1323 -1.8514
   99OSM    C6F 9940   6.543   5.997   9.684 -0.3734 -0.0434 -0.0771
   99OSM    H6F 9941   6.653   5.981   9.693 -0.8101 -2.0927  4.2453
   99OSM    H6G 9942   6.527   6.103   9.654  1.0004 -0.4976 -2.6690
   99OSM    C7F 9943   6.494   5.911   9.573 -0.1636  0.2320 -0.2742
   99OSM    H7F 9944   6.383   5.913   9.577 -0.1922 -1.1401  2.2100
   99OSM    H7G 9945   6.514   5.806   9.604 -0.5317 -0.7890 -3.1990
   99OSM    C8F 9946   6.545   5.964   9.434 -0.1923 -0.7768 -1.1142
   99OSM    H8F 9947   6.524   5.882   9.362 -2.1444 -0.0422 -1.4294
   99OSM    H8G 9948   6.656   5.965   9.448 -0.3546 -0.3588  0.2453
   99OSM    C9F 9949   6.486   6.091   9.376 -1.1786 -0.8907  0.0944
   99OSM    H9F 9950   6.455   6.162   9.455  0.8246 -0.5901  0.6510
   99OSM   C10F 9951   6.484   6.128   9.246  0.6239 -0.3367 -1.0047
   99OSM   H10F 9952   6.435   6.224   9.226  0.8546 -0.2764 -1.2897
   99OSM   C11F 9953   6.534   6.045   9.131 -0.4819  0.4990  0.1689
   99OSM   H11F 9954   6.578   5.947   9.160 -0.3830 -0.4443 -2.8560
   99OSM   H11G 9955   6.634   6.087   9.106  0.1539 -0.3528  1.1909
   99OSM   C12F 9956   6.435   6.003   9.018 -0.3156  0.1733 -0.5883
   99OSM   H12F 9957   6.351   5.943   9.059 -0.0954  0.2234 -0.0595
   99OSM   H12G 9958   6.479   5.934   8.943 -1.8765 -1.2756 -0.2591
   99OSM   C13F 9959   6.376   6.124   8.954 -0.0995 -0.7078 -0.0060
   99OSM   H13F 9960   6.457   6.190   8.917  0.1682 -1.1513 -0.2190
   99OSM   H13G 9961   6.311   6.182   9.023  1.6854  3.5863 -1.5727
   99OSM   C14F 9962   6.288   6.092   8.828  0.2204  0.1700 -0.0163
   99OSM   H14F 9963   6.192   6.041   8.849  0.6951 -0.9648 -0.4964
   99OSM   H14G 9964   6.351   6.017   8.775 -1.3756 -1.6897  0.6246
   99OSM   C15F 9965   6.271   6.209   8.730  0.5016  0.3994 -0.1654
   99OSM   H15F 9966   6.371   6.239   8.694 -0.2499  0.1181 -2.6546
   99OSM   H15G 9967   6.231   6.294   8.790  2.7550  0.1232  1.8775
   99OSM   C16F 9968   6.176   6.168   8.616 -0.5081  0.1557  0.3163
   99OSM   H16F 9969   6.077   6.145   8.661  1.1836  0.2356  4.4988
   99OSM   H16G 9970   6.217   6.083   8.559  0.4193 -0.2234  1.5223
   99OSM   C17F 9971   6.174   6.281   8.510  0.9808 -0.4471 -0.1815
   99OSM   H17F 9972   6.148   6.249   8.407  1.6440  0.8608 -0.7783
   99OSM   H17G 9973   6.274   6.330   8.509  0.8442 -0.0489  1.8400
   99OSM   C18F 9974   6.070   6.386   8.552 -0.5743 -0.4708  0.4485
   99OSM   H18F 9975   5.966   6.354   8.531 -0.5215  1.6208 -4.2340
   99OSM   H18G 9976   6.082   6.485   8.502  2.3742 -0.9952 -0.0687
   99OSM   H18H 9977   6.078   6.425   8.656 -1.7654  2.3103 -0.3888
  100OSM      N 9978   3.024   0.434  10.747 -0.2537  0.2735  0.2900
  100OSM    C15 9979   3.065   0.542  10.844  0.0071 -0.3265 -0.8849
  100OSM   H15A 9980   2.974   0.586  10.882  2.2479  3.9373  0.1153
  100OSM   H15B 9981   3.109   0.627  10.795  0.3790  0.1330  0.2083
  100OSM   H15C 9982   3.131   0.515  10.925  0.4890 -0.7240 -1.4068
  100OSM    C14 9983   2.966   0.318  10.827 -0.2657 -0.5753  0.1491
  100OSM   H14A 9984   2.944   0.235  10.762  0.5526 -1.7026  1.2633
  100OSM   H14B 9985   2.883   0.348  10.889  0.6528 -1.1917  1.7588
  100OSM   H14C 9986   3.051   0.290  10.888  0.3936  2.1508  0.6467
  100OSM    C13 9987   2.916   0.480  10.652 -0.1877  0.4620  0.3332
  100OSM   H13A 9988   2.831   0.503  10.715  1.0339  3.0608  1.1633
  100OSM   H13B 9989   2.891   0.407  10.576  1.9783 -0.5202  0.5000
  100OSM   H13C 9990   2.945   0.573  10.605 -0.6631  0.0154 -0.8880
  100OSM    C12 9991   3.141   0.388  10.662  0.6003  0.5313 -0.0039
  100OSM   H12A 9992   3.206   0.337  10.731  0.4035 -2.3196 -1.7837
  100OSM   H12B 9993   3.195   0.467  10.610 -0.1888 -1.6298 -4.5801
  100OSM    C11 9994   3.106   0.282  10.553 -0.5028  0.3364 -0.0799
  100OSM   H11A 9995   3.194   0.272  10.486 -0.3897  0.3994  0.0581
  100OSM   H11B 9996   3.025   0.303  10.480 -1.0155  0.1426  0.4316
  100OSM      P 9997   3.204   0.061  10.647 -0.2182  0.0447  0.0022
  100OSM    O13 9998   3.319   0.149  10.697  0.5336  0.8066 -0.1969
  100OSM    O14 9999   3.154  -0.046  10.740  0.2139 -0.2136 -0.2497
  100OSM    O1110000   3.246  -0.000  10.510 -0.5104 -0.6098  0.2698
  100OSM    O1210001   3.079   0.152  10.612 -0.2250  0.1938  0.2463
  100OSM    C1S10002   3.149  -0.045  10.417 -0.8479 -0.4110  0.3033
  100OSM    H1S10003   3.102   0.039  10.362 -0.1173  1.5073  2.4569
  100OSM    H1T10004   3.076  -0.107  10.473  1.0239 -1.4485  1.7127
  100OSM     NF10005   3.126  -0.200  10.221 -0.2286 -0.0829  0.1845
  100OSM    HNF10006   3.107  -0.297  10.208 -1.3600 -0.0226  1.2881
  100OSM    C2S10007   3.220  -0.147  10.321  0.3780 -0.1220 -0.4861
  100OSM    H2S10008   3.297  -0.085  10.270 -1.3657  2.3216 -0.3389
  100OSM    C3S10009   3.291  -0.257  10.403 -0.5528  0.0330  0.2397
  100OSM    H3S10010   3.203  -0.291  10.462 -1.9863  2.4511 -0.3296
  100OSM     O310011   3.388  -0.210  10.497  0.0465 -0.5252  0.0139
  100OSM    HO310012   3.354  -0.120  10.505 -1.1041 -0.5686 -2.9952
  100OSM    C4S10013   3.361  -0.362  10.312  0.8791 -0.4819 -0.0370
  100OSM    H4S10014   3.427  -0.314  10.239  0.0968 -0.6561 -0.8714
  100OSM    C5S10015   3.355  -0.499  10.309  0.2532  0.4264 -0.2531
  100OSM    H5S10016   3.285  -0.551  10.375 -0.0954  1.9707  0.6479
  100OSM    C6S10017   3.416  -0.591  10.211 -0.5068  0.2908 -0.4958
  100OSM    H6S10018   3.345  -0.676  10.217 -1.4187  1.0425 -0.3796
  100OSM    H6T10019   3.518  -0.631  10.230 -0.6051 -0.4423 -1.4707
  100OSM    C7S10020   3.416  -0.541  10.068  0.0199  0.0689 -0.0917
  100OSM    H7S10021   3.463  -0.623  10.010  2.7592  0.6547  1.1778
  100OSM    H7T10022   3.488  -0.457  10.060  0.7232 -0.5097  0.1223
  100OSM    C8S10023   3.283  -0.501  10.012  0.0160 -0.1002 -0.0772
  100OSM    H8S10024   3.239  -0.417  10.070 -1.6558 -1.4631  0.7050
  100OSM    H8T10025   3.213  -0.586  10.004  0.4512 -0.2767 -4.3252
  100OSM    C9S10026   3.313  -0.454   9.870  0.6556  0.1965  0.2315
  100OSM    H9S10027   3.372  -0.523   9.807  0.4881 -2.5364  2.8467
  100OSM    H9T10028   3.369  -0.359   9.886  0.6514 -0.0555  1.9868
  100OSM   C10S10029   3.188  -0.431   9.785 -0.4016  0.2255  0.9361
  100OSM   H10S10030   3.134  -0.338   9.813 -0.5552  1.1876 -2.2084
  100OSM   H10T10031   3.130  -0.525   9.799  0.0566 -0.0055  1.2870
  100OSM   C11S10032   3.219  -0.418   9.637  0.0154  0.3017  0.6321
  100OSM   H11S10033   3.272  -0.513   9.612  0.8942  0.1152  2.9517
  100OSM   H11T10034   3.293  -0.338   9.615 -0.7189  1.3067  1.7315
  100OSM   C12S10035   3.085  -0.419   9.551  0.2311  0.1290 -0.6277
  100OSM   H12S10036   3.027  -0.327   9.573  0.9936  0.3788  0.4310
  100OSM   H12T10037   3.018  -0.493   9.599 -0.7192  1.3714  0.0303
  100OSM   C13S10038   3.109  -0.445   9.404 -0.2179 -0.4121  0.4154
  100OSM   H13S10039   3.150  -0.547   9.391 -0.1828 -0.3202 -0.2561
  100OSM   H13T10040   3.189  -0.375   9.372 -0.7770  0.2509  0.4356
  100OSM   C14S10041   2.981  -0.434   9.322  0.1886 -0.2125  0.3105
  100OSM   H14S10042   2.942  -0.331   9.303  2.9928  0.9311  0.2947
  100OSM   H14T10043   2.898  -0.493   9.366  0.3468 -1.1827 -0.6480
  100OSM   C15S10044   3.001  -0.491   9.180 -0.8925 -0.3856 -0.4083
  100OSM   H15S10045   2.907  -0.480   9.121  0.0992  0.0287 -1.9584
  100OSM   H15T10046   3.030  -0.599   9.183 -1.5757 -0.5737 -0.2358
  100OSM   C16S10047   3.102  -0.404   9.099  0.1064  0.3032 -0.8096
  100OSM   H16S10048   3.206  -0.419   9.136  0.4221 -0.7096 -2.0351
  100OSM   H16T10049   3.077  -0.296   9.090  1.8962  0.8241 -0.0166
  100OSM   C17S10050   3.089  -0.442   8.950 -0.2412 -0.3171  0.2043
  100OSM   H17S10051   3.113  -0.363   8.876 -2.4188 -0.1357 -0.3778
  100OSM   H17T10052   2.989  -0.486   8.933 -0.9764  1.7695 -1.2101
  100OSM   C18S10053   3.185  -0.552   8.909 -0.0604  0.5459 -0.1128
  100OSM   H18S10054   3.159  -0.587   8.807 -0.2597  1.2640 -0.3087
  100OSM   H18T10055   3.167  -0.638   8.978  0.8062  1.1664  0.9147
  100OSM   H18U10056   3.292  -0.522   8.905  0.2672 -0.5993 -0.4894
  100OSM    C1F10057   3.063  -0.124  10.121  0.3143  0.2288  0.5846
  100OSM     OF10058   3.089  -0.008  10.110 -0.5979  0.2366 -0.7215
  100OSM    C2F10059   2.951  -0.187  10.041 -0.8382 -0.2973  0.3864
  100OSM    H2F10060   2.867  -0.221  10.105 -1.2080 -0.3921 -0.1410
  100OSM    H2G10061   2.993  -0.282  10.002 -0.1684 -0.2968  1.0751
  100OSM    C3F10062   2.915  -0.103   9.920 -0.5943  0.3477 -0.3001
  100OSM    H3F10063   3.007  -0.072   9.865 -1.0993  0.5409 -1.0482
  100OSM    H3G10064   2.858  -0.015   9.955 -0.6467  0.4105 -0.5426
  100OSM    C4F10065   2.827  -0.190   9.825  0.3181 -0.1020 -0.4437
  100OSM    H4F10066   2.728  -0.191   9.876  1.9492  3.1767  3.4092
  100OSM    H4G10067   2.872  -0.291   9.821  3.7290  1.2319  0.8214
  100OSM    C5F10068   2.811  -0.147   9.680 -0.2421 -0.1965  0.0940
  100OSM    H5F10069   2.913  -0.155   9.637  1.2486  1.1654  3.0509
  100OSM    H5G10070   2.779  -0.040   9.678 -1.9439 -0.6266  1.6525
  100OSM    C6F10071   2.701  -0.223   9.615  1.2779 -0.0145  0.7652
  100OSM    H6F10072   2.606  -0.200   9.667  0.0366 -1.2588 -0.8419
  100OSM    H6G10073   2.720  -0.332   9.607 -1.2197 -0.4871  0.4677
  100OSM    C7F10074   2.689  -0.179   9.467 -0.4689 -0.6192  0.6121
  100OSM    H7F10075   2.780  -0.219   9.416  0.4713 -0.3583  2.0298
  100OSM    H7G10076   2.678  -0.069   9.472  1.6525 -0.3351  0.1418
  100OSM    C8F10077   2.564  -0.232   9.392 -0.4957  0.2362  0.0936
  100OSM    H8F10078   2.522  -0.145   9.337 -1.7001  0.0320  0.6575
  100OSM    H8G10079   2.492  -0.252   9.474  1.8366 -3.7195  1.4521
  100OSM    C9F10080   2.589  -0.353   9.308 -1.2311  0.1865 -0.2667
  100OSM    H9F10081   2.587  -0.442   9.373 -2.1190  2.0248  2.4076
  100OSM   C10F10082   2.608  -0.364   9.180  0.1053 -0.3898 -0.3122
  100OSM   H10F10083   2.625  -0.463   9.134 -1.5007 -1.6477  1.6419
  100OSM   C11F10084   2.601  -0.242   9.085 -0.4946  0.0515 -0.4718
  100OSM   H11F10085   2.708  -0.212   9.078 -0.9127  2.0295  0.6947
  100OSM   H11G10086   2.539  -0.160   9.128 -0.0696 -0.6106  1.5437
  100OSM   C12F10087   2.537  -0.265   8.953 -0.0302 -0.1372  0.0834
  100OSM   H12F10088   2.447  -0.325   8.978 -0.0722 -0.9344 -1.8049
  100OSM   H12G10089   2.604  -0.320   8.883  2.3167  1.7857  0.7062
  100OSM   C13F10090   2.475  -0.147   8.878 -0.1400  0.1659 -0.1689
  100OSM   H13F10091   2.561  -0.087   8.840  0.7822 -0.2645  1.1560
  100OSM   H13G10092   2.412  -0.081   8.942 -3.5377 -0.8619 -2.1918
  100OSM   C14F10093   2.413  -0.181   8.741 -0.9023  0.2051 -0.4356
  100OSM   H14F10094   2.338  -0.260   8.762 -0.4224 -0.0353  0.4139
  100OSM   H14G10095   2.486  -0.227   8.672 -0.3243 -1.0313  0.9446
  100OSM   C15F10096   2.363  -0.062   8.651  0.1338  0.1130  0.2075
  100OSM   H15F10097   2.442   0.014   8.635  2.4890 -2.0316  0.9783
  100OSM   H15G10098   2.286  -0.018   8.718  1.4227 -0.0652  1.8497
  100OSM   C16F10099   2.300  -0.108   8.526 -0.1762  0.3845  0.0757
  100OSM   H16F10100   2.253  -0.019   8.479 -2.4687 -0.6531  0.2652
  100OSM   H16G10101   2.226  -0.188   8.547  1.2562 -0.6927  1.1720
  100OSM   C17F10102   2.391  -0.169   8.416 -0.2273  0.4067  0.2372
  100OSM   H17F10103   2.447  -0.259   8.450 -0.6892 -0.2435 -0.6571
  100OSM   H17G10104   2.473  -0.096   8.398  0.3335  0.3324  2.2473
  100OSM   C18F10105   2.334  -0.218   8.279 -0.4320 -0.3616 -0.1594
  100OSM   H18F10106   2.416  -0.263   8.221  1.3495  0.9265  1.2205
  100OSM   H18G10107   2.283  -0.137   8.222 -0.3339 -0.3721 -0.2617
  100OSM   H18H10108   2.254  -0.294   8.288  1.7370 -2.9081 -1.1200
  101OSM      N10109   5.120   6.833  10.822 -0.6076 -0.4097 -0.4827
  101OSM    C1510110   4.980   6.791  10.824  0.1306  0.7403  0.1680
  101OSM   H15A10111   4.918   6.856  10.765 -1.1590  0.0285  0.6984
  101OSM   H15B10112   4.933   6.797  10.921 -1.6494 -1.2948 -0.4832
  101OSM   H15C10113   4.976   6.692  10.779 -2.0429  1.1065 -0.5439
  101OSM    C1410114   5.135   6.939  10.929  0.2987 -0.9093  0.0045
  101OSM   H14A10115   5.241   6.954  10.938  0.1927 -0.2548  0.1962
  101OSM   H14B10116   5.095   6.917  11.028 -2.0423  0.2015 -0.6083
  101OSM   H14C10117   5.107   7.036  10.893  1.5316 -0.0486  1.2646
  101OSM    C1310118   5.193   6.708  10.863 -0.2405 -0.7600 -0.7208
  101OSM   H13A10119   5.301   6.715  10.866  0.0133  0.9036 -5.1903
  101OSM   H13B10120   5.169   6.625  10.798 -1.5311 -2.4026  1.7234
  101OSM   H13C10121   5.153   6.681  10.959 -2.7810 -0.2147 -1.5329
  101OSM    C1210122   5.158   6.886  10.690 -0.4249 -0.3183  0.9003
  101OSM   H12A10123   5.094   6.969  10.666 -0.6809 -0.5133  0.8977
  101OSM   H12B10124   5.139   6.811  10.615  0.4566 -1.8111  2.1086
  101OSM    C1110125   5.303   6.941  10.672 -0.2718 -0.3819 -0.0035
  101OSM   H11A10126   5.321   6.965  10.566  0.5654 -1.6991 -0.1732
  101OSM   H11B10127   5.379   6.861  10.677 -0.1138 -0.3255 -1.2638
  101OSM      P10128   5.360   7.196  10.720  0.2527 -0.3122  0.3263
  101OSM    O1310129   5.257   7.286  10.781  0.8807  0.7392  0.0089
  101OSM    O1410130   5.499   7.234  10.756  0.4711  0.5598 -0.0075
  101OSM    O1110131   5.347   7.201  10.563  0.7463  0.1128 -0.3534
  101OSM    O1210132   5.331   7.047  10.767 -0.5386  0.6055 -0.2174
  101OSM    C1S10133   5.451   7.170  10.469  0.3475 -0.4253  0.3710
  101OSM    H1S10134   5.502   7.073  10.492 -0.4218 -1.6794 -2.6741
  101OSM    H1T10135   5.513   7.261  10.459 -1.3734  0.7099 -0.3540
  101OSM     NF10136   5.507   7.088  10.239  0.5819  0.6896  0.0709
  101OSM    HNF10137   5.568   7.132  10.174  0.3545 -0.6986 -1.1572
  101OSM    C2S10138   5.401   7.151  10.317  0.2097  0.0658 -0.0042
  101OSM    H2S10139   5.310   7.087  10.319 -0.1906  0.6515  0.8363
  101OSM    C3S10140   5.348   7.287  10.266 -0.6495  0.1800 -0.1144
  101OSM    H3S10141   5.429   7.362  10.254 -0.7780  0.1168 -1.5081
  101OSM     O310142   5.261   7.357  10.356 -0.1710 -0.1088  0.5487
  101OSM    HO310143   5.270   7.321  10.445  0.7873 -0.6591  0.2483
  101OSM    C4S10144   5.290   7.280  10.124  0.2822 -0.1271 -0.1451
  101OSM    H4S10145   5.360   7.290  10.040  1.6364 -0.1134  0.9492
  101OSM    C5S10146   5.161   7.250  10.093  0.1773  0.1992  0.2819
  101OSM    H5S10147   5.095   7.236  10.179  0.3930  0.6519  0.5218
  101OSM    C6S10148   5.102   7.239   9.951  0.3923 -0.0478  0.8408
  101OSM    H6S10149   4.991   7.238   9.948  0.3965  0.3234  0.5416
  101OSM    H6T10150   5.124   7.135   9.919  0.2613  0.3979 -0.8340
  101OSM    C7S10151   5.152   7.333   9.848  0.4001  0.1337 -0.5130
  101OSM    H7S10152   5.262   7.341   9.863  0.2749  1.3278 -0.1253
  101OSM    H7T10153   5.113   7.437   9.856  0.6727  0.1804  0.4363
  101OSM    C8S10154   5.126   7.300   9.703  0.1162  0.0584 -0.7159
  101OSM    H8S10155   5.018   7.274   9.696  0.7880 -3.2034 -0.7117
  101OSM    H8T10156   5.173   7.200   9.691  1.7815  0.2607  3.0388
  101OSM    C9S10157   5.174   7.400   9.598 -0.0029  0.6466  0.5182
  101OSM    H9S10158   5.280   7.431   9.613  0.6252 -0.1272 -1.8622
  101OSM    H9T10159   5.114   7.492   9.615 -1.2368 -0.0536  0.0573
  101OSM   C10S10160   5.143   7.336   9.467  0.2806 -0.6944 -0.0513
  101OSM   H10S10161   5.042   7.292   9.479  0.1976 -0.6304 -0.4901
  101OSM   H10T10162   5.216   7.256   9.441  1.3289 -0.1286  1.0494
  101OSM   C11S10163   5.149   7.424   9.345 -0.3224  0.6088  0.8581
  101OSM   H11S10164   5.168   7.531   9.369  0.4912  0.9739 -1.2357
  101OSM   H11T10165   5.052   7.420   9.291 -0.7991 -0.2689  1.7434
  101OSM   C12S10166   5.268   7.387   9.245  0.2067 -0.1157  0.0812
  101OSM   H12S10167   5.237   7.304   9.179 -0.5208 -0.9326  1.3966
  101OSM   H12T10168   5.347   7.361   9.319 -2.3372 -0.0420  3.0298
  101OSM   C13S10169   5.306   7.509   9.160 -0.3542  1.0245  0.3800
  101OSM   H13S10170   5.397   7.496   9.098 -1.4617  1.3561 -1.3739
  101OSM   H13T10171   5.307   7.596   9.229 -0.7841  0.6670  0.8462
  101OSM   C14S10172   5.197   7.539   9.051 -1.4510  0.0230  0.1512
  101OSM   H14S10173   5.107   7.584   9.099 -1.8153 -0.4269 -0.0999
  101OSM   H14T10174   5.164   7.445   9.003 -0.4042 -1.4205  2.1429
  101OSM   C15S10175   5.239   7.644   8.948  0.7018  1.0042  0.1081
  101OSM   H15S10176   5.281   7.731   9.001 -1.2900  2.1092 -0.0120
  101OSM   H15T10177   5.148   7.679   8.895 -0.0250 -0.2580  0.4707
  101OSM   C16S10178   5.344   7.584   8.853  0.5116  0.0515  0.9936
  101OSM   H16S10179   5.301   7.501   8.793  0.1660  0.7638  0.2382
  101OSM   H16T10180   5.425   7.545   8.918 -0.1521 -0.2557  1.6437
  101OSM   C17S10181   5.403   7.681   8.753 -0.2052 -0.1194  0.7798
  101OSM   H17S10182   5.398   7.786   8.790  0.8221  0.4802 -0.6837
  101OSM   H17T10183   5.340   7.684   8.662  2.7722  0.2641 -1.4303
  101OSM   C18S10184   5.542   7.636   8.713 -0.4789 -0.2620 -0.5485
  101OSM   H18S10185   5.608   7.638   8.802 -0.7843  1.3647 -0.3185
  101OSM   H18T10186   5.577   7.693   8.624 -0.4768  2.1620  0.9186
  101OSM   H18U10187   5.528   7.532   8.677  0.3212  0.0930 -1.9763
  101OSM    C1F10188   5.526   6.951  10.253  0.2253 -0.7150 -0.3735
  101OSM     OF10189   5.457   6.894  10.339 -0.3096 -0.0550 -0.8758
  101OSM    C2F10190   5.629   6.884  10.167 -0.5347 -0.3018  0.1551
  101OSM    H2F10191   5.689   6.820  10.236  0.5623  3.5397  3.1288
  101OSM    H2G10192   5.696   6.955  10.113  0.4395 -2.3917 -1.5008
  101OSM    C3F10193   5.558   6.807  10.048 -0.6394  0.1584 -0.6400
  101OSM    H3F10194   5.511   6.718  10.094  0.2894  1.1117  2.4589
  101OSM    H3G10195   5.645   6.770   9.990  0.1993 -1.2374  1.3730
  101OSM    C4F10196   5.474   6.885   9.956  0.1354 -0.2291 -0.0188
  101OSM    H4F10197   5.402   6.947  10.015  0.4355 -2.1568  2.5575
  101OSM    H4G10198   5.404   6.829   9.890 -0.2286  0.4190 -0.1846
  101OSM    C5F10199   5.556   6.983   9.875 -0.1659 -0.2194 -0.1894
  101OSM    H5F10200   5.653   6.943   9.838 -0.6516 -2.0529  0.4183
  101OSM    H5G10201   5.580   7.062   9.949 -0.9305 -0.6440  0.5243
  101OSM    C6F10202   5.477   7.042   9.754 -0.3998  0.6207  0.5123
  101OSM    H6F10203   5.446   6.961   9.685  1.4297  0.8285 -0.6167
  101OSM    H6G10204   5.378   7.077   9.791 -1.2263  0.3332 -1.3092
  101OSM    C7F10205   5.552   7.153   9.674  0.2128 -0.2969 -0.5142
  101OSM    H7F10206   5.657   7.128   9.648  0.4183 -0.7383  0.6759
  101OSM    H7G10207   5.556   7.233   9.751 -1.8731 -1.3006  0.7161
  101OSM    C8F10208   5.477   7.204   9.556 -0.9123 -0.4712  0.2448
  101OSM    H8F10209   5.516   7.304   9.525  1.0225 -1.5846 -1.1206
  101OSM    H8G10210   5.373   7.213   9.594 -1.5575  0.7671 -1.6484
  101OSM    C9F10211   5.482   7.120   9.430 -0.3094  0.1926 -0.6021
  101OSM    H9F10212   5.398   7.052   9.410  0.3795 -1.0255  0.4751
  101OSM   C10F10213   5.561   7.135   9.324  0.2593 -0.3854  0.6249
  101OSM   H10F10214   5.553   7.065   9.239  1.7824 -2.4594  2.0984
  101OSM   C11F10215   5.667   7.238   9.303 -0.5778  0.1729  0.4873
  101OSM   H11F10216   5.767   7.192   9.286 -0.9354  0.2816 -2.3854
  101OSM   H11G10217   5.687   7.294   9.397  1.2795  1.7141 -0.7448
  101OSM   C12F10218   5.669   7.334   9.180  0.0612 -0.1157 -0.1576
  101OSM   H12F10219   5.574   7.390   9.165  0.3086  0.4939  0.4764
  101OSM   H12G10220   5.682   7.273   9.089 -1.6906  1.9624 -1.9186
  101OSM   C13F10221   5.778   7.437   9.196  0.2944  0.6213 -0.8237
  101OSM   H13F10222   5.868   7.372   9.208 -0.7230 -0.4305  1.9157
  101OSM   H13G10223   5.769   7.498   9.288  0.1855  0.1046 -0.4876
  101OSM   C14F10224   5.798   7.529   9.078  0.2097  0.4261  0.1909
  101OSM   H14F10225   5.822   7.627   9.124  3.1463 -0.8169  1.5684
  101OSM   H14G10226   5.700   7.527   9.025 -0.2215  0.4045  0.9742
  101OSM   C15F10227   5.916   7.483   8.994 -0.0445 -0.1350  0.7725
  101OSM   H15F10228   5.902   7.374   8.981 -4.0683  0.3532 -0.3275
  101OSM   H15G10229   6.010   7.503   9.050 -0.4258 -1.2690  1.8799
  101OSM   C16F10230   5.912   7.541   8.858  0.1837 -0.0443  0.6944
  101OSM   H16F10231   5.820   7.505   8.808  0.5118 -1.4386  1.0574
  101OSM   H16G10232   6.002   7.500   8.808 -0.5066  0.4382 -1.0256
  101OSM   C17F10233   5.929   7.694   8.850  0.1812  0.2055  0.3112
  101OSM   H17F10234   5.836   7.741   8.888  0.9211  1.0366  1.1479
  101OSM   H17G10235   5.942   7.724   8.744  3.5126 -1.2960  0.1715
  101OSM   C18F10236   6.039   7.751   8.935  0.4168  0.3796  0.2446
  101OSM   H18F10237   6.010   7.749   9.042  1.5853 -2.8866  0.6096
  101OSM   H18G10238   6.062   7.858   8.915  1.1089  0.3008  0.5943
  101OSM   H18H10239   6.139   7.702   8.940  0.2793  0.0340 -0.2378
  102OSM      N10240   1.745   2.815  10.891 -0.1384 -0.7065  0.6908
  102OSM    C1510241   1.743   2.836  10.744  0.4357 -0.1444 -0.1259
  102OSM   H15A10242   1.762   2.937  10.712  5.2732 -1.4689 -2.3236
  102OSM   H15B10243   1.662   2.783  10.695 -0.0534 -1.1753  1.7160
  102OSM   H15C10244   1.826   2.780  10.704  0.0009 -0.0622 -1.2000
  102OSM    C1410245   1.715   2.669  10.902  0.0089 -0.0985  0.2637
  102OSM   H14A10246   1.612   2.652  10.872  1.0687 -1.2678 -3.2257
  102OSM   H14B10247   1.721   2.631  11.003  1.5422 -0.7883 -0.0593
  102OSM   H14C10248   1.786   2.610  10.846  0.5790  2.6842 -2.1740
  102OSM    C1310249   1.884   2.837  10.941 -0.8284 -0.1690 -0.5669
  102OSM   H13A10250   1.886   2.815  11.047  1.6934 -0.7561 -0.6560
  102OSM   H13B10251   1.912   2.941  10.947 -0.9945 -0.1742  0.5664
  102OSM   H13C10252   1.963   2.776  10.899  0.0911 -0.5290  1.5454
  102OSM    C1210253   1.646   2.901  10.966  0.5849 -0.8885  0.4234
  102OSM   H12A10254   1.695   2.997  10.974  0.6013 -0.9601  1.3140
  102OSM   H12B10255   1.651   2.866  11.068 -0.8212 -0.3080  0.7196
  102OSM    C1110256   1.500   2.907  10.910  0.2639  0.4025 -0.3570
  102OSM   H11A10257   1.514   2.967  10.818 -0.0707  3.4322  1.4308
  102OSM   H11B10258   1.438   2.957  10.988 -0.2997 -0.0559 -0.5053
  102OSM      P10259   1.330   2.770  10.767  0.5781 -0.1238 -0.0718
  102OSM    O1310260   1.237   2.659  10.778  0.0880 -0.2377 -0.5001
  102OSM    O1410261   1.269   2.899  10.743  0.1630  0.0088  0.5932
  102OSM    O1110262   1.425   2.732  10.643 -0.1714  0.2894  0.3671
  102OSM    O1210263   1.441   2.785  10.880 -0.2631 -0.2783 -0.5368
  102OSM    C1S10264   1.420   2.831  10.539 -0.4551 -0.2504 -0.1287
  102OSM    H1S10265   1.496   2.908  10.564 -0.6007 -0.6324  1.5687
  102OSM    H1T10266   1.325   2.886  10.521 -0.3503  0.4068  1.2425
  102OSM     NF10267   1.443   2.857  10.287 -0.1695 -0.0226  0.3267
  102OSM    HNF10268   1.367   2.843  10.224  0.7299  1.7171 -1.2536
  102OSM    C2S10269   1.454   2.763  10.402  0.1995 -0.2587 -0.0493
  102OSM    H2S10270   1.559   2.728  10.412 -0.1280 -0.9761  0.9763
  102OSM    C3S10271   1.365   2.638  10.371 -0.1762  0.1631 -0.3114
  102OSM    H3S10272   1.259   2.669  10.358 -0.6133 -1.0571  0.1745
  102OSM     O310273   1.360   2.541  10.479  0.7391  0.1185  0.2070
  102OSM    HO310274   1.406   2.591  10.547  0.6908 -0.4818  0.6842
  102OSM    C4S10275   1.403   2.566  10.246 -0.7376 -0.8496  0.1743
  102OSM    H4S10276   1.353   2.610  10.159  0.9986  3.5175  1.1477
  102OSM    C5S10277   1.474   2.456  10.238 -0.3843 -0.6216 -0.1924
  102OSM    H5S10278   1.528   2.409  10.321  1.2855 -0.2585 -1.0350
  102OSM    C6S10279   1.505   2.385  10.110 -0.1500  0.8615 -0.3966
  102OSM    H6S10280   1.451   2.289  10.093  0.9605 -0.3447  2.3376
  102OSM    H6T10281   1.610   2.351  10.118 -0.2093  0.4096 -1.3695
  102OSM    C7S10282   1.483   2.466   9.975 -0.1468 -1.3164 -0.0143
  102OSM    H7S10283   1.533   2.566   9.976 -2.4810 -0.0475  1.8341
  102OSM    H7T10284   1.375   2.487   9.965 -0.0992  0.0997  1.8409
  102OSM    C8S10285   1.517   2.395   9.848 -0.9063 -0.1242  0.2995
  102OSM    H8S10286   1.471   2.294   9.846 -0.4076 -0.3577 -2.6332
  102OSM    H8T10287   1.624   2.377   9.826 -0.5421  0.6205  1.3595
  102OSM    C9S10288   1.451   2.472   9.729  0.1752  0.5923 -0.3023
  102OSM    H9S10289   1.512   2.563   9.711 -0.1784  0.7054 -0.9625
  102OSM    H9T10290   1.344   2.489   9.754 -0.5494 -2.5841 -0.8080
  102OSM   C10S10291   1.464   2.382   9.605  0.2424  0.0236 -0.2880
  102OSM   H10S10292   1.391   2.299   9.618  1.0686 -0.3278  2.8877
  102OSM   H10T10293   1.570   2.362   9.580  0.1469  1.3900 -2.0303
  102OSM   C11S10294   1.420   2.441   9.472  0.5189  0.0135 -0.2624
  102OSM   H11S10295   1.498   2.509   9.431  0.2143  0.3138 -0.3523
  102OSM   H11T10296   1.323   2.493   9.482  0.7102  0.4890 -0.8088
  102OSM   C12S10297   1.401   2.329   9.366  0.1338  0.1538 -0.0158
  102OSM   H12S10298   1.306   2.277   9.392 -1.0312  1.6938 -0.9857
  102OSM   H12T10299   1.487   2.259   9.369 -1.3960 -1.8071  0.9368
  102OSM   C13S10300   1.383   2.383   9.218  0.1490 -0.8142 -0.1587
  102OSM   H13S10301   1.451   2.471   9.214 -0.4733 -0.3320 -0.3236
  102OSM   H13T10302   1.283   2.430   9.200  1.3594  1.5119 -1.3174
  102OSM   C14S10303   1.407   2.284   9.111 -0.4185  0.3141 -0.4256
  102OSM   H14S10304   1.331   2.203   9.111  0.8508 -0.9203  0.5911
  102OSM   H14T10305   1.506   2.237   9.127 -1.0852 -0.7227  0.9195
  102OSM   C15S10306   1.391   2.347   8.971  0.4187  0.1802 -0.2421
  102OSM   H15S10307   1.460   2.434   8.963  0.1921  0.2484 -1.6921
  102OSM   H15T10308   1.286   2.381   8.954  0.4208  0.4940  0.3426
  102OSM   C16S10309   1.420   2.244   8.857 -0.1953  1.2251 -0.4897
  102OSM   H16S10310   1.423   2.140   8.897  0.1565  1.9522  1.4599
  102OSM   H16T10311   1.515   2.271   8.807 -0.9733  0.6585 -2.3726
  102OSM   C17S10312   1.305   2.245   8.756 -0.0500  0.0229  0.3475
  102OSM   H17S10313   1.284   2.351   8.733  0.3350  0.0490  0.1234
  102OSM   H17T10314   1.203   2.218   8.791 -0.6853  0.6138 -0.9802
  102OSM   C18S10315   1.331   2.170   8.628  0.3793 -0.8325 -0.7690
  102OSM   H18S10316   1.316   2.060   8.636 -0.9053 -0.6814 -0.9282
  102OSM   H18T10317   1.434   2.183   8.589  0.8374  0.5471  0.8247
  102OSM   H18U10318   1.258   2.201   8.550  0.6222 -1.5155 -1.2809
  102OSM    C1F10319   1.517   2.963  10.275 -0.9118 -0.6989 -0.0565
  102OSM     OF10320   1.628   2.983  10.333 -0.4465  0.1901  0.3778
  102OSM    C2F10321   1.456   3.064  10.191 -0.4079 -0.2435 -0.0093
  102OSM    H2F10322   1.402   3.137  10.255  0.0324  2.7261 -2.7336
  102OSM    H2G10323   1.360   3.030  10.148 -1.6878  2.4969  0.4409
  102OSM    C3F10324   1.548   3.134  10.093 -0.0233 -0.3371 -0.6583
  102OSM    H3F10325   1.588   3.060  10.021  0.3681 -0.3526 -0.4291
  102OSM    H3G10326   1.643   3.164  10.143 -1.1217  1.8608  0.2662
  102OSM    C4F10327   1.487   3.257  10.020  0.3110  0.1688 -0.4531
  102OSM    H4F10328   1.451   3.321  10.103 -3.0843  1.0376 -2.4154
  102OSM    H4G10329   1.397   3.216   9.969  1.4265 -1.5290 -1.1429
  102OSM    C5F10330   1.578   3.321   9.917  0.7132  0.9736  0.3524
  102OSM    H5F10331   1.676   3.348   9.962  1.5564 -0.5527 -0.4414
  102OSM    H5G10332   1.533   3.415   9.880 -2.5357 -0.6471 -0.2028
  102OSM    C6F10333   1.595   3.222   9.802 -0.0514 -0.2070  0.2364
  102OSM    H6F10334   1.500   3.174   9.772 -0.2622  0.4851 -0.2255
  102OSM    H6G10335   1.663   3.137   9.826  0.2252 -0.8127 -2.4387
  102OSM    C7F10336   1.651   3.294   9.678 -0.0371 -0.1777  0.0774
  102OSM    H7F10337   1.758   3.323   9.691  0.4446 -2.0316  0.5535
  102OSM    H7G10338   1.592   3.387   9.661 -3.1886 -1.3784  3.2771
  102OSM    C8F10339   1.641   3.198   9.565  0.3796 -0.2288  0.3080
  102OSM    H8F10340   1.543   3.145   9.564 -0.5720  1.4368 -0.5253
  102OSM    H8G10341   1.714   3.118   9.587  1.2441  0.4571  0.0097
  102OSM    C9F10342   1.675   3.259   9.428 -0.2796  0.3678 -0.2564
  102OSM    H9F10343   1.615   3.345   9.393  0.1048 -0.2682 -2.6431
  102OSM   C10F10344   1.755   3.207   9.334  0.6324  0.7845 -0.1597
  102OSM   H10F10345   1.797   3.273   9.256 -1.2612  1.1498 -0.9320
  102OSM   C11F10346   1.832   3.080   9.354  0.3277  0.5292 -0.2964
  102OSM   H11F10347   1.774   2.995   9.311  0.9741 -0.6296  1.0103
  102OSM   H11G10348   1.860   3.064   9.461  1.0601 -1.8381 -0.7841
  102OSM   C12F10349   1.976   3.089   9.302  0.0614  1.1048 -0.4518
  102OSM   H12F10350   2.033   3.005   9.347 -3.3045 -1.2777 -0.2106
  102OSM   H12G10351   2.033   3.181   9.327 -0.8947  1.3615  0.9082
  102OSM   C13F10352   1.988   3.060   9.152  0.0417 -0.0357 -1.6615
  102OSM   H13F10353   1.969   2.953   9.130 -1.0017 -0.5105  1.0981
  102OSM   H13G10354   2.096   3.072   9.129  0.6115  0.9735  1.1395
  102OSM   C14F10355   1.909   3.157   9.066 -0.1573 -0.2520 -0.5049
  102OSM   H14F10356   1.934   3.258   9.106  1.4589 -0.5555 -0.6671
  102OSM   H14G10357   1.804   3.137   9.093 -0.0889  0.2672  0.1555
  102OSM   C15F10358   1.941   3.160   8.915 -0.2917  0.4425 -0.5804
  102OSM   H15F10359   1.872   3.238   8.875 -1.8000  0.3697  1.6832
  102OSM   H15G10360   1.916   3.065   8.864  1.0542 -0.4530  0.3889
  102OSM   C16F10361   2.091   3.192   8.892 -0.5069  0.7465 -0.4188
  102OSM   H16F10362   2.155   3.102   8.907 -0.4835  0.7106 -0.7381
  102OSM   H16G10363   2.120   3.275   8.959 -0.2542  0.5048 -0.2258
  102OSM   C17F10364   2.108   3.227   8.746 -0.6530 -0.6539  0.3940
  102OSM   H17F10365   2.064   3.328   8.731  0.6349  0.0414  1.0717
  102OSM   H17G10366   2.043   3.157   8.691 -1.7205 -0.0232  0.8241
  102OSM   C18F10367   2.248   3.239   8.697 -0.0919 -0.4234 -0.0533
  102OSM   H18F10368   2.288   3.342   8.685  1.3849 -0.5993  2.5292
  102OSM   H18G10369   2.243   3.193   8.597 -1.0683 -2.2788  0.7987
  102OSM   H18H10370   2.319   3.182   8.761  0.2399  0.9687  0.8699
  103OSM      N10371   6.460   4.602  10.921 -0.0551  0.2089  0.1067
  103OSM    C1510372   6.549   4.652  11.027  0.1782 -0.0490  0.2421
  103OSM   H15A10373   6.496   4.716  11.097  0.6444  1.8560 -1.0877
  103OSM   H15B10374   6.644   4.695  10.998 -0.1051  0.2192 -0.2960
  103OSM   H15C10375   6.570   4.562  11.083  1.9202 -1.8186 -2.9925
  103OSM    C1410376   6.547   4.504  10.851 -0.3418  0.2811  0.2880
  103OSM   H14A10377   6.585   4.428  10.917 -1.9061 -1.1239 -0.3697
  103OSM   H14B10378   6.638   4.553  10.818  0.8051  0.2056  3.0499
  103OSM   H14C10379   6.494   4.465  10.766 -2.1655  0.6729  1.1911
  103OSM    C1310380   6.352   4.535  10.985 -0.2360 -0.0041 -0.3255
  103OSM   H13A10381   6.293   4.505  10.900  0.3812 -3.7425  0.3848
  103OSM   H13B10382   6.294   4.613  11.032 -0.4343 -0.8939  0.9522
  103OSM   H13C10383   6.383   4.454  11.050  1.9472  0.6696 -0.4280
  103OSM    C1210384   6.422   4.712  10.824  0.3918 -0.2518 -0.4592
  103OSM   H12A10385   6.508   4.772  10.799 -1.2465  1.9197 -1.2560
  103OSM   H12B10386   6.364   4.780  10.885  0.8630 -0.4464  0.2080
  103OSM    C1110387   6.343   4.679  10.700 -0.1044  0.1507  0.0139
  103OSM   H11A10388   6.410   4.604  10.652 -0.6930  0.4049 -1.2620
  103OSM   H11B10389   6.344   4.760  10.623  0.1807 -0.2770 -0.4409
  103OSM      P10390   6.099   4.717  10.782 -0.2063  0.4839 -0.1759
  103OSM    O1310391   5.985   4.638  10.830 -0.1965 -0.0246  0.2337
  103OSM    O1410392   6.153   4.821  10.874 -0.4727  0.0823 -0.7644
  103OSM    O1110393   6.061   4.800  10.646 -0.7267  0.0153  0.0664
  103OSM    O1210394   6.212   4.621  10.733 -0.0404 -0.2979  0.1895
  103OSM    C1S10395   6.056   4.717  10.532 -0.3697  0.4828  0.5357
  103OSM    H1S10396   5.973   4.644  10.542 -1.4096  1.7788  1.7123
  103OSM    H1T10397   6.147   4.654  10.525 -0.4697  0.1461  2.0303
  103OSM     NF10398   5.992   4.713  10.289  0.3084 -0.5539 -0.5199
  103OSM    HNF10399   6.069   4.679  10.235  0.3610  0.0403 -0.8202
  103OSM    C2S10400   6.032   4.800  10.403 -0.0832  0.0471 -0.2722
  103OSM    H2S10401   5.960   4.882  10.426 -0.0015  1.5382 -4.4227
  103OSM    C3S10402   6.162   4.879  10.376 -0.9012 -0.3045 -0.1556
  103OSM    H3S10403   6.239   4.802  10.352 -0.3910  0.1542  0.0048
  103OSM     O310404   6.208   4.959  10.486 -0.0612  0.0430 -0.1721
  103OSM    HO310405   6.154   4.928  10.559  1.9463  1.6265  2.1452
  103OSM    C4S10406   6.158   4.969  10.261  0.3648 -0.3100  0.3265
  103OSM    H4S10407   6.176   4.915  10.167  0.3899 -1.4011  0.9337
  103OSM    C5S10408   6.143   5.105  10.260  0.4341 -0.1756 -0.6129
  103OSM    H5S10409   6.152   5.160  10.355 -0.8728  1.4619 -1.3946
  103OSM    C6S10410   6.137   5.178  10.132  0.2874  0.3600  0.2498
  103OSM    H6S10411   6.200   5.269  10.125 -1.3702  1.4345 -2.8657
  103OSM    H6T10412   6.039   5.230  10.123  2.0293  4.0723  1.0809
  103OSM    C7S10413   6.157   5.101   9.995 -0.5232 -0.5296 -0.1144
  103OSM    H7S10414   6.095   5.009   9.993  0.7390 -1.4641  1.3913
  103OSM    H7T10415   6.261   5.066   9.976 -1.1558 -1.5975 -1.9009
  103OSM    C8S10416   6.115   5.195   9.879 -0.8561 -0.6027 -0.2729
  103OSM    H8S10417   6.186   5.280   9.873 -1.0529 -0.4439 -0.3611
  103OSM    H8T10418   6.013   5.234   9.901 -0.2191  1.0193  0.0153
  103OSM    C9S10419   6.108   5.121   9.742 -0.6959  0.0273 -0.2566
  103OSM    H9S10420   6.072   5.016   9.741 -0.7758  0.0496  0.0831
  103OSM    H9T10421   6.216   5.119   9.719  0.2034 -0.5931  3.4058
  103OSM   C10S10422   6.049   5.219   9.640  0.1234  0.4527 -0.8401
  103OSM   H10S10423   6.113   5.310   9.638 -0.3928  0.8192 -0.9284
  103OSM   H10T10424   5.956   5.257   9.687  0.1333  1.2389 -1.4247
  103OSM   C11S10425   6.012   5.136   9.510 -0.2333  0.1412 -0.3672
  103OSM   H11S10426   5.939   5.058   9.541  0.1614  1.0015  3.1603
  103OSM   H11T10427   6.102   5.086   9.469  0.9253 -0.1105  2.2781
  103OSM   C12S10428   5.955   5.220   9.403  1.2445  0.0552  0.2557
  103OSM   H12S10429   6.034   5.295   9.384 -0.0778  1.6265  0.7653
  103OSM   H12T10430   5.863   5.265   9.446  2.5332  2.6779  0.4644
  103OSM   C13S10431   5.927   5.146   9.277 -0.7076  0.4599 -0.4492
  103OSM   H13S10432   6.012   5.078   9.252 -0.4571  0.7603 -0.4227
  103OSM   H13T10433   5.917   5.219   9.194  1.1098 -0.5427 -1.6398
  103OSM   C14S10434   5.805   5.062   9.277  0.0222  0.3423 -0.8671
  103OSM   H14S10435   5.705   5.109   9.287 -0.4375 -0.6748 -0.5573
  103OSM   H14T10436   5.812   4.979   9.350 -0.3254  1.7906  0.9177
  103OSM   C15S10437   5.793   4.986   9.140 -0.9671 -0.0420  0.5043
  103OSM   H15S10438   5.712   4.912   9.159 -0.5666 -0.7064 -0.3181
  103OSM   H15T10439   5.889   4.933   9.123 -1.1864 -0.2459 -0.1211
  103OSM   C16S10440   5.754   5.070   9.012 -0.6959  0.7698 -0.2779
  103OSM   H16S10441   5.839   5.137   8.985  0.8026 -1.8153 -2.4293
  103OSM   H16T10442   5.666   5.139   9.015 -0.7806  0.9515 -3.5282
  103OSM   C17S10443   5.725   4.976   8.898  0.2271  0.5209 -0.1881
  103OSM   H17S10444   5.717   5.017   8.795 -0.7607  2.1300  0.4917
  103OSM   H17T10445   5.617   4.950   8.908  0.0066  1.1987 -0.7013
  103OSM   C18S10446   5.797   4.846   8.898 -0.1110 -0.3743  0.1507
  103OSM   H18S10447   5.906   4.866   8.897 -0.5925  2.7839 -1.3240
  103OSM   H18T10448   5.780   4.782   8.809  0.6710 -2.3119  1.3363
  103OSM   H18U10449   5.780   4.786   8.990 -1.5686  1.0663  0.8535
  103OSM    C1F10450   5.869   4.654  10.271  0.0130 -0.8357  0.0963
  103OSM     OF10451   5.771   4.672  10.344  0.5339 -0.0647  0.0680
  103OSM    C2F10452   5.849   4.570  10.148  0.5609 -1.0206 -0.2220
  103OSM    H2F10453   5.830   4.464  10.176  0.8533 -0.7361  1.1163
  103OSM    H2G10454   5.938   4.578  10.083  0.0176  1.9228 -0.7324
  103OSM    C3F10455   5.726   4.625  10.070  0.4779 -0.7062 -0.0421
  103OSM    H3F10456   5.755   4.723  10.027  2.7260 -1.0305  0.6263
  103OSM    H3G10457   5.643   4.641  10.142  1.8334  0.6956  1.2903
  103OSM    C4F10458   5.679   4.530   9.964  0.0724  0.1719  0.5564
  103OSM    H4F10459   5.586   4.576   9.924  0.8769  0.9957 -0.4504
  103OSM    H4G10460   5.661   4.434  10.016  0.4878 -1.0294 -1.4113
  103OSM    C5F10461   5.785   4.510   9.854  0.4446  0.0433  1.0863
  103OSM    H5F10462   5.871   4.455   9.899  1.7175 -0.5691 -1.8611
  103OSM    H5G10463   5.812   4.609   9.813  0.6885 -1.2292 -2.1931
  103OSM    C6F10464   5.726   4.433   9.728  0.7565 -0.6905 -0.3146
  103OSM    H6F10465   5.650   4.507   9.693  0.1786  0.0023  2.2087
  103OSM    H6G10466   5.659   4.356   9.773  0.5810 -1.2705 -1.5170
  103OSM    C7F10467   5.821   4.380   9.622  0.6572  0.2815  0.0103
  103OSM    H7F10468   5.912   4.336   9.669 -0.2157 -0.7782  0.7578
  103OSM    H7G10469   5.849   4.448   9.539 -0.5606 -3.4095 -3.7887
  103OSM    C8F10470   5.747   4.281   9.540 -0.5995  0.1146  0.0110
  103OSM    H8F10471   5.704   4.208   9.612 -2.0799  0.6057 -0.3334
  103OSM    H8G10472   5.819   4.224   9.478  0.1758  0.3648  0.6589
  103OSM    C9F10473   5.638   4.341   9.451 -0.1458 -0.0429 -0.1555
  103OSM    H9F10474   5.553   4.375   9.511 -0.8786  0.0550 -1.2182
  103OSM   C10F10475   5.632   4.365   9.319 -0.0991 -0.1287  0.4936
  103OSM   H10F10476   5.546   4.418   9.275  0.3412 -1.2596 -1.9136
  103OSM   C11F10477   5.738   4.338   9.217  0.2626  0.1268 -0.0412
  103OSM   H11F10478   5.827   4.305   9.275 -1.6612  0.5503  3.4645
  103OSM   H11G10479   5.770   4.425   9.156  0.9354  0.0554  0.1919
  103OSM   C12F10480   5.704   4.215   9.127  0.0870 -0.4636  0.9399
  103OSM   H12F10481   5.622   4.233   9.054  1.1840  1.9181  0.1915
  103OSM   H12G10482   5.678   4.125   9.187 -0.5070 -2.0950 -1.6192
  103OSM   C13F10483   5.822   4.165   9.035  0.6572  0.8698 -0.1520
  103OSM   H13F10484   5.796   4.067   8.990  2.2975  0.1484  0.3935
  103OSM   H13G10485   5.911   4.148   9.099 -0.5370  2.3306  2.0755
  103OSM   C14F10486   5.863   4.256   8.920 -0.2317  0.2175 -0.5528
  103OSM   H14F10487   5.876   4.357   8.964 -0.1747 -0.0993  0.1713
  103OSM   H14G10488   5.770   4.260   8.859 -0.7832  0.1510  0.2568
  103OSM   C15F10489   5.983   4.223   8.835 -0.4250  0.0409  0.0107
  103OSM   H15F10490   6.073   4.225   8.901  0.4835 -3.0098 -0.9887
  103OSM   H15G10491   5.994   4.300   8.755 -0.4049 -0.5620 -0.5687
  103OSM   C16F10492   5.972   4.090   8.755 -0.2491 -0.1966  0.0446
  103OSM   H16F10493   5.879   4.096   8.695 -0.3215  1.3425  0.2916
  103OSM   H16G10494   5.968   4.006   8.828  0.9572 -1.3320 -1.1332
  103OSM   C17F10495   6.089   4.076   8.657 -0.3107 -0.2593 -0.0136
  103OSM   H17F10496   6.179   4.062   8.721 -0.8847 -2.0429  0.4784
  103OSM   H17G10497   6.091   4.167   8.594  0.6537 -0.5876 -0.4830
  103OSM   C18F10498   6.064   3.949   8.569  0.4450 -0.8431 -0.1062
  103OSM   H18F10499   6.129   3.931   8.481  1.4296  0.9425  0.1991
  103OSM   H18G10500   5.955   3.959   8.549  0.3121 -1.8175  0.1083
  103OSM   H18H10501   6.064   3.856   8.629 -0.7033 -0.3215  0.7334
  104OSM      N10502   2.983   4.853  10.934 -0.1242  0.2117  0.4037
  104OSM    C1510503   3.021   4.781  11.060  0.0180  0.9476  0.0061
  104OSM   H15A10504   3.048   4.685  11.018 -0.9469  1.5446 -2.1799
  104OSM   H15B10505   2.932   4.771  11.119 -1.2059 -0.6832 -1.9595
  104OSM   H15C10506   3.110   4.814  11.111  0.6960 -1.5952  0.5934
  104OSM    C1410507   2.889   4.772  10.845  0.3221 -0.5414 -0.1201
  104OSM   H14A10508   2.792   4.753  10.890  0.8846 -1.0162  0.9374
  104OSM   H14B10509   2.923   4.671  10.827  1.4971  0.1490 -2.0128
  104OSM   H14C10510   2.858   4.823  10.755  2.6900 -2.7047 -2.3259
  104OSM    C1310511   2.905   4.977  10.967  0.1016  0.5314  0.2039
  104OSM   H13A10512   2.862   5.025  10.880  0.8301 -0.8023 -0.9454
  104OSM   H13B10513   2.972   5.049  11.011 -0.0942  0.8077  0.0550
  104OSM   H13C10514   2.823   4.965  11.036  0.1256  0.2768  0.1880
  104OSM    C1210515   3.107   4.874  10.862  0.1682 -1.0266  0.5266
  104OSM   H12A10516   3.164   4.782  10.858 -0.1670 -1.2044 -1.3555
  104OSM   H12B10517   3.170   4.942  10.917 -0.1508 -0.5352  0.2888
  104OSM    C1110518   3.103   4.914  10.706 -1.2432  0.3492 -0.6172
  104OSM   H11A10519   3.199   4.963  10.680 -0.7433 -0.2848  0.0064
  104OSM   H11B10520   3.031   4.996  10.686 -0.6666  0.6690 -1.4488
  104OSM      P10521   3.198   4.689  10.612 -0.2678  0.0692 -0.2527
  104OSM    O1310522   3.316   4.755  10.554 -0.0119 -0.3948  0.2848
  104OSM    O1410523   3.220   4.620  10.742 -0.5137 -0.1299 -0.2687
  104OSM    O1110524   3.144   4.590  10.509 -0.2232  0.1372 -0.7584
  104OSM    O1210525   3.081   4.800  10.623  0.3334  0.1608 -0.8386
  104OSM    C1S10526   3.011   4.562  10.485  0.7158  0.6495 -0.0551
  104OSM    H1S10527   2.948   4.654  10.484 -1.2554 -0.5955  1.3057
  104OSM    H1T10528   2.974   4.500  10.569  0.7571  1.0916  0.2951
  104OSM     NF10529   2.846   4.439  10.338 -0.0839  0.2103  0.3486
  104OSM    HNF10530   2.837   4.343  10.311 -1.4249  0.5563 -0.6101
  104OSM    C2S10531   2.990   4.493  10.350  0.5078  0.4388 -0.0070
  104OSM    H2S10532   2.998   4.576  10.277  2.3285 -0.2896 -0.7088
  104OSM    C3S10533   3.086   4.384  10.309  0.1150 -0.4418 -0.2686
  104OSM    H3S10534   3.073   4.303  10.383 -1.0072  0.1199  0.1648
  104OSM     O310535   3.217   4.433  10.321 -0.4483 -0.3628 -0.0269
  104OSM    HO310536   3.207   4.484  10.402  0.0129  3.1326 -1.9855
  104OSM    C4S10537   3.067   4.340  10.170 -0.1407  0.9329  0.1098
  104OSM    H4S10538   3.082   4.422  10.098  0.3491  1.7589  1.1234
  104OSM    C5S10539   3.056   4.208  10.126  0.0458  0.2124 -0.6685
  104OSM    H5S10540   3.066   4.131  10.204  0.8096  0.4057 -0.5643
  104OSM    C6S10541   3.056   4.170   9.982  0.4188  0.5289  0.0114
  104OSM    H6S10542   3.030   4.063   9.964 -0.9705  0.9977 -0.9365
  104OSM    H6T10543   3.157   4.173   9.938  0.9053  0.6481  1.1117
  104OSM    C7S10544   2.963   4.262   9.900  0.2818 -0.0968 -0.0480
  104OSM    H7S10545   2.986   4.370   9.914 -2.0751  0.4039  0.5097
  104OSM    H7T10546   2.864   4.234   9.943  1.2312  0.1076  2.4019
  104OSM    C8S10547   2.967   4.230   9.750  0.2614  0.2130 -0.4546
  104OSM    H8S10548   2.953   4.120   9.758 -0.1598  0.3066  0.1436
  104OSM    H8T10549   3.070   4.243   9.709  0.9638  0.8049  1.4030
  104OSM    C9S10550   2.866   4.301   9.672  0.4978  0.2710  0.9043
  104OSM    H9S10551   2.861   4.411   9.684  1.6015  0.5965 -1.2077
  104OSM    H9T10552   2.764   4.266   9.699  0.0373  1.2420  0.4443
  104OSM   C10S10553   2.873   4.265   9.525 -0.0917 -0.1743 -1.1672
  104OSM   H10S10554   2.848   4.158   9.508 -1.0343 -0.2715  0.6126
  104OSM   H10T10555   2.977   4.274   9.486  0.4555  1.8814  0.5313
  104OSM   C11S10556   2.787   4.355   9.436  0.1042 -0.1613  0.7353
  104OSM   H11S10557   2.786   4.463   9.461  0.0561  0.6943 -2.4891
  104OSM   H11T10558   2.686   4.311   9.446  0.0187  0.5932  4.1138
  104OSM   C12S10559   2.831   4.349   9.290  0.3046  0.3966  0.4892
  104OSM   H12S10560   2.828   4.241   9.265 -1.3783  0.4098  0.5300
  104OSM   H12T10561   2.929   4.399   9.273 -0.7523  2.0869 -0.9964
  104OSM   C13S10562   2.733   4.433   9.201  0.4804 -0.1228 -0.4727
  104OSM   H13S10563   2.722   4.538   9.235 -1.2380 -0.2415 -0.5531
  104OSM   H13T10564   2.636   4.377   9.199  0.7972 -0.6914 -0.1128
  104OSM   C14S10565   2.755   4.439   9.044 -0.2755  0.2477 -0.6139
  104OSM   H14S10566   2.699   4.528   9.008 -2.7131 -1.3579 -1.0117
  104OSM   H14T10567   2.706   4.347   9.006 -0.4039 -0.4181  1.0887
  104OSM   C15S10568   2.906   4.452   9.001  0.0410 -0.3776 -0.4132
  104OSM   H15S10569   2.954   4.353   9.017  2.1904  0.6283 -0.2851
  104OSM   H15T10570   2.967   4.509   9.074 -0.0035 -2.1504  1.0822
  104OSM   C16S10571   2.919   4.503   8.853  0.2882  0.1398  0.3684
  104OSM   H16S10572   2.860   4.593   8.828  1.9540  1.0018 -0.6375
  104OSM   H16T10573   2.880   4.420   8.789  1.8444  0.0503 -0.5063
  104OSM   C17S10574   3.063   4.533   8.815  0.5258 -0.0436 -0.2098
  104OSM   H17S10575   3.101   4.627   8.862 -1.0899  0.0955  0.8954
  104OSM   H17T10576   3.079   4.541   8.706 -2.0230  0.3129 -0.6136
  104OSM   C18S10577   3.163   4.419   8.848 -0.1326 -0.2351 -0.1490
  104OSM   H18S10578   3.134   4.319   8.809  0.2868 -1.9855  3.5497
  104OSM   H18T10579   3.170   4.404   8.958  0.3799  1.2521  0.0351
  104OSM   H18U10580   3.264   4.438   8.806 -0.9273  1.6319 -1.2820
  104OSM    C1F10581   2.736   4.525  10.319 -0.0077  0.3837 -0.3312
  104OSM     OF10582   2.731   4.634  10.369 -0.2123 -0.6164  0.0817
  104OSM    C2F10583   2.625   4.475  10.228  0.0999  0.5125 -0.2667
  104OSM    H2F10584   2.671   4.409  10.151  0.2272 -1.4845  1.4376
  104OSM    H2G10585   2.579   4.564  10.179 -0.0791 -0.1387 -1.3117
  104OSM    C3F10586   2.505   4.413  10.303  0.1394 -0.3340 -0.0897
  104OSM    H3F10587   2.483   4.463  10.399  0.1443 -0.8221  0.1693
  104OSM    H3G10588   2.525   4.311  10.343 -1.8309 -1.4867 -1.8300
  104OSM    C4F10589   2.373   4.409  10.226  0.2232  0.0865  0.1515
  104OSM    H4F10590   2.330   4.507  10.196 -0.3407 -0.6969 -1.7244
  104OSM    H4G10591   2.301   4.364  10.298  1.7149 -0.2650  1.4840
  104OSM    C5F10592   2.385   4.345  10.090 -0.1192  0.7924 -0.7208
  104OSM    H5F10593   2.474   4.378  10.033 -0.1762  1.7175 -0.2857
  104OSM    H5G10594   2.293   4.378  10.037 -1.1619 -1.5218 -0.4987
  104OSM    C6F10595   2.392   4.189  10.108  0.3722  0.0526  0.4402
  104OSM    H6F10596   2.316   4.160  10.184  1.1853  1.0720  1.6836
  104OSM    H6G10597   2.492   4.166  10.151 -0.3044 -0.5983  1.7520
  104OSM    C7F10598   2.371   4.115   9.975  0.3813  0.6719 -0.2030
  104OSM    H7F10599   2.452   4.141   9.905 -0.5663  2.2782 -0.7570
  104OSM    H7G10600   2.279   4.164   9.936 -0.8368  0.1012  1.7594
  104OSM    C8F10601   2.366   3.961   9.983  0.1232  0.5178  0.2855
  104OSM    H8F10602   2.448   3.930  10.051  0.8264  1.7489  0.0218
  104OSM    H8G10603   2.385   3.922   9.880  1.1432  0.3906  0.5061
  104OSM    C9F10604   2.227   3.930  10.029  0.1816 -0.3072  0.6689
  104OSM    H9F10605   2.192   3.994  10.111  0.8515  0.7295  0.1585
  104OSM   C10F10606   2.154   3.826   9.979 -0.4425  0.3551 -0.3541
  104OSM   H10F10607   2.057   3.795  10.020 -0.6353 -0.0573 -1.1030
  104OSM   C11F10608   2.220   3.726   9.877 -0.3904 -0.3313 -0.3680
  104OSM   H11F10609   2.173   3.626   9.895 -2.0641  0.6356  0.9775
  104OSM   H11G10610   2.325   3.713   9.909 -0.9169 -0.6232  1.3730
  104OSM   C12F10611   2.199   3.748   9.730  0.0601 -0.0420  0.3632
  104OSM   H12F10612   2.178   3.853   9.700 -2.3593 -0.7281 -0.5883
  104OSM   H12G10613   2.102   3.702   9.699  0.4947 -1.6933  1.3050
  104OSM   C13F10614   2.310   3.686   9.633 -0.4764 -0.4476  0.2205
  104OSM   H13F10615   2.324   3.583   9.672  3.6632 -1.0615 -2.3008
  104OSM   H13G10616   2.406   3.740   9.648 -0.6046 -0.1976  0.1530
  104OSM   C14F10617   2.284   3.678   9.484 -0.1035  0.0485  0.1128
  104OSM   H14F10618   2.275   3.781   9.443  0.6753 -0.2661 -0.8887
  104OSM   H14G10619   2.195   3.617   9.463  0.9196 -1.6384  0.5007
  104OSM   C15F10620   2.398   3.616   9.401 -0.1524  0.4278  0.1448
  104OSM   H15F10621   2.418   3.511   9.431 -0.3621  0.4914  0.5109
  104OSM   H15G10622   2.492   3.668   9.430 -1.1181  1.1019  2.2175
  104OSM   C16F10623   2.362   3.612   9.248 -0.3379 -0.4680  0.2689
  104OSM   H16F10624   2.328   3.712   9.213  1.1921 -0.2066 -0.5269
  104OSM   H16G10625   2.287   3.533   9.226  0.0785 -0.7677 -0.0685
  104OSM   C17F10626   2.480   3.572   9.160 -0.6380 -0.2538  0.0110
  104OSM   H17F10627   2.533   3.491   9.215  1.8414  0.5014 -1.1262
  104OSM   H17G10628   2.561   3.646   9.141 -1.4430  0.5155 -0.4587
  104OSM   C18F10629   2.439   3.525   9.023  0.2367  0.3224 -0.5756
  104OSM   H18F10630   2.370   3.439   9.034  1.2486 -0.4375  0.0699
  104OSM   H18G10631   2.539   3.499   8.981  0.3331 -0.1788 -0.0519
  104OSM   H18H10632   2.387   3.601   8.962 -1.3409  0.1414  0.4854
  105OSM      N10633   4.453   0.540  10.899 -0.0594 -0.6900  0.5220
  105OSM    C1510634   4.300   0.555  10.881  0.1231 -0.3429  0.4205
  105OSM   H15A10635   4.261   0.586  10.977  3.8144  1.0547  1.6634
  105OSM   H15B10636   4.254   0.459  10.864 -1.9460  0.7057 -0.3253
  105OSM   H15C10637   4.267   0.613  10.796 -0.1846 -2.4371 -0.9522
  105OSM    C1410638   4.500   0.671  10.954  0.3736 -0.8908  0.3472
  105OSM   H14A10639   4.598   0.648  10.993  0.5041  1.0847  1.3425
  105OSM   H14B10640   4.435   0.710  11.031  0.0241 -1.2487  0.2364
  105OSM   H14C10641   4.514   0.750  10.882  1.7880  1.5151  3.0222
  105OSM    C1310642   4.467   0.431  11.003  0.2154  0.1369  0.0313
  105OSM   H13A10643   4.571   0.400  11.006  0.7266  1.7770  0.6147
  105OSM   H13B10644   4.405   0.344  10.988  1.4601 -0.3995 -2.6080
  105OSM   H13C10645   4.434   0.466  11.099  3.4108 -0.6478  1.5738
  105OSM    C1210646   4.528   0.502  10.768 -0.7564  0.3218 -0.1656
  105OSM   H12A10647   4.478   0.419  10.720  1.4020  0.0310 -2.0998
  105OSM   H12B10648   4.626   0.465  10.794 -0.1767  1.9216  0.0377
  105OSM    C1110649   4.550   0.625  10.674  0.2843 -0.3864 -0.2359
  105OSM   H11A10650   4.457   0.685  10.670 -0.1113 -1.0304 -0.7862
  105OSM   H11B10651   4.566   0.588  10.570  2.8694  1.0149 -0.4310
  105OSM      P10652   4.704   0.838  10.649 -0.0218  0.0633  0.4642
  105OSM    O1310653   4.654   0.942  10.739  0.0661 -0.0141  0.3040
  105OSM    O1410654   4.848   0.829  10.613  0.2112 -0.5547 -0.8984
  105OSM    O1110655   4.624   0.862  10.522 -0.5884  0.1080  0.5480
  105OSM    O1210656   4.660   0.702  10.711 -0.2451  0.0062 -0.0299
  105OSM    C1S10657   4.674   0.847  10.391  0.0020 -0.0031  0.3203
  105OSM    H1S10658   4.702   0.742  10.368  1.2139  0.4990 -0.6246
  105OSM    H1T10659   4.765   0.907  10.375  0.9624 -0.8364  2.3085
  105OSM     NF10660   4.639   0.884  10.150  0.3729 -0.0999  0.1022
  105OSM    HNF10661   4.691   0.963  10.117  3.9973 -1.1907  2.6380
  105OSM    C2S10662   4.579   0.891  10.276  0.4070 -0.6398  0.0391
  105OSM    H2S10663   4.488   0.828  10.282  0.7614 -1.2329 -0.7638
  105OSM    C3S10664   4.535   1.037  10.301 -0.0978 -0.2024 -0.0165
  105OSM    H3S10665   4.621   1.107  10.292  0.3784 -0.7256  0.3324
  105OSM     O310666   4.495   1.069  10.429  0.5372 -0.3728 -0.5974
  105OSM    HO310667   4.532   0.998  10.483  0.4989  1.0613  1.4040
  105OSM    C4S10668   4.435   1.085  10.201 -0.0095  0.2575 -0.5337
  105OSM    H4S10669   4.488   1.111  10.108  2.6473 -1.5283  0.3967
  105OSM    C5S10670   4.301   1.088  10.202  0.9865 -0.9475 -0.3493
  105OSM    H5S10671   4.249   1.030  10.279  2.8117 -4.1290 -1.3069
  105OSM    C6S10672   4.210   1.134  10.085  0.1410  0.5407  0.2110
  105OSM    H6S10673   4.162   1.227  10.121  2.6680  0.9345  3.0000
  105OSM    H6T10674   4.133   1.058  10.059  0.6259  0.7082 -1.8659
  105OSM    C7S10675   4.286   1.178   9.965  0.2656  0.0400  0.2112
  105OSM    H7S10676   4.341   1.098   9.912  1.5532  0.2503  1.1836
  105OSM    H7T10677   4.357   1.254  10.006  1.0279 -0.6402  0.1720
  105OSM    C8S10678   4.205   1.259   9.856 -0.8323 -0.7943 -0.1741
  105OSM    H8S10679   4.153   1.345   9.902  0.4742  1.2094 -2.2505
  105OSM    H8T10680   4.142   1.192   9.794  0.0693  0.2323 -2.3230
  105OSM    C9S10681   4.296   1.320   9.746 -0.1652  0.0650  0.3218
  105OSM    H9S10682   4.368   1.239   9.723  1.7181  0.9087  2.8283
  105OSM    H9T10683   4.359   1.406   9.778 -2.3151  1.5066  0.9946
  105OSM   C10S10684   4.234   1.367   9.607 -0.0509 -0.0191 -0.5944
  105OSM   H10S10685   4.314   1.394   9.535  0.5487  0.5660  0.2852
  105OSM   H10T10686   4.170   1.456   9.620  2.2125  1.8281 -1.3653
  105OSM   C11S10687   4.147   1.254   9.549  0.4474  0.0870 -1.4611
  105OSM   H11S10688   4.064   1.246   9.623 -1.5665  3.6609 -2.9976
  105OSM   H11T10689   4.199   1.157   9.542  1.1758  0.4888 -1.8020
  105OSM   C12S10690   4.087   1.286   9.410 -0.5008 -1.0447  0.1040
  105OSM   H12S10691   4.162   1.328   9.339 -1.0690 -0.1118  0.0420
  105OSM   H12T10692   4.025   1.376   9.430  2.4785  0.9718  0.9591
  105OSM   C13S10693   4.016   1.170   9.350 -0.6877 -0.1094 -0.2710
  105OSM   H13S10694   3.929   1.175   9.419 -1.1675  5.0317 -0.9114
  105OSM   H13T10695   4.079   1.080   9.370 -1.2935 -0.0884  2.1209
  105OSM   C14S10696   3.959   1.192   9.209 -0.5604  0.1954 -0.8490
  105OSM   H14S10697   4.045   1.176   9.141  0.2853 -0.3807  0.3380
  105OSM   H14T10698   3.902   1.288   9.209 -1.9693 -0.5920  0.5768
  105OSM   C15S10699   3.859   1.080   9.174 -0.9556  0.0003  0.5168
  105OSM   H15S10700   3.774   1.076   9.245 -1.4959  3.8648  0.2987
  105OSM   H15T10701   3.921   0.990   9.194  0.3099  1.0142  1.2753
  105OSM   C16S10702   3.810   1.098   9.034  0.2690  0.9215  0.0297
  105OSM   H16S10703   3.888   1.091   8.954  0.5374 -0.1924  0.3643
  105OSM   H16T10704   3.772   1.202   9.043  1.1262  1.0742  2.8339
  105OSM   C17S10705   3.702   0.997   9.002  0.6138 -0.7760  0.5502
  105OSM   H17S10706   3.616   1.020   9.068  0.6442 -1.2027  0.7405
  105OSM   H17T10707   3.725   0.891   9.025  0.2288 -1.4579 -1.9800
  105OSM   C18S10708   3.658   0.995   8.853 -0.3914 -0.1988 -0.1937
  105OSM   H18S10709   3.611   1.090   8.820 -1.1359 -0.4679  0.0877
  105OSM   H18T10710   3.596   0.905   8.836 -1.1227  0.3232 -0.3137
  105OSM   H18U10711   3.753   0.978   8.798 -0.2713  0.3400 -0.1667
  105OSM    C1F10712   4.652   0.766  10.086 -0.2449 -0.8780 -0.0939
  105OSM     OF10713   4.625   0.668  10.150 -0.3400 -0.4846 -0.4013
  105OSM    C2F10714   4.701   0.772   9.945 -0.0422  0.0099  0.3885
  105OSM    H2F10715   4.721   0.875   9.910  0.9499  0.0119  0.9197
  105OSM    H2G10716   4.608   0.759   9.886  0.9678  1.2838 -1.5738
  105OSM    C3F10717   4.823   0.682   9.910 -0.2361 -0.4059 -1.0569
  105OSM    H3F10718   4.810   0.577   9.944 -0.3870 -0.8391 -2.4070
  105OSM    H3G10719   4.916   0.726   9.953 -0.8651  0.4028 -0.4688
  105OSM    C4F10720   4.836   0.685   9.760 -0.0248 -0.1582 -0.0951
  105OSM    H4F10721   4.929   0.634   9.726  0.7688  0.7262  0.6903
  105OSM    H4G10722   4.837   0.791   9.729  0.9190 -0.2072 -0.2569
  105OSM    C5F10723   4.725   0.606   9.689 -0.8848 -0.4313  0.2672
  105OSM    H5F10724   4.635   0.671   9.689 -0.7657 -0.2630 -0.4673
  105OSM    H5G10725   4.695   0.518   9.750  2.0642 -1.3746  0.5151
  105OSM    C6F10726   4.758   0.575   9.539  0.9017  0.9488  0.3865
  105OSM    H6F10727   4.860   0.532   9.536 -0.3032 -2.1275 -1.6367
  105OSM    H6G10728   4.776   0.671   9.485  1.4793  1.9803  2.2914
  105OSM    C7F10729   4.672   0.469   9.473  0.1007 -0.2194  0.4713
  105OSM    H7F10730   4.634   0.404   9.554  0.3886  0.5161  1.2041
  105OSM    H7G10731   4.733   0.406   9.404  0.2501 -1.1497  1.4182
  105OSM    C8F10732   4.558   0.535   9.395 -0.3699 -0.7598  0.3593
  105OSM    H8F10733   4.600   0.600   9.315 -2.4664 -1.0082 -1.0370
  105OSM    H8G10734   4.500   0.592   9.470  0.5211  0.2400  0.3199
  105OSM    C9F10735   4.480   0.428   9.328  0.5664 -0.0242 -0.5039
  105OSM    H9F10736   4.419   0.376   9.403  1.5814  2.4511  2.2236
  105OSM   C10F10737   4.477   0.384   9.197 -0.7028 -0.8703  0.3612
  105OSM   H10F10738   4.411   0.302   9.164  0.2955 -1.1056 -1.1354
  105OSM   C11F10739   4.556   0.443   9.080 -0.4285 -0.1337 -0.5244
  105OSM   H11F10740   4.640   0.496   9.129  0.1919 -0.2675 -1.4017
  105OSM   H11G10741   4.492   0.514   9.025  0.5344  2.1619  1.1729
  105OSM   C12F10742   4.609   0.338   8.979 -0.2831 -0.2354 -0.6774
  105OSM   H12F10743   4.622   0.386   8.880 -0.4060  1.6112  0.1595
  105OSM   H12G10744   4.535   0.256   8.969 -0.8119  0.3650 -1.9885
  105OSM   C13F10745   4.740   0.279   9.031 -0.5772 -0.0970 -0.4330
  105OSM   H13F10746   4.712   0.257   9.137 -0.9009 -1.9462 -0.8575
  105OSM   H13G10747   4.829   0.345   9.029 -0.4351 -0.3022 -1.3300
  105OSM   C14F10748   4.787   0.146   8.965 -0.2987 -0.5603 -0.3304
  105OSM   H14F10749   4.718   0.064   8.994 -1.7631  0.7565  0.0235
  105OSM   H14G10750   4.880   0.115   9.018  0.6443  1.5025 -0.6877
  105OSM   C15F10751   4.810   0.152   8.808 -0.5464 -0.0944 -0.0547
  105OSM   H15F10752   4.887   0.230   8.786  0.9764 -1.1710  1.2015
  105OSM   H15G10753   4.718   0.194   8.762 -0.8348  0.7087  1.1866
  105OSM   C16F10754   4.827   0.014   8.739  0.4141 -1.0409 -0.0061
  105OSM   H16F10755   4.825   0.033   8.630 -0.3749 -0.2424  0.1393
  105OSM   H16G10756   4.735  -0.042   8.767  0.0222 -0.4251 -0.0461
  105OSM   C17F10757   4.944  -0.065   8.786 -0.5307  0.1981 -0.6953
  105OSM   H17F10758   5.024   0.005   8.817 -1.8137  1.2940  0.2641
  105OSM   H17G10759   4.979  -0.138   8.710  0.8038 -0.4301  0.4953
  105OSM   C18F10760   4.915  -0.147   8.910  0.3497  0.0344  0.1764
  105OSM   H18F10761   4.836  -0.222   8.887  3.3187 -3.4411  0.2742
  105OSM   H18G10762   4.897  -0.085   9.000  2.3155 -0.8746  1.2803
  105OSM   H18H10763   5.009  -0.203   8.934  0.7096 -0.6544 -2.5125
  106OSM      N10764   1.936   0.744  10.561  0.9022 -0.0330 -0.2087
  106OSM    C1510765   1.844   0.620  10.590 -0.4810 -0.4598 -0.2865
  106OSM   H15A10766   1.812   0.580  10.495 -0.2825 -1.4396  0.0505
  106OSM   H15B10767   1.753   0.658  10.636 -1.4179  1.0057 -3.1334
  106OSM   H15C10768   1.896   0.550  10.654 -1.8547  1.1248  2.8021
  106OSM    C1410769   2.052   0.701  10.488  0.0748 -0.0783 -0.1945
  106OSM   H14A10770   2.118   0.786  10.471 -0.0412  0.3189  1.2015
  106OSM   H14B10771   2.021   0.657  10.394 -2.0411 -2.0934  1.3374
  106OSM   H14C10772   2.103   0.618  10.533 -0.5461 -0.1234  0.4311
  106OSM    C1310773   1.849   0.841  10.473  0.2121 -0.0849 -0.3321
  106OSM   H13A10774   1.840   0.817  10.368 -1.2710  2.3690 -0.8526
  106OSM   H13B10775   1.893   0.940  10.480 -1.1424  0.4479  4.6878
  106OSM   H13C10776   1.750   0.854  10.513  0.5400  2.7318 -0.2120
  106OSM    C1210777   1.966   0.807  10.696  0.0142 -0.1037 -0.1204
  106OSM   H12A10778   2.035   0.741  10.747 -0.8462 -0.2621  0.8900
  106OSM   H12B10779   1.871   0.812  10.747 -0.2938 -0.1215 -0.6928
  106OSM    C1110780   2.043   0.942  10.703 -0.5076 -0.0839  0.3130
  106OSM   H11A10781   2.138   0.923  10.648 -1.2357  1.6083 -1.6749
  106OSM   H11B10782   2.063   0.969  10.809  2.0030 -0.2931 -0.0457
  106OSM      P10783   2.054   1.178  10.608  0.3245 -0.0686 -0.3819
  106OSM    O1310784   1.960   1.264  10.532 -0.4810 -0.0494 -0.4300
  106OSM    O1410785   2.120   1.243  10.728 -0.4758 -0.5900  0.1184
  106OSM    O1110786   2.173   1.137  10.513 -0.4061  0.5624  0.2356
  106OSM    O1210787   1.979   1.042  10.635  0.3603  0.2554  0.3130
  106OSM    C1S10788   2.151   1.053  10.402  0.8791 -0.2432  0.0274
  106OSM    H1S10789   2.070   1.086  10.333 -1.1160 -0.8838  1.9325
  106OSM    H1T10790   2.132   0.949  10.437 -0.8049  1.1716  3.9553
  106OSM     NF10791   2.248   0.967  10.187  0.2298 -0.0908 -0.2404
  106OSM    HNF10792   2.272   0.870  10.195  0.1068 -0.2352 -1.4593
  106OSM    C2S10793   2.277   1.040  10.307  0.0616 -0.2373 -0.4581
  106OSM    H2S10794   2.291   1.149  10.289 -0.2386  0.2570  1.9877
  106OSM    C3S10795   2.408   0.996  10.381  0.5378 -0.0568 -0.1025
  106OSM    H3S10796   2.405   0.887  10.404 -2.0344 -0.1272 -0.4726
  106OSM     O310797   2.426   1.051  10.512  0.1463 -0.2617  0.0388
  106OSM    HO310798   2.340   1.089  10.528  0.1191 -0.2566 -0.1178
  106OSM    C4S10799   2.536   1.020  10.301  0.2489  0.1097 -0.6115
  106OSM    H4S10800   2.563   1.126  10.315  0.2316 -0.0709  0.9176
  106OSM    C5S10801   2.609   0.936  10.222  0.7181 -0.2963 -0.3633
  106OSM    H5S10802   2.569   0.835  10.207 -0.6338  0.3029 -1.0678
  106OSM    C6S10803   2.733   0.982  10.137 -0.0153 -0.5498 -0.2433
  106OSM    H6S10804   2.806   0.904  10.165  2.3397  2.0399  1.3738
  106OSM    H6T10805   2.770   1.084  10.162 -3.3636  0.9430 -0.7923
  106OSM    C7S10806   2.709   0.994   9.983 -0.0330 -0.5442 -0.2654
  106OSM    H7S10807   2.707   0.898   9.926  1.5704 -1.8064  1.6881
  106OSM    H7T10808   2.798   1.053   9.954  0.6625 -0.5041  1.8068
  106OSM    C8S10809   2.586   1.096   9.945 -1.4180  0.1605  0.2320
  106OSM    H8S10810   2.602   1.195   9.993  1.1105  0.5743 -1.2954
  106OSM    H8T10811   2.488   1.063   9.987 -1.7714 -0.6676 -1.1699
  106OSM    C9S10812   2.580   1.113   9.790  0.1578  0.8787  0.0434
  106OSM    H9S10813   2.681   1.119   9.744  1.0352  1.1460  1.9211
  106OSM    H9T10814   2.536   1.212   9.763  0.4151  1.0226  0.1447
  106OSM   C10S10815   2.491   1.012   9.723 -0.4846 -0.3284  0.6711
  106OSM   H10S10816   2.383   1.025   9.746 -0.3824 -1.2395  1.7929
  106OSM   H10T10817   2.530   0.912   9.753  1.2780  0.6493  1.8118
  106OSM   C11S10818   2.498   1.010   9.567  0.0708 -0.2249 -0.0181
  106OSM   H11S10819   2.601   1.026   9.528 -0.2317  0.2670 -0.6187
  106OSM   H11T10820   2.434   1.094   9.533 -1.4043 -1.6901 -1.0186
  106OSM   C12S10821   2.434   0.887   9.511 -0.1500  0.3699 -0.4843
  106OSM   H12S10822   2.337   0.882   9.565  0.8616 -0.1085  1.3634
  106OSM   H12T10823   2.492   0.799   9.547 -0.6333  0.0347 -0.5128
  106OSM   C13S10824   2.422   0.868   9.358 -0.3218  0.1423  0.2005
  106OSM   H13S10825   2.395   0.963   9.306 -0.2612 -0.7623 -1.5362
  106OSM   H13T10826   2.340   0.797   9.337  0.0108  0.3270 -1.9937
  106OSM   C14S10827   2.549   0.817   9.293  0.0886  0.1818  0.3751
  106OSM   H14S10828   2.565   0.711   9.319  1.9140  0.1849 -0.5734
  106OSM   H14T10829   2.636   0.879   9.325  0.3443 -0.7036  1.4258
  106OSM   C15S10830   2.558   0.805   9.142  0.0523 -0.1842 -0.5787
  106OSM   H15S10831   2.651   0.747   9.122  0.4248 -0.5710  1.9672
  106OSM   H15T10832   2.560   0.906   9.097  1.3063 -0.1308 -0.4509
  106OSM   C16S10833   2.452   0.726   9.067  0.5831  0.3746  0.1516
  106OSM   H16S10834   2.358   0.766   9.111  1.4254  2.4993  0.1564
  106OSM   H16T10835   2.467   0.623   9.105  0.3363 -0.1015 -1.0185
  106OSM   C17S10836   2.452   0.748   8.910  0.3003  0.2784  0.9544
  106OSM   H17S10837   2.555   0.729   8.871  0.4010  1.8335  0.3821
  106OSM   H17T10838   2.441   0.857   8.893  0.0135  0.1232  0.0467
  106OSM   C18S10839   2.354   0.662   8.831 -0.3689  0.0963 -0.0279
  106OSM   H18S10840   2.377   0.554   8.823 -3.3014 -0.5822 -0.4582
  106OSM   H18T10841   2.356   0.699   8.727  1.1112 -0.4355 -0.2086
  106OSM   H18U10842   2.252   0.676   8.874 -0.8356 -0.4641 -0.9371
  106OSM    C1F10843   2.185   1.014  10.077 -0.3412  0.0632 -0.4871
  106OSM     OF10844   2.141   1.127  10.071  0.7082 -0.9176 -0.0268
  106OSM    C2F10845   2.186   0.922   9.961  0.4901  0.6412 -0.1334
  106OSM    H2F10846   2.172   0.823  10.008 -3.6333  2.3646  2.9427
  106OSM    H2G10847   2.276   0.933   9.896  0.7235  1.4516  0.3034
  106OSM    C3F10848   2.058   0.933   9.882  0.4330  0.1704 -0.0127
  106OSM    H3F10849   2.063   1.033   9.834  0.6368 -0.0225 -0.3959
  106OSM    H3G10850   1.970   0.925   9.949 -0.4988  0.1657 -1.1924
  106OSM    C4F10851   2.043   0.827   9.782  0.0913 -0.3895  0.2621
  106OSM    H4F10852   2.060   0.725   9.822 -0.4297 -1.5063 -2.1593
  106OSM    H4G10853   2.125   0.827   9.707 -0.6954  0.4566 -0.6259
  106OSM    C5F10854   1.918   0.845   9.703  0.8466 -0.7544 -0.1734
  106OSM    H5F10855   1.896   0.953   9.688  1.2250 -0.5285  0.8098
  106OSM    H5G10856   1.836   0.813   9.771  0.9942 -2.6621 -0.8122
  106OSM    C6F10857   1.912   0.779   9.567 -0.1443 -0.3223 -0.5533
  106OSM    H6F10858   1.948   0.675   9.583  0.4561  0.0969  1.0157
  106OSM    H6G10859   1.985   0.834   9.504  1.6682  0.5002  2.1268
  106OSM    C7F10860   1.770   0.779   9.499 -0.1424 -0.1162 -0.2980
  106OSM    H7F10861   1.732   0.883   9.501 -0.6906 -0.3123 -0.1156
  106OSM    H7G10862   1.698   0.714   9.553 -0.1916  1.7327  2.0043
  106OSM    C8F10863   1.770   0.715   9.356 -0.5606  0.2163 -0.0961
  106OSM    H8F10864   1.668   0.705   9.313 -0.0488  1.0122 -1.5666
  106OSM    H8G10865   1.798   0.609   9.369 -1.5547 -0.0024  0.3888
  106OSM    C9F10866   1.860   0.786   9.261  0.1919  0.6376  0.8343
  106OSM    H9F10867   1.966   0.756   9.267  0.0774 -0.3438 -1.1071
  106OSM   C10F10868   1.826   0.866   9.156  0.2648  0.6777  0.6571
  106OSM   H10F10869   1.905   0.891   9.083 -1.2437 -0.5034 -1.5275
  106OSM   C11F10870   1.684   0.907   9.132 -0.6791 -0.6707 -0.0778
  106OSM   H11F10871   1.695   1.010   9.090  2.1338 -1.2598 -0.9915
  106OSM   H11G10872   1.634   0.926   9.229  1.3594  0.3681  0.8218
  106OSM   C12F10873   1.587   0.823   9.051 -0.0784 -0.5987  0.1435
  106OSM   H12F10874   1.487   0.828   9.097 -0.2053 -2.3800  0.1189
  106OSM   H12G10875   1.615   0.716   9.059  0.7797 -0.3093  1.1684
  106OSM   C13F10876   1.573   0.859   8.903  0.2092  0.3127  0.8486
  106OSM   H13F10877   1.656   0.926   8.870 -0.7282  0.3988 -1.5142
  106OSM   H13G10878   1.484   0.924   8.894  0.9486  1.2011 -0.3394
  106OSM   C14F10879   1.563   0.740   8.811 -0.1065  0.1563 -0.3817
  106OSM   H14F10880   1.469   0.687   8.835  1.4683 -3.3556 -1.2776
  106OSM   H14G10881   1.646   0.671   8.838  0.8130  0.9809 -1.0052
  106OSM   C15F10882   1.568   0.774   8.662 -0.3753  0.2580  0.3615
  106OSM   H15F10883   1.671   0.808   8.636 -0.6801  2.1058  1.3425
  106OSM   H15G10884   1.492   0.854   8.647 -1.0066  0.0304  2.1662
  106OSM   C16F10885   1.518   0.660   8.564 -0.6605 -1.2480  0.5536
  106OSM   H16F10886   1.419   0.620   8.595 -0.5145 -1.6882  0.4550
  106OSM   H16G10887   1.592   0.582   8.591  1.0515  0.8488  2.3458
  106OSM   C17F10888   1.515   0.705   8.415  0.9337  0.1634 -0.5684
  106OSM   H17F10889   1.611   0.751   8.383  1.2918 -0.2375 -0.1005
  106OSM   H17G10890   1.426   0.767   8.390  0.3150 -1.1819 -1.8534
  106OSM   C18F10891   1.504   0.588   8.314  0.5910  0.3581  0.4053
  106OSM   H18F10892   1.580   0.508   8.334 -0.4076 -0.4014  1.2862
  106OSM   H18G10893   1.518   0.632   8.213 -0.0726  2.5647  1.2336
  106OSM   H18H10894   1.406   0.536   8.320  0.5493  0.6054  2.5312
  107OSM      N10895   0.338   4.781  10.576  0.4152  0.2026  0.3641
  107OSM    C1510896   0.389   4.636  10.578  0.0581 -0.5985  0.5771
  107OSM   H15A10897   0.306   4.569  10.597 -0.2444 -0.3858  0.0291
  107OSM   H15B10898   0.473   4.628  10.645  0.5305  0.6772  0.1730
  107OSM   H15C10899   0.423   4.603  10.480  0.7847 -0.0585  0.6438
  107OSM    C1410900   0.291   4.843  10.706  0.6084  0.2458 -0.2235
  107OSM   H14A10901   0.359   4.817  10.786 -0.6157 -0.3377  0.6483
  107OSM   H14B10902   0.198   4.796  10.735  2.4979 -2.2020  2.5117
  107OSM   H14C10903   0.281   4.950  10.705  0.4893  0.2413  0.2401
  107OSM    C1310904   0.459   4.862  10.533 -0.5226 -0.8266 -0.7985
  107OSM   H13A10905   0.445   4.969  10.545 -1.6810 -1.1529  1.1453
  107OSM   H13B10906   0.492   4.857  10.430 -1.7254  1.0599 -1.3497
  107OSM   H13C10907   0.535   4.830  10.603  0.3196 -1.1187 -1.8248
  107OSM    C1210908   0.227   4.797  10.473 -0.1118 -0.5452  0.3415
  107OSM   H12A10909   0.246   4.746  10.380  1.8717 -0.9938  0.9403
  107OSM   H12B10910   0.209   4.900  10.444 -0.2465 -0.4005  0.9146
  107OSM    C1110911   0.092   4.731  10.502 -0.1594  0.0853  0.2335
  107OSM   H11A10912   0.122   4.624  10.515 -0.1096 -0.1759 -1.7024
  107OSM   H11B10913   0.036   4.741  10.406  2.8955 -1.7236 -1.8957
  107OSM      P10914  -0.077   4.703  10.682 -0.1609 -0.1644 -0.3873
  107OSM    O1310915  -0.015   4.584  10.745 -0.1537  0.5198 -0.0987
  107OSM    O1410916  -0.160   4.787  10.771 -0.2935  0.1339  0.1591
  107OSM    O1110917  -0.166   4.653  10.565 -0.1860  0.0411  0.7028
  107OSM    O1210918   0.028   4.788  10.615  0.5761  0.8260  0.0623
  107OSM    C1S10919  -0.228   4.742  10.469  0.2161 -0.0018  0.0534
  107OSM    H1S10920  -0.165   4.833  10.458  1.4313 -0.2699  3.5134
  107OSM    H1T10921  -0.330   4.770  10.503 -0.0082 -1.2517  0.4687
  107OSM     NF10922  -0.299   4.758  10.224 -0.0637 -0.4475 -0.5744
  107OSM    HNF10923  -0.396   4.739  10.206 -0.2331  0.1219 -0.2850
  107OSM    C2S10924  -0.238   4.672  10.327 -0.5954 -0.4802 -0.1795
  107OSM    H2S10925  -0.138   4.657  10.280 -0.4021 -0.6082  0.2639
  107OSM    C3S10926  -0.309   4.536  10.351  0.8657  0.2014 -0.6834
  107OSM    H3S10927  -0.406   4.566  10.395  0.9651  1.7373 -1.4418
  107OSM     O310928  -0.258   4.446  10.452  0.2281  0.6417  0.4265
  107OSM    HO310929  -0.189   4.501  10.489  0.0293  1.3553 -0.2248
  107OSM    C4S10930  -0.323   4.460  10.226  0.6061  0.5812  0.0110
  107OSM    H4S10931  -0.428   4.457  10.193  0.1168  1.1650  1.4170
  107OSM    C5S10932  -0.236   4.373  10.168  0.1992 -0.9768  0.1971
  107OSM    H5S10933  -0.143   4.343  10.218  0.7975 -0.3343 -0.5164
  107OSM    C6S10934  -0.255   4.287  10.041  0.2800 -0.0731 -0.1201
  107OSM    H6S10935  -0.194   4.196  10.057 -0.2164 -0.4561 -0.3601
  107OSM    H6T10936  -0.221   4.344   9.951  1.9074 -3.0780 -1.5294
  107OSM    C7S10937  -0.398   4.229  10.028  0.2971 -0.8605  0.6858
  107OSM    H7S10938  -0.470   4.307   9.995  1.7352  1.5199  2.8226
  107OSM    H7T10939  -0.427   4.205  10.133 -1.8106  1.8833  0.8777
  107OSM    C8S10940  -0.410   4.109   9.931 -0.4934  0.0120 -0.5761
  107OSM    H8S10941  -0.501   4.052   9.960 -0.1713  0.0670  0.5826
  107OSM    H8T10942  -0.329   4.038   9.957 -0.0034  0.8367  0.1921
  107OSM    C9S10943  -0.405   4.162   9.786 -0.7378 -0.0367 -0.2995
  107OSM    H9S10944  -0.311   4.221   9.782 -1.1194  0.5125 -1.2749
  107OSM    H9T10945  -0.491   4.232   9.781 -0.1537  0.6673 -0.6313
  107OSM   C10S10946  -0.422   4.060   9.681 -0.1272  0.3847  0.2602
  107OSM   H10S10947  -0.510   3.997   9.703 -0.5070  1.6574  2.6599
  107OSM   H10T10948  -0.335   3.992   9.689  0.2308  0.9826  1.7851
  107OSM   C11S10949  -0.423   4.132   9.544  0.4316 -0.7684 -0.5271
  107OSM   H11S10950  -0.350   4.216   9.539  1.3141 -1.5755 -2.1260
  107OSM   H11T10951  -0.525   4.175   9.540  0.7705  0.1652  0.4849
  107OSM   C12S10952  -0.413   4.047   9.424 -0.3014 -0.1753 -0.0294
  107OSM   H12S10953  -0.486   3.964   9.432 -0.1811 -0.0564  4.0290
  107OSM   H12T10954  -0.311   4.010   9.445 -0.8068 -1.4929  0.1969
  107OSM   C13S10955  -0.418   4.128   9.293 -0.4351 -0.0504 -0.2636
  107OSM   H13S10956  -0.358   4.221   9.293 -2.4683  1.3674 -2.1646
  107OSM   H13T10957  -0.525   4.158   9.283 -0.7128  0.2988  2.6640
  107OSM   C14S10958  -0.372   4.032   9.176  0.8144 -0.1072  0.1995
  107OSM   H14S10959  -0.448   3.951   9.176 -1.8256  2.2231  1.7995
  107OSM   H14T10960  -0.278   3.981   9.208 -0.0132 -1.2558  0.8713
  107OSM   C15S10961  -0.367   4.087   9.035  0.7219  0.3743 -0.1640
  107OSM   H15S10962  -0.271   4.142   9.032  1.6712 -1.2536 -1.2058
  107OSM   H15T10963  -0.459   4.146   9.013  1.0538  0.2513 -2.0992
  107OSM   C16S10964  -0.349   3.974   8.927 -0.2835  0.6599  0.2962
  107OSM   H16S10965  -0.446   3.931   8.894 -0.2700  0.2845  0.7334
  107OSM   H16T10966  -0.292   3.892   8.975 -4.8749 -1.5788  2.6265
  107OSM   C17S10967  -0.277   4.011   8.795  0.0511  0.1407 -0.9414
  107OSM   H17S10968  -0.318   4.106   8.754  1.7927  1.9823  1.2972
  107OSM   H17T10969  -0.298   3.925   8.728 -1.1395 -0.2376 -0.1232
  107OSM   C18S10970  -0.115   4.029   8.814  0.0038  0.1267  0.1875
  107OSM   H18S10971  -0.064   3.939   8.853  1.5694  0.9458  0.1278
  107OSM   H18T10972  -0.101   4.130   8.859  0.0699  2.0861 -3.7224
  107OSM   H18U10973  -0.076   4.029   8.710  0.1257 -0.0885  0.2337
  107OSM    C1F10974  -0.241   4.870  10.172  0.1302  0.9018 -0.4238
  107OSM     OF10975  -0.124   4.900  10.197  0.0527  0.5140  0.3910
  107OSM    C2F10976  -0.324   4.950  10.077 -0.3462 -0.0588 -0.5630
  107OSM    H2F10977  -0.409   4.988  10.138  0.5903 -2.3537  2.4056
  107OSM    H2G10978  -0.363   4.876  10.004 -2.8070  0.4761  0.1066
  107OSM    C3F10979  -0.233   5.055  10.005 -0.7435 -0.3866 -0.1031
  107OSM    H3F10980  -0.140   5.008   9.966 -1.0229 -0.2071 -1.0061
  107OSM    H3G10981  -0.211   5.131  10.082 -1.8705 -0.7740  0.6217
  107OSM    C4F10982  -0.306   5.131   9.894 -0.1158  0.5193 -0.1881
  107OSM    H4F10983  -0.229   5.202   9.858  0.5541 -0.3260 -0.4480
  107OSM    H4G10984  -0.389   5.191   9.938  1.1946  0.3946  2.6931
  107OSM    C5F10985  -0.344   5.029   9.781 -0.4227 -0.1868  0.1813
  107OSM    H5F10986  -0.442   4.988   9.815 -1.2980  1.9661  0.4501
  107OSM    H5G10987  -0.262   4.955   9.776  0.7733  0.9764  1.6543
  107OSM    C6F10988  -0.366   5.082   9.640  0.4632  0.4488  0.7889
  107OSM    H6F10989  -0.283   5.152   9.616  1.8602 -1.4614 -0.2339
  107OSM    H6G10990  -0.462   5.137   9.627  0.7897  0.6964 -0.6749
  107OSM    C7F10991  -0.353   4.973   9.531  0.8161 -0.5392  0.5020
  107OSM    H7F10992  -0.437   4.904   9.553 -0.6960  0.8970 -0.4880
  107OSM    H7G10993  -0.262   4.912   9.548  0.6844 -0.6773  0.7094
  107OSM    C8F10994  -0.340   5.028   9.388  0.2977 -0.2514 -0.0873
  107OSM    H8F10995  -0.233   5.057   9.390 -0.1282  2.0319 -3.0895
  107OSM    H8G10996  -0.401   5.116   9.357 -0.0501  0.4356  2.3301
  107OSM    C9F10997  -0.358   4.917   9.287 -0.3472 -0.1264 -0.2158
  107OSM    H9F10998  -0.274   4.846   9.288 -0.0767  0.1885  0.3648
  107OSM   C10F10999  -0.442   4.908   9.183 -0.0196 -0.1474  0.1901
  107OSM   H10F11000  -0.437   4.818   9.120  1.7678 -0.2319  0.4038
  107OSM   C11F11001  -0.548   5.006   9.144 -0.5038 -0.5327  0.2616
  107OSM   H11F11002  -0.612   5.039   9.229 -0.4582  0.6932 -0.1705
  107OSM   H11G11003  -0.622   4.957   9.077  0.2085 -0.4532 -0.5889
  107OSM   C12F11004  -0.486   5.132   9.078  0.3375 -0.2416  0.5642
  107OSM   H12F11005  -0.414   5.123   8.994 -0.8468  0.0100 -0.5115
  107OSM   H12G11006  -0.444   5.184   9.167 -0.7785 -0.5806  1.3104
  107OSM   C13F11007  -0.598   5.231   9.025 -0.0490 -0.4067 -0.2579
  107OSM   H13F11008  -0.558   5.329   8.992 -1.1622 -0.6518 -2.5169
  107OSM   H13G11009  -0.669   5.256   9.107 -2.0550 -1.7701 -1.4669
  107OSM   C14F11010  -0.690   5.177   8.911 -0.1956 -0.4587 -0.5776
  107OSM   H14F11011  -0.736   5.081   8.944 -2.9259  0.9046 -0.1427
  107OSM   H14G11012  -0.630   5.148   8.823 -2.5503 -1.5121 -1.9323
  107OSM   C15F11013  -0.800   5.281   8.876 -0.6373  0.3568  0.0936
  107OSM   H15F11014  -0.757   5.381   8.858 -2.4938  0.9607 -1.3346
  107OSM   H15G11015  -0.862   5.286   8.968 -2.4169 -1.2221 -0.9222
  107OSM   C16F11016  -0.880   5.245   8.746  0.0354 -0.1142 -0.3822
  107OSM   H16F11017  -0.933   5.149   8.765  3.5241 -2.0385  0.4252
  107OSM   H16G11018  -0.812   5.231   8.659 -1.5613 -0.0712 -1.6867
  107OSM   C17F11019  -0.993   5.347   8.723 -0.2817 -0.3996  0.0561
  107OSM   H17F11020  -0.950   5.448   8.704  1.4343 -1.0377  0.3782
  107OSM   H17G11021  -1.072   5.336   8.801  0.3203 -1.0664  0.5782
  107OSM   C18F11022  -1.053   5.312   8.585 -0.1496  0.1918 -0.7895
  107OSM   H18F11023  -1.149   5.363   8.566 -0.7535  0.3423  2.1401
  107OSM   H18G11024  -1.076   5.203   8.576  2.8686 -0.5944 -0.0850
  107OSM   H18H11025  -0.976   5.334   8.508  0.4615  2.0026  0.2850
  108OSM      N11026   4.259   1.033  10.752  0.1151  0.1022 -0.3812
  108OSM    C1511027   4.153   1.127  10.696  0.6145  0.3374 -0.1382
  108OSM   H15A11028   4.110   1.183  10.778 -0.1677  0.1813 -0.4410
  108OSM   H15B11029   4.078   1.067  10.648  0.7203  2.0611 -2.6332
  108OSM   H15C11030   4.196   1.205  10.635  0.3423 -0.4932 -1.4242
  108OSM    C1411031   4.355   1.121  10.832 -0.0226 -0.3893 -0.1882
  108OSM   H14A11032   4.393   1.202  10.771 -1.2435  1.1687  1.0323
  108OSM   H14B11033   4.439   1.065  10.870 -0.1592 -0.3578  0.1612
  108OSM   H14C11034   4.301   1.180  10.905  1.3711  1.6732 -0.7374
  108OSM    C1311035   4.182   0.933  10.832  0.8387 -0.0574  0.2613
  108OSM   H13A11036   4.244   0.887  10.908  0.0069  1.1518  1.7145
  108OSM   H13B11037   4.141   0.854  10.771 -0.1509  1.2312 -0.8045
  108OSM   H13C11038   4.097   0.971  10.886 -0.1617 -0.3030 -1.0888
  108OSM    C1211039   4.333   0.960  10.640  0.5072  0.1774 -0.1626
  108OSM   H12A11040   4.414   0.896  10.671  1.3302  2.1928  2.1797
  108OSM   H12B11041   4.381   1.036  10.580 -0.9604  1.2373 -0.0469
  108OSM    C1111042   4.249   0.875  10.535 -0.5010  0.7682 -0.2365
  108OSM   H11A11043   4.309   0.836  10.450  0.9361 -1.7138  1.7799
  108OSM   H11B11044   4.172   0.947  10.500 -1.4533  0.8715  1.9202
  108OSM      P11045   4.077   0.671  10.550  0.2401 -0.1639  0.0016
  108OSM    O1311046   4.080   0.547  10.633 -0.7020 -0.2341 -0.4830
  108OSM    O1411047   3.954   0.751  10.554  0.2108  0.7938  0.0963
  108OSM    O1111048   4.113   0.631  10.403  0.0617 -0.4844  0.8198
  108OSM    O1211049   4.195   0.758  10.599 -0.3890  0.1901 -0.8357
  108OSM    C1S11050   4.247   0.573  10.376 -0.2573  0.1759  0.5214
  108OSM    H1S11051   4.250   0.470  10.416  0.2840 -0.1305 -0.2862
  108OSM    H1T11052   4.336   0.630  10.411  1.1666  0.5867 -3.2550
  108OSM     NF11053   4.397   0.502  10.203  0.5781 -0.4345  0.1193
  108OSM    HNF11054   4.464   0.567  10.169 -0.3351  0.8863  0.7398
  108OSM    C2S11055   4.259   0.550  10.224 -0.3274  0.3529 -0.2927
  108OSM    H2S11056   4.185   0.472  10.199 -0.3799  0.6075 -0.9325
  108OSM    C3S11057   4.226   0.686  10.155 -0.4328  0.3252 -0.1324
  108OSM    H3S11058   4.280   0.762  10.214 -0.0434  1.3244 -1.7132
  108OSM     O311059   4.092   0.734  10.156 -0.5225  0.0228  0.3244
  108OSM    HO311060   4.053   0.685  10.229 -0.2862 -1.3944 -0.4614
  108OSM    C4S11061   4.272   0.683  10.010  0.2487  0.8941  0.6077
  108OSM    H4S11062   4.277   0.579   9.973  1.1357  1.0228  0.3306
  108OSM    C5S11063   4.308   0.781   9.931 -0.5595 -0.2564 -0.7819
  108OSM    H5S11064   4.292   0.885   9.962 -0.2507 -1.0409  2.3272
  108OSM    C6S11065   4.359   0.760   9.792 -0.0233  0.4298  0.0348
  108OSM    H6S11066   4.413   0.664   9.778  0.5348  0.4306  1.8713
  108OSM    H6T11067   4.417   0.844   9.750  0.3888 -1.0540 -2.5911
  108OSM    C7S11068   4.229   0.778   9.696  0.2437  0.3384 -0.0837
  108OSM    H7S11069   4.208   0.887   9.697  0.2681  0.4038  2.5799
  108OSM    H7T11070   4.147   0.721   9.744  1.3383 -0.8657  0.4273
  108OSM    C8S11071   4.248   0.733   9.550  0.5902  0.0205  0.1503
  108OSM    H8S11072   4.301   0.636   9.544  1.9497  0.7295  0.3251
  108OSM    H8T11073   4.322   0.799   9.500  0.9100 -0.1680  0.3712
  108OSM    C9S11074   4.114   0.732   9.477 -0.1431 -0.1824  0.3477
  108OSM    H9S11075   4.070   0.834   9.479  0.8346  0.2396  1.2406
  108OSM    H9T11076   4.065   0.658   9.544 -1.0455 -0.0738 -0.1735
  108OSM   C10S11077   4.117   0.668   9.341 -0.1347  0.1772 -0.0492
  108OSM   H10S11078   4.008   0.655   9.324 -0.2753  0.4350  0.5971
  108OSM   H10T11079   4.160   0.566   9.342 -0.5871 -0.0286 -1.0032
  108OSM   C11S11080   4.179   0.758   9.226  0.0570  0.3261 -0.7212
  108OSM   H11S11081   4.283   0.788   9.249  0.0595  1.0832 -1.7047
  108OSM   H11T11082   4.113   0.845   9.209  1.0294  1.1591 -0.2867
  108OSM   C12S11083   4.196   0.666   9.104 -0.0518 -0.0880  1.3956
  108OSM   H12S11084   4.220   0.562   9.135  0.0124 -0.2504  0.8204
  108OSM   H12T11085   4.281   0.703   9.043 -1.1222 -1.0243 -0.8126
  108OSM   C13S11086   4.065   0.668   9.013 -0.0957  0.4556 -0.5246
  108OSM   H13S11087   3.977   0.669   9.081  0.4568  2.6810  0.2259
  108OSM   H13T11088   4.071   0.576   8.951 -0.4107 -0.3270  0.5761
  108OSM   C14S11089   4.056   0.792   8.926 -0.1013  0.9138 -0.8076
  108OSM   H14S11090   4.053   0.887   8.983 -0.1289 -0.1701  1.0664
  108OSM   H14T11091   3.953   0.775   8.889 -0.1561 -0.9260  0.0607
  108OSM   C15S11092   4.165   0.802   8.819 -0.0491  0.1943 -0.3131
  108OSM   H15S11093   4.253   0.850   8.865 -1.0468 -1.0606  3.2107
  108OSM   H15T11094   4.114   0.868   8.745 -0.0868 -0.1866 -0.6341
  108OSM   C16S11095   4.203   0.662   8.758  0.0687 -0.6468 -0.1711
  108OSM   H16S11096   4.106   0.626   8.720 -0.1224  0.9286 -1.2463
  108OSM   H16T11097   4.246   0.607   8.845 -0.6443 -0.6555  0.1866
  108OSM   C17S11098   4.287   0.673   8.632  0.4316  0.5092 -0.3595
  108OSM   H17S11099   4.314   0.573   8.592 -2.2823 -0.0955 -0.8371
  108OSM   H17T11100   4.381   0.730   8.648  0.9730 -0.7937  1.5126
  108OSM   C18S11101   4.217   0.736   8.515 -0.1004  0.0511 -0.2751
  108OSM   H18S11102   4.253   0.838   8.493 -2.7181  1.2991  0.7705
  108OSM   H18T11103   4.107   0.741   8.531  0.0913  1.2476  0.8147
  108OSM   H18U11104   4.228   0.673   8.424  0.0057 -3.4660  1.9486
  108OSM    C1F11105   4.439   0.379  10.249  0.3343 -0.1019 -0.5340
  108OSM     OF11106   4.353   0.294  10.277  0.5887 -0.4465 -0.6298
  108OSM    C2F11107   4.583   0.355  10.271  0.2443 -0.1631 -0.1256
  108OSM    H2F11108   4.596   0.353  10.382 -0.3380  0.3874 -0.0397
  108OSM    H2G11109   4.635   0.444  10.231  1.6690 -1.1692 -0.6075
  108OSM    C3F11110   4.619   0.215  10.211 -0.6569 -0.0719 -0.1468
  108OSM    H3F11111   4.558   0.131  10.252 -0.3273  0.3127  1.2093
  108OSM    H3G11112   4.721   0.194  10.251 -0.2933  1.6396 -0.1042
  108OSM    C4F11113   4.625   0.214  10.056  0.2082 -0.1941 -0.1780
  108OSM    H4F11114   4.700   0.287  10.018 -1.3228  2.4046  1.4992
  108OSM    H4G11115   4.528   0.256  10.023  1.1860  2.3467 -0.0539
  108OSM    C5F11116   4.653   0.073  10.015 -0.4847 -0.1686  0.3067
  108OSM    H5F11117   4.592  -0.004  10.068 -2.1449  1.4752  0.8831
  108OSM    H5G11118   4.761   0.052  10.032 -0.1578  1.9479  1.1609
  108OSM    C6F11119   4.623   0.045   9.869 -0.4143  0.7263 -1.3127
  108OSM    H6F11120   4.527   0.093   9.842 -1.3021  1.1902  2.2188
  108OSM    H6G11121   4.617  -0.061   9.836  1.1015  0.1946 -0.0023
  108OSM    C7F11122   4.721   0.101   9.770  0.0937  0.2018 -0.4569
  108OSM    H7F11123   4.818   0.047   9.775  0.1012  0.0192 -2.0147
  108OSM    H7G11124   4.743   0.206   9.799  2.1631 -0.4341  0.4680
  108OSM    C8F11125   4.670   0.097   9.625  0.0228  0.5422  0.0069
  108OSM    H8F11126   4.739   0.163   9.569 -0.1258  0.8901  0.2258
  108OSM    H8G11127   4.570   0.143   9.607  0.6636  1.4753 -1.3396
  108OSM    C9F11128   4.680  -0.041   9.561 -0.1021  0.7403 -0.0271
  108OSM    H9F11129   4.767  -0.103   9.586 -1.0544 -1.3437 -1.5493
  108OSM   C10F11130   4.577  -0.105   9.493 -0.8898 -0.1875 -0.3682
  108OSM   H10F11131   4.597  -0.210   9.465  1.4706 -0.4170  1.7968
  108OSM   C11F11132   4.444  -0.050   9.456  0.1770  0.7637  0.2991
  108OSM   H11F11133   4.390   0.002   9.538  0.8180 -0.5121  1.5770
  108OSM   H11G11134   4.383  -0.132   9.411  0.5668  1.8133 -2.3307
  108OSM   C12F11135   4.448   0.054   9.340 -0.1292  0.4356  0.9757
  108OSM   H12F11136   4.528   0.129   9.356  0.5288  1.0704 -3.6999
  108OSM   H12G11137   4.350   0.103   9.324 -0.4676 -0.8756 -1.6605
  108OSM   C13F11138   4.470  -0.009   9.196 -0.1649  0.0006  0.3589
  108OSM   H13F11139   4.573  -0.049   9.191 -0.2996 -0.6837  2.3976
  108OSM   H13G11140   4.479   0.079   9.128 -0.3793  0.1814  0.5623
  108OSM   C14F11141   4.375  -0.121   9.140  0.0801  0.0892 -0.1674
  108OSM   H14F11142   4.266  -0.097   9.140 -0.2181 -1.1464  1.1175
  108OSM   H14G11143   4.384  -0.216   9.197  1.7023 -0.1740 -0.8121
  108OSM   C15F11144   4.425  -0.161   9.001 -0.0939  0.0870  0.3996
  108OSM   H15F11145   4.374  -0.248   8.955 -0.0068 -0.7206  1.7751
  108OSM   H15G11146   4.536  -0.170   9.004 -0.2329 -1.8541  1.0671
  108OSM   C16F11147   4.384  -0.050   8.909  0.4559  0.5427 -0.5427
  108OSM   H16F11148   4.431   0.046   8.936  0.6514 -0.3979  2.9448
  108OSM   H16G11149   4.275  -0.036   8.925  0.8631  3.0892  0.4718
  108OSM   C17F11150   4.415  -0.077   8.759 -0.9990 -0.4835  0.1221
  108OSM   H17F11151   4.330  -0.141   8.726 -0.3030 -1.9373  1.0262
  108OSM   H17G11152   4.511  -0.132   8.751  0.4507  1.9342  0.0230
  108OSM   C18F11153   4.426   0.050   8.672  0.2034 -0.0088 -0.0179
  108OSM   H18F11154   4.327   0.094   8.694  0.2514 -0.5857  1.4963
  108OSM   H18G11155   4.440   0.025   8.564  2.1568 -0.4449  0.3055
  108OSM   H18H11156   4.510   0.110   8.713  0.1676 -0.9957  1.5748
  109OSM      N11157   2.617   3.370  10.851  1.1536 -0.3871 -0.0842
  109OSM    C1511158   2.560   3.401  10.987 -0.4374 -0.1339  0.0969
  109OSM   H15A11159   2.627   3.387  11.071 -0.6677  0.6963  0.4310
  109OSM   H15B11160   2.467   3.349  11.002 -0.0419 -0.6712  0.7332
  109OSM   H15C11161   2.531   3.505  10.986  1.8016  0.5468  0.2944
  109OSM    C1411162   2.733   3.456  10.824 -0.2482 -0.4520 -0.2336
  109OSM   H14A11163   2.782   3.427  10.732 -0.7208  0.6862 -0.8678
  109OSM   H14B11164   2.808   3.441  10.900 -0.4358 -1.1751 -0.1900
  109OSM   H14C11165   2.712   3.562  10.812  1.2913 -0.2731 -1.8370
  109OSM    C1311166   2.659   3.226  10.871  0.5297  0.7379 -0.0359
  109OSM   H13A11167   2.730   3.218  10.953  1.3837 -0.8450 -0.8727
  109OSM   H13B11168   2.710   3.183  10.786  1.3671  1.4003  0.1251
  109OSM   H13C11169   2.572   3.165  10.892  0.9638 -0.5948 -1.8398
  109OSM    C1211170   2.512   3.395  10.748  0.1272 -0.9756 -0.4030
  109OSM   H12A11171   2.557   3.393  10.650  2.6444  0.0307  0.6302
  109OSM   H12B11172   2.475   3.495  10.767 -2.9739 -1.8481 -1.2911
  109OSM    C1111173   2.397   3.295  10.756  0.1679 -0.0922  1.7215
  109OSM   H11A11174   2.438   3.193  10.768  1.6437  0.2176 -0.2242
  109OSM   H11B11175   2.346   3.293  10.657  0.3327  3.4391  1.4106
  109OSM      P11176   2.158   3.396  10.839 -0.0218  0.1559  0.1210
  109OSM    O1311177   2.049   3.300  10.854  0.4250 -0.2313  0.7339
  109OSM    O1411178   2.146   3.519  10.917  0.1956 -0.7149  0.7748
  109OSM    O1111179   2.166   3.433  10.687 -0.1345  0.8279 -0.2969
  109OSM    O1211180   2.302   3.328  10.861  0.3912 -0.1962  0.2365
  109OSM    C1S11181   2.074   3.523  10.626  0.6379  0.2995  0.7936
  109OSM    H1S11182   2.077   3.622  10.677  1.4754  0.2824  0.7830
  109OSM    H1T11183   1.971   3.482  10.627  0.4910  0.3185 -2.4022
  109OSM     NF11184   2.006   3.653  10.423 -0.0966  0.4652  0.1563
  109OSM    HNF11185   1.927   3.625  10.370  1.2326 -1.1025 -1.0946
  109OSM    C2S11186   2.094   3.545  10.475 -0.4390 -0.3583  0.3491
  109OSM    H2S11187   2.198   3.583  10.467  0.4446 -2.6410  0.2400
  109OSM    C3S11188   2.071   3.408  10.407  0.0664 -0.4775 -0.6482
  109OSM    H3S11189   1.975   3.362  10.437  1.0339 -1.3804  1.2112
  109OSM     O311190   2.165   3.307  10.459  0.7151  0.2117  0.0769
  109OSM    HO311191   2.200   3.347  10.539 -1.5475  0.3273  1.0983
  109OSM    C4S11192   2.084   3.425  10.257  0.2773  0.1750  0.2321
  109OSM    H4S11193   2.167   3.487  10.222 -0.1931 -0.1912 -1.6203
  109OSM    C5S11194   2.008   3.365  10.167 -0.3182 -0.1551  1.0185
  109OSM    H5S11195   1.938   3.288  10.203  0.8720 -0.8052  2.0224
  109OSM    C6S11196   2.022   3.374  10.016 -0.1543 -0.1988  0.0602
  109OSM    H6S11197   2.105   3.442   9.988  0.4565 -1.0884 -0.3441
  109OSM    H6T11198   1.927   3.421   9.984  0.0951 -0.0829 -0.5250
  109OSM    C7S11199   2.037   3.243   9.937  0.8851  0.0847 -0.6132
  109OSM    H7S11200   1.950   3.182   9.970  0.4031  1.1464  0.1358
  109OSM    H7T11201   2.127   3.187   9.968 -0.1743  0.3624  3.4895
  109OSM    C8S11202   2.039   3.269   9.787  0.5261  0.5085  0.0486
  109OSM    H8S11203   1.967   3.346   9.752 -0.7142  0.0211  1.4277
  109OSM    H8T11204   1.986   3.183   9.740  2.6200 -0.1046 -1.3463
  109OSM    C9S11205   2.177   3.291   9.728  0.2682  0.0561 -0.0216
  109OSM    H9S11206   2.248   3.215   9.769  1.4880  0.4384 -1.3208
  109OSM    H9T11207   2.219   3.392   9.750  0.6260  0.0915 -0.8338
  109OSM   C10S11208   2.195   3.278   9.569  0.0139 -0.4005 -0.6784
  109OSM   H10S11209   2.187   3.383   9.534 -0.4357  0.8631  2.8033
  109OSM   H10T11210   2.122   3.210   9.521 -0.3888 -0.2644 -0.2697
  109OSM   C11S11211   2.341   3.239   9.530 -0.1161  0.5685 -0.2404
  109OSM   H11S11212   2.357   3.139   9.575 -0.9518 -0.4667 -2.1260
  109OSM   H11T11213   2.414   3.312   9.572  0.8064 -0.1071 -0.6273
  109OSM   C12S11214   2.358   3.219   9.373  0.7343  0.0966  0.1004
  109OSM   H12S11215   2.326   3.314   9.325  3.3744  0.0574 -1.9751
  109OSM   H12T11216   2.292   3.136   9.340 -0.6934  1.2094  0.0868
  109OSM   C13S11217   2.495   3.180   9.330  0.4669  0.2664 -0.7406
  109OSM   H13S11218   2.518   3.085   9.382 -1.5883  0.8991  1.5738
  109OSM   H13T11219   2.562   3.262   9.364 -0.5972  1.4238 -1.3296
  109OSM   C14S11220   2.521   3.165   9.181 -0.5853  0.6176  0.1840
  109OSM   H14S11221   2.508   3.263   9.130  1.7775 -0.8864 -3.7382
  109OSM   H14T11222   2.438   3.103   9.139  0.2785  0.4131 -1.2674
  109OSM   C15S11223   2.665   3.106   9.156  0.3901  0.2630 -0.2349
  109OSM   H15S11224   2.678   3.012   9.213  0.2273 -0.3244 -1.1484
  109OSM   H15T11225   2.727   3.184   9.204  0.7304 -0.0711 -0.1279
  109OSM   C16S11226   2.688   3.096   9.008  0.0815  0.4830 -0.4658
  109OSM   H16S11227   2.783   3.048   8.977 -0.2180 -1.2972  1.2247
  109OSM   H16T11228   2.675   3.199   8.968 -1.1319  0.1194 -1.0371
  109OSM   C17S11229   2.587   3.001   8.939 -0.1553 -0.1209  0.2475
  109OSM   H17S11230   2.491   3.057   8.946 -0.7927 -1.1432 -0.0829
  109OSM   H17T11231   2.593   2.910   9.002 -0.0686  0.3921  0.9939
  109OSM   C18S11232   2.633   2.987   8.794  0.0512  0.2349  1.0964
  109OSM   H18S11233   2.616   3.075   8.729  0.9185 -0.3679  0.0064
  109OSM   H18T11234   2.561   2.912   8.754 -0.5495  0.6578  1.3779
  109OSM   H18U11235   2.733   2.939   8.792  1.1212  2.3433 -1.6171
  109OSM    C1F11236   2.020   3.778  10.469  0.8396 -0.5844  0.2290
  109OSM     OF11237   2.111   3.805  10.547  0.1102 -0.5003  0.1197
  109OSM    C2F11238   1.911   3.873  10.432 -0.1027 -0.6680  0.4924
  109OSM    H2F11239   1.873   3.920  10.525 -1.6833  0.0502 -0.4549
  109OSM    H2G11240   1.825   3.819  10.387  0.3164 -1.6272  0.8242
  109OSM    C3F11241   1.969   3.977  10.328  0.8065  0.1015  0.0479
  109OSM    H3F11242   2.011   3.921  10.242  1.2838 -1.7927  1.4494
  109OSM    H3G11243   2.049   4.022  10.391 -0.6034  0.1754  1.8512
  109OSM    C4F11244   1.870   4.093  10.292  0.0961 -1.2238  0.1166
  109OSM    H4F11245   1.824   4.137  10.383  0.1418  2.0976 -1.3105
  109OSM    H4G11246   1.788   4.046  10.233  1.6184 -1.5052 -1.8843
  109OSM    C5F11247   1.944   4.193  10.203 -0.0605 -0.2402 -0.1121
  109OSM    H5F11248   1.992   4.150  10.113  0.2045  3.6090 -1.9903
  109OSM    H5G11249   2.017   4.244  10.269 -0.5406 -0.1685  0.3777
  109OSM    C6F11250   1.844   4.303  10.152 -0.1591  0.4686 -0.3221
  109OSM    H6F11251   1.788   4.330  10.244  1.0290 -1.8883  1.1979
  109OSM    H6G11252   1.770   4.249  10.090 -1.9230  3.0496 -0.6283
  109OSM    C7F11253   1.910   4.431  10.100 -0.2468  0.3123  0.1435
  109OSM    H7F11254   1.967   4.476  10.184  2.7276 -1.7704 -0.5941
  109OSM    H7G11255   1.844   4.519  10.082 -1.7873 -0.4605  1.7545
  109OSM    C8F11256   2.002   4.405   9.976  1.4249  0.7750  0.1406
  109OSM    H8F11257   2.060   4.312   9.994  1.8281  1.2510  1.3904
  109OSM    H8G11258   2.060   4.497   9.954  0.9465  1.2412  0.7883
  109OSM    C9F11259   1.920   4.376   9.856  0.0711  0.0136 -0.2133
  109OSM    H9F11260   1.831   4.439   9.852  0.0066 -0.0230  0.5113
  109OSM   C10F11261   1.943   4.278   9.760 -0.0827 -0.5383 -0.3707
  109OSM   H10F11262   1.876   4.270   9.673 -2.3479  2.2899  0.9175
  109OSM   C11F11263   2.064   4.186   9.766  0.2509  0.0641  0.7124
  109OSM   H11F11264   2.061   4.112   9.849  2.9644 -3.4466 -1.9866
  109OSM   H11G11265   2.157   4.247   9.781 -0.1946  0.8647  0.3015
  109OSM   C12F11266   2.084   4.117   9.627  0.3637 -0.3964 -0.2958
  109OSM   H12F11267   2.176   4.055   9.627 -0.0169 -0.9826 -1.3715
  109OSM   H12G11268   2.108   4.197   9.554 -0.1005 -0.2511 -0.2908
  109OSM   C13F11269   1.978   4.021   9.581  0.6768  0.6825  0.5490
  109OSM   H13F11270   1.883   4.076   9.595  1.1097  1.3953  0.6938
  109OSM   H13G11271   1.983   3.929   9.644 -4.5318 -2.1527 -2.4115
  109OSM   C14F11272   1.996   3.965   9.436  0.3512 -0.6107 -0.3279
  109OSM   H14F11273   1.916   3.898   9.398 -0.2944  0.5842 -1.1740
  109OSM   H14G11274   2.092   3.909   9.431  0.9827  0.4958 -1.7042
  109OSM   C15F11275   2.006   4.090   9.335 -0.4193  0.2942 -0.0954
  109OSM   H15F11276   2.108   4.132   9.352  0.1678 -0.5198 -1.3894
  109OSM   H15G11277   1.928   4.166   9.353 -0.0874  1.0646 -1.7566
  109OSM   C16F11278   2.004   4.057   9.181 -0.1951 -0.3613 -0.0806
  109OSM   H16F11279   1.902   4.035   9.143 -0.9568  2.0368  0.4204
  109OSM   H16G11280   2.061   3.962   9.175  0.2732 -0.1205  0.5281
  109OSM   C17F11281   2.063   4.161   9.084 -0.5764  0.6575  0.4443
  109OSM   H17F11282   2.152   4.209   9.129 -0.6782  0.3031  1.0474
  109OSM   H17G11283   1.985   4.239   9.072 -0.6410  0.3648 -1.2234
  109OSM   C18F11284   2.091   4.109   8.939  0.2778  0.0737 -0.2559
  109OSM   H18F11285   2.154   4.017   8.939  0.5252  0.2256 -1.5503
  109OSM   H18G11286   2.149   4.180   8.877 -0.4278  0.6819 -0.2360
  109OSM   H18H11287   1.998   4.096   8.880 -1.8365 -0.8332  2.9985
  110OSM      N11288   2.511   1.259  10.796  0.2148  0.0512 -0.1359
  110OSM    C1511289   2.631   1.161  10.788  0.3660 -0.4999 -0.1497
  110OSM   H15A11290   2.720   1.221  10.805 -0.9191  1.0951  1.3666
  110OSM   H15B11291   2.635   1.108  10.694 -2.8230  0.7066 -1.0895
  110OSM   H15C11292   2.624   1.091  10.870 -1.1519  1.2499  1.2928
  110OSM    C1411293   2.482   1.313  10.657 -0.0175  0.6545  0.1005
  110OSM   H14A11294   2.477   1.229  10.589 -0.5561  1.1168 -0.4380
  110OSM   H14B11295   2.562   1.370  10.614 -0.8629  0.3622 -1.9755
  110OSM   H14C11296   2.387   1.364  10.653 -0.2969  0.3770  2.0190
  110OSM    C1311297   2.389   1.186  10.838 -0.1396  0.2952  0.9208
  110OSM   H13A11298   2.401   1.139  10.934 -0.5501 -0.5008  0.5963
  110OSM   H13B11299   2.361   1.100  10.779 -1.0004  0.0261  1.7075
  110OSM   H13C11300   2.300   1.246  10.828 -0.6037 -0.6406 -1.3170
  110OSM    C1211301   2.542   1.374  10.885 -0.1090  0.2986  0.6688
  110OSM   H12A11302   2.631   1.426  10.853 -0.4486  1.1910  1.1196
  110OSM   H12B11303   2.553   1.334  10.985  1.8192  0.6043  0.6197
  110OSM    C1111304   2.422   1.476  10.908 -1.1024 -0.9606  0.6980
  110OSM   H11A11305   2.460   1.543  10.989  0.5591 -0.6723 -0.2806
  110OSM   H11B11306   2.345   1.411  10.954 -0.3162 -1.8937  0.7221
  110OSM      P11307   2.466   1.664  10.731  0.2480 -0.2138 -0.0188
  110OSM    O1311308   2.403   1.796  10.719 -0.5899 -0.1747 -0.3793
  110OSM    O1411309   2.599   1.654  10.795  0.1290 -0.1304  0.3603
  110OSM    O1111310   2.477   1.601  10.591  0.0132 -0.2310  0.0149
  110OSM    O1211311   2.373   1.554  10.795  0.1765  0.3673  0.1442
  110OSM    C1S11312   2.354   1.599  10.505  0.4205  0.7289 -0.4338
  110OSM    H1S11313   2.302   1.697  10.519 -1.6655  0.0591 -2.7968
  110OSM    H1T11314   2.280   1.524  10.539 -1.6649  2.8113 -0.0630
  110OSM     NF11315   2.245   1.602  10.277  0.1463  0.0910  0.7097
  110OSM    HNF11316   2.230   1.535  10.205  1.3654  2.3956 -1.8588
  110OSM    C2S11317   2.371   1.577  10.352 -0.0933  0.3135  0.1731
  110OSM    H2S11318   2.435   1.659  10.313 -1.1639  0.6118 -1.0362
  110OSM    C3S11319   2.448   1.442  10.328 -0.3565  0.4740  0.8101
  110OSM    H3S11320   2.398   1.352  10.370 -0.9538  0.8274  0.8636
  110OSM     O311321   2.569   1.434  10.401  0.8499  0.1704 -0.4902
  110OSM    HO311322   2.557   1.493  10.475  1.0848 -2.1721  1.5453
  110OSM    C4S11323   2.472   1.433  10.177 -0.1581 -0.2437 -0.0825
  110OSM    H4S11324   2.396   1.380  10.119 -0.9231  1.5353 -0.7646
  110OSM    C5S11325   2.579   1.488  10.111  0.5544  1.2839  0.5628
  110OSM    H5S11326   2.662   1.538  10.161  0.8380  0.3613  1.0393
  110OSM    C6S11327   2.589   1.479   9.959 -0.5251 -0.3157  0.4602
  110OSM    H6S11328   2.511   1.414   9.913  1.2942 -1.4683 -1.1674
  110OSM    H6T11329   2.687   1.440   9.926 -1.2125 -0.4465 -1.5443
  110OSM    C7S11330   2.562   1.620   9.895 -0.6674  0.0679  0.3388
  110OSM    H7S11331   2.631   1.696   9.938  0.1789 -0.1155 -0.6643
  110OSM    H7T11332   2.462   1.654   9.932  0.6975  3.0543  1.6463
  110OSM    C8S11333   2.584   1.619   9.740 -0.2001  0.2501 -0.4161
  110OSM    H8S11334   2.685   1.579   9.714 -1.1702 -1.8544 -1.1000
  110OSM    H8T11335   2.582   1.726   9.711 -2.2610  1.1916  2.6857
  110OSM    C9S11336   2.485   1.535   9.654 -0.6047  0.5479 -0.6642
  110OSM    H9S11337   2.384   1.581   9.668 -0.9146  0.0743 -1.2939
  110OSM    H9T11338   2.466   1.431   9.688  0.0142  0.0407 -1.8331
  110OSM   C10S11339   2.524   1.519   9.507 -0.4612 -0.3313 -0.0640
  110OSM   H10S11340   2.623   1.469   9.498  1.0589  2.6643 -1.7436
  110OSM   H10T11341   2.530   1.617   9.455  0.6614  0.0230  0.6793
  110OSM   C11S11342   2.435   1.424   9.425  0.5157 -0.6520  0.1091
  110OSM   H11S11343   2.331   1.457   9.446  1.2717  1.8635  0.1802
  110OSM   H11T11344   2.439   1.319   9.460 -0.9281 -0.8373 -0.2375
  110OSM   C12S11345   2.443   1.428   9.276 -0.0078  0.6190 -0.0411
  110OSM   H12S11346   2.548   1.414   9.242  0.4698  2.0423  0.7705
  110OSM   H12T11347   2.408   1.526   9.238 -1.6610 -0.4135 -1.3417
  110OSM   C13S11348   2.357   1.323   9.204  0.2260 -0.8014  0.5352
  110OSM   H13S11349   2.252   1.358   9.206  1.0962  2.0854  2.3785
  110OSM   H13T11350   2.376   1.226   9.256  1.7326 -0.6979  0.2319
  110OSM   C14S11351   2.397   1.308   9.052 -0.2740  0.0530  1.0677
  110OSM   H14S11352   2.503   1.342   9.050 -1.2469  3.3277 -0.4660
  110OSM   H14T11353   2.340   1.389   9.004 -2.1163 -1.2591  0.9379
  110OSM   C15S11354   2.380   1.174   8.984  0.2202 -0.2240  0.2845
  110OSM   H15S11355   2.281   1.133   9.013 -0.0290  0.7706  0.8926
  110OSM   H15T11356   2.458   1.112   9.034  0.1769 -1.9487 -1.6702
  110OSM   C16S11357   2.406   1.169   8.833  0.5609 -0.3148  0.2109
  110OSM   H16S11358   2.421   1.069   8.785  0.9560  0.1623 -0.6946
  110OSM   H16T11359   2.497   1.228   8.810  0.9200 -0.8487  0.2596
  110OSM   C17S11360   2.285   1.228   8.764  0.1491 -0.3123  0.0887
  110OSM   H17S11361   2.279   1.338   8.778  0.7348 -0.5140  2.1260
  110OSM   H17T11362   2.201   1.184   8.821 -1.3786  0.0837 -1.7490
  110OSM   C18S11363   2.292   1.196   8.607  1.0905  0.5702 -0.7568
  110OSM   H18S11364   2.379   1.250   8.564  0.5795  1.8450 -0.2532
  110OSM   H18T11365   2.207   1.229   8.544  0.4757 -0.6136 -0.5634
  110OSM   H18U11366   2.293   1.087   8.586 -0.8024  0.7226 -1.8853
  110OSM    C1F11367   2.172   1.713  10.271  0.6252  0.4794 -0.0843
  110OSM     OF11368   2.191   1.810  10.343 -0.3897  0.5320 -0.1513
  110OSM    C2F11369   2.050   1.706  10.174 -0.5758 -0.1323 -0.8598
  110OSM    H2F11370   1.982   1.628  10.215  1.4302 -1.5464 -0.0481
  110OSM    H2G11371   2.087   1.662  10.079  0.8367  1.7348 -1.2131
  110OSM    C3F11372   1.986   1.843  10.170 -0.9787 -0.6669 -0.2728
  110OSM    H3F11373   2.064   1.916  10.139 -0.3373 -0.9656  0.5889
  110OSM    H3G11374   1.972   1.884  10.273  0.2996  1.9622 -1.0341
  110OSM    C4F11375   1.859   1.843  10.080  0.2857  0.0160  0.5642
  110OSM    H4F11376   1.895   1.815   9.979 -1.5266 -3.2198  0.7036
  110OSM    H4G11377   1.823   1.948  10.078 -0.8166 -0.3547 -0.1774
  110OSM    C5F11378   1.740   1.763  10.135 -0.0448  0.9757  0.3179
  110OSM    H5F11379   1.731   1.790  10.242  0.7645  1.5337  0.2586
  110OSM    H5G11380   1.765   1.656  10.116  0.5873  1.3442 -1.1155
  110OSM    C6F11381   1.609   1.808  10.063  0.1453  0.0264 -0.0385
  110OSM    H6F11382   1.597   1.760   9.963 -2.4515  0.4317  0.0020
  110OSM    H6G11383   1.630   1.917  10.051 -0.1188 -0.0069 -0.8452
  110OSM    C7F11384   1.478   1.785  10.137 -0.6519 -0.4925 -1.1754
  110OSM    H7F11385   1.481   1.846  10.230  1.0599 -1.9650 -0.2205
  110OSM    H7G11386   1.465   1.686  10.184  0.6517  0.7440  2.0529
  110OSM    C8F11387   1.354   1.829  10.047 -0.5741 -0.1835  0.2698
  110OSM    H8F11388   1.256   1.797  10.089 -0.3618 -2.9444 -1.1163
  110OSM    H8G11389   1.358   1.758   9.962  1.2117 -0.0208  0.1693
  110OSM    C9F11390   1.353   1.977  10.011 -0.4516 -0.7529 -0.2332
  110OSM    H9F11391   1.366   2.054  10.089 -1.1914 -0.0805 -0.7640
  110OSM   C10F11392   1.332   2.014   9.884  0.0651  0.1408 -0.7418
  110OSM   H10F11393   1.321   2.119   9.854  2.0171  0.4626 -0.4569
  110OSM   C11F11394   1.314   1.918   9.768 -0.4390 -0.1492  0.2986
  110OSM   H11F11395   1.216   1.866   9.774 -1.2342  0.9920 -1.6312
  110OSM   H11G11396   1.390   1.837   9.766  1.5837  1.6454 -1.1483
  110OSM   C12F11397   1.314   1.984   9.629  0.2660  0.3310 -0.9859
  110OSM   H12F11398   1.393   2.060   9.609 -0.1190  0.8047 -0.7432
  110OSM   H12G11399   1.214   2.031   9.620 -1.1343 -1.9836  1.2415
  110OSM   C13F11400   1.330   1.880   9.515  0.3588 -0.2493 -0.6479
  110OSM   H13F11401   1.236   1.822   9.520  1.0821 -1.3649  0.5443
  110OSM   H13G11402   1.417   1.811   9.522  0.8929  0.3401 -1.3120
  110OSM   C14F11403   1.352   1.943   9.379  0.0836  0.6624 -0.3992
  110OSM   H14F11404   1.452   1.991   9.382  0.8782 -0.9168 -0.1189
  110OSM   H14G11405   1.283   2.027   9.360 -0.7958 -0.1331 -0.8462
  110OSM   C15F11406   1.338   1.833   9.277  0.6091 -0.6948  0.8801
  110OSM   H15F11407   1.243   1.781   9.302  0.2536 -0.7547 -0.4935
  110OSM   H15G11408   1.421   1.762   9.292 -0.1430 -1.7434  0.1797
  110OSM   C16F11409   1.346   1.885   9.128 -0.7042 -0.5939 -0.5189
  110OSM   H16F11410   1.378   1.797   9.068  1.2307 -0.5480  0.3448
  110OSM   H16G11411   1.428   1.959   9.115 -2.1607  1.6112  1.9713
  110OSM   C17F11412   1.218   1.950   9.069 -0.0095  0.7089 -0.4846
  110OSM   H17F11413   1.243   1.977   8.964 -1.4825 -0.2138 -1.1086
  110OSM   H17G11414   1.193   2.046   9.119  1.1963  0.2691  1.0264
  110OSM   C18F11415   1.096   1.855   9.071  0.5088 -0.4145 -0.4627
  110OSM   H18F11416   1.070   1.824   9.174 -1.9066  0.7973 -0.6349
  110OSM   H18G11417   1.133   1.774   9.004  0.5476  1.0214 -2.2628
  110OSM   H18H11418   1.007   1.909   9.031 -1.9193 -1.1771  3.4257
  111OSM      N11419   3.916   6.340  10.807  0.2277  0.6275 -0.7956
  111OSM    C1511420   3.793   6.256  10.840 -0.9694 -0.3898 -0.3147
  111OSM   H15A11421   3.786   6.174  10.770 -3.9258  0.7308 -1.4694
  111OSM   H15B11422   3.704   6.317  10.852  0.1621  1.4312 -0.6998
  111OSM   H15C11423   3.815   6.228  10.942  1.0731  0.9487 -0.3227
  111OSM    C1411424   3.945   6.425  10.922 -0.2769  0.7699  0.2159
  111OSM   H14A11425   3.857   6.480  10.951 -0.4195  0.7261 -0.1287
  111OSM   H14B11426   4.014   6.500  10.887 -1.6499  0.5524 -3.3863
  111OSM   H14C11427   3.989   6.376  11.008 -0.1145  2.4478  1.1437
  111OSM    C1311428   4.035   6.248  10.783  0.6632 -0.8281  0.2109
  111OSM   H13A11429   4.059   6.178  10.861  0.2255 -0.7777  0.3936
  111OSM   H13B11430   4.117   6.318  10.769 -0.9497  1.3972  1.2000
  111OSM   H13C11431   4.018   6.189  10.694 -0.1452 -2.3545  1.3392
  111OSM    C1211432   3.894   6.417  10.680  0.3443 -0.8675  0.8827
  111OSM   H12A11433   3.798   6.466  10.677  0.2886 -0.9669  1.0560
  111OSM   H12B11434   3.889   6.351  10.594  2.2786  0.7138 -0.5603
  111OSM    C1111435   3.989   6.535  10.628 -0.3345 -0.2323  0.5586
  111OSM   H11A11436   3.957   6.586  10.534 -2.8044  1.5017  2.2150
  111OSM   H11B11437   4.089   6.492  10.605 -0.2768 -0.6873  1.6050
  111OSM      P11438   3.925   6.746  10.774 -0.0971  0.3076 -0.0945
  111OSM    O1311439   3.793   6.695  10.823 -0.2562 -0.3266  0.1508
  111OSM    O1411440   3.993   6.835  10.872 -0.5164  0.5073 -0.2740
  111OSM    O1111441   3.888   6.827  10.649 -0.3712  0.3932  0.0775
  111OSM    O1211442   4.014   6.629  10.734 -0.4275  0.4731  0.2400
  111OSM    C1S11443   3.984   6.880  10.560  0.5396  0.5548 -0.6957
  111OSM    H1S11444   4.023   6.789  10.509  0.2103  1.3906 -2.5219
  111OSM    H1T11445   4.078   6.916  10.608  0.3084  0.0105  0.1772
  111OSM     NF11446   4.035   6.969  10.325  0.7795  0.0289 -0.4853
  111OSM    HNF11447   4.093   7.051  10.323 -0.0015  0.6782  1.3493
  111OSM    C2S11448   3.934   6.951  10.430  0.0802 -0.0878 -0.4365
  111OSM    H2S11449   3.856   6.887  10.382 -0.5586  1.4118 -1.4784
  111OSM    C3S11450   3.871   7.085  10.455  0.3560  0.3439  0.0111
  111OSM    H3S11451   3.945   7.152  10.504 -0.6458  1.4410  0.0551
  111OSM     O311452   3.775   7.084  10.560 -0.5302 -0.8327  0.5272
  111OSM    HO311453   3.796   6.999  10.602  0.9537  0.2135  2.0561
  111OSM    C4S11454   3.809   7.148  10.332 -0.4156 -0.3144  0.6035
  111OSM    H4S11455   3.713   7.101  10.303  0.7071 -2.9227  0.8543
  111OSM    C5S11456   3.853   7.254  10.262  0.2624 -0.0800 -0.4644
  111OSM    H5S11457   3.943   7.313  10.288  0.5596 -1.7132  2.6087
  111OSM    C6S11458   3.777   7.303  10.135  0.3211  0.1981 -0.2743
  111OSM    H6S11459   3.724   7.400  10.144  0.3592  0.0911  1.5310
  111OSM    H6T11460   3.696   7.239  10.094  1.2598 -0.2141 -1.5747
  111OSM    C7S11461   3.879   7.324  10.013  0.1752 -0.1201 -0.2816
  111OSM    H7S11462   3.963   7.388  10.049 -0.7380  1.3165 -0.6248
  111OSM    H7T11463   3.824   7.379   9.933  0.0990 -2.2684 -1.8125
  111OSM    C8S11464   3.940   7.195   9.960  0.0043  0.4110 -1.2724
  111OSM    H8S11465   3.864   7.131   9.910 -1.2082 -0.1380  1.1279
  111OSM    H8T11466   3.984   7.142  10.048 -0.7159  0.7921 -0.6722
  111OSM    C9S11467   4.049   7.221   9.847  0.1127  0.1268  0.4770
  111OSM    H9S11468   4.121   7.303   9.868 -1.9226  2.4253 -1.0270
  111OSM    H9T11469   3.999   7.265   9.758  1.5262  0.0443 -0.3919
  111OSM   C10S11470   4.118   7.083   9.811 -0.5600  0.3443  0.0828
  111OSM   H10S11471   4.032   7.031   9.764 -0.7456  1.3604 -0.7357
  111OSM   H10T11472   4.156   7.030   9.901 -2.0491 -0.8088  0.0700
  111OSM   C11S11473   4.228   7.103   9.710  0.8404 -0.1779 -0.7877
  111OSM   H11S11474   4.275   7.005   9.687  2.5851  0.6032 -0.7278
  111OSM   H11T11475   4.305   7.171   9.752 -1.2576  1.9352 -0.1766
  111OSM   C12S11476   4.178   7.169   9.578  0.6496  0.5893  0.1983
  111OSM   H12S11477   4.267   7.184   9.514  1.1237 -1.3123  0.3439
  111OSM   H12T11478   4.123   7.265   9.590 -0.5637 -0.0241 -0.2774
  111OSM   C13S11479   4.083   7.075   9.494  0.4672 -0.2320  0.3683
  111OSM   H13S11480   3.991   7.053   9.552  0.2214  1.8224  0.8218
  111OSM   H13T11481   4.137   6.979   9.479  0.6075 -0.2751  1.1065
  111OSM   C14S11482   4.037   7.138   9.358 -0.1802  0.7942  0.0375
  111OSM   H14S11483   4.121   7.187   9.302  0.9351 -1.7748 -0.6803
  111OSM   H14T11484   3.965   7.220   9.379  0.9915  1.8468  0.0544
  111OSM   C15S11485   3.976   7.034   9.263  0.4994  0.0317 -0.6297
  111OSM   H15S11486   3.896   6.989   9.326  0.4965 -0.3124 -0.8783
  111OSM   H15T11487   4.062   6.966   9.242  1.3806  1.2963 -1.2335
  111OSM   C16S11488   3.915   7.080   9.134  0.4593 -0.4646  0.0307
  111OSM   H16S11489   3.828   7.144   9.162  0.5762  0.2632 -1.1952
  111OSM   H16T11490   3.884   6.998   9.066 -2.4901 -1.7701  2.6507
  111OSM   C17S11491   4.005   7.173   9.051  0.3273 -0.2896  0.3622
  111OSM   H17S11492   4.009   7.274   9.097  1.2141  0.1922 -0.7202
  111OSM   H17T11493   3.962   7.185   8.949  0.6296  0.5627  0.3281
  111OSM   C18S11494   4.141   7.109   9.026  0.7621  0.8606  0.5078
  111OSM   H18S11495   4.195   7.079   9.119  1.0387 -2.6041 -0.6223
  111OSM   H18T11496   4.199   7.177   8.959  0.0082  1.2287  0.2117
  111OSM   H18U11497   4.134   7.018   8.962  0.3531  0.2391  1.4213
  111OSM    C1F11498   4.072   6.868  10.248 -0.2622 -0.2624  0.0258
  111OSM     OF11499   3.996   6.774  10.241  0.1141 -0.4388  0.1508
  111OSM    C2F11500   4.197   6.895  10.159  0.3257  0.6388  0.1203
  111OSM    H2F11501   4.285   6.919  10.222  1.6773  1.5451 -1.9998
  111OSM    H2G11502   4.187   6.982  10.090  0.7604  0.5773 -0.0227
  111OSM    C3F11503   4.234   6.769  10.076 -0.0495  0.0247 -0.1883
  111OSM    H3F11504   4.255   6.680  10.139  2.2427  1.0348  0.5772
  111OSM    H3G11505   4.330   6.789  10.023 -0.0203 -0.0886 -0.1791
  111OSM    C4F11506   4.135   6.731   9.961 -0.0699 -1.0801  0.3354
  111OSM    H4F11507   4.096   6.828   9.924  0.5472 -1.1157 -0.4557
  111OSM    H4G11508   4.054   6.668  10.003 -2.6829  2.3173  0.8534
  111OSM    C5F11509   4.191   6.652   9.838 -0.5372  0.3726 -0.5618
  111OSM    H5F11510   4.222   6.553   9.876 -1.1553  0.5097  0.3555
  111OSM    H5G11511   4.283   6.706   9.807 -0.5352  1.6781  1.5280
  111OSM    C6F11512   4.103   6.649   9.712  0.0133  0.3245  0.2222
  111OSM    H6F11513   4.068   6.749   9.678 -1.9879 -0.3670  0.1181
  111OSM    H6G11514   4.006   6.598   9.733 -0.8790  1.7502 -0.2570
  111OSM    C7F11515   4.163   6.571   9.586  0.0473  0.5550 -0.4326
  111OSM    H7F11516   4.148   6.462   9.601 -0.9478  0.0953 -3.8699
  111OSM    H7G11517   4.273   6.586   9.591  0.2236 -0.8247  0.1427
  111OSM    C8F11518   4.119   6.618   9.445 -0.4890  0.3456  0.0376
  111OSM    H8F11519   4.199   6.594   9.371 -0.3120  0.2960  0.2428
  111OSM    H8G11520   4.117   6.729   9.452 -2.2667  0.4054 -0.7850
  111OSM    C9F11521   3.989   6.568   9.406 -0.0119 -0.4094 -0.6718
  111OSM    H9F11522   3.928   6.552   9.496  0.0705 -0.8591 -0.6930
  111OSM   C10F11523   3.940   6.520   9.292  0.1592  0.4596 -0.1262
  111OSM   H10F11524   3.847   6.462   9.302  1.2437 -1.2002  0.7074
  111OSM   C11F11525   4.019   6.515   9.165  0.3459  0.4567  0.0883
  111OSM   H11F11526   3.989   6.430   9.100  0.5763  0.9734 -0.7058
  111OSM   H11G11527   4.125   6.533   9.193  0.2835  1.1582 -0.1252
  111OSM   C12F11528   3.958   6.626   9.084  0.1940  0.1609 -1.0178
  111OSM   H12F11529   3.974   6.724   9.133 -2.9270  0.5578 -0.6146
  111OSM   H12G11530   3.848   6.618   9.075  0.2317 -1.0711 -0.6135
  111OSM   C13F11531   4.009   6.630   8.951  0.3848  0.2594  0.2368
  111OSM   H13F11532   3.986   6.536   8.896 -0.9589 -0.1559  1.4407
  111OSM   H13G11533   4.119   6.633   8.963  0.3870 -1.5511  1.0821
  111OSM   C14F11534   3.945   6.746   8.872 -0.4830  0.8960 -0.4884
  111OSM   H14F11535   3.964   6.833   8.939  0.3052  0.7011 -0.4446
  111OSM   H14G11536   3.837   6.723   8.865 -0.2035 -0.0328 -2.7441
  111OSM   C15F11537   4.014   6.780   8.736  0.3248  0.5402 -0.2189
  111OSM   H15F11538   4.040   6.678   8.699  1.5435  0.6130  0.3737
  111OSM   H15G11539   4.103   6.842   8.760  0.9337 -0.0458 -0.9261
  111OSM   C16F11540   3.926   6.856   8.634 -0.0742 -0.6283  0.1030
  111OSM   H16F11541   3.998   6.906   8.565 -1.6819 -0.1048 -1.2578
  111OSM   H16G11542   3.883   6.943   8.689  1.7660  0.5856 -0.2556
  111OSM   C17F11543   3.822   6.773   8.562  0.2626  0.1188  0.0932
  111OSM   H17F11544   3.726   6.773   8.618 -0.9018 -1.7566 -1.7495
  111OSM   H17G11545   3.863   6.671   8.550  1.0869  0.7286 -3.5152
  111OSM   C18F11546   3.801   6.816   8.413  0.2488 -0.5533  0.1937
  111OSM   H18F11547   3.739   6.733   8.371  1.2192 -1.5589  0.6744
  111OSM   H18G11548   3.894   6.825   8.355 -0.8017  0.5581 -1.3841
  111OSM   H18H11549   3.756   6.916   8.398  1.2814  0.0742  1.1415
  112OSM      N11550   3.858   5.088  10.999  0.0743 -0.2426 -0.0752
  112OSM    C1511551   3.822   5.014  11.124 -0.2195 -0.7974 -0.1113
  112OSM   H15A11552   3.745   5.076  11.166  0.6573  0.7078 -0.6522
  112OSM   H15B11553   3.906   5.009  11.192  1.1047  1.2298 -1.4947
  112OSM   H15C11554   3.786   4.914  11.102  1.0098 -0.7531 -2.7822
  112OSM    C1411555   3.730   5.108  10.923  0.5787  0.8646  0.7113
  112OSM   H14A11556   3.669   5.019  10.923  0.8754  0.6567  1.4491
  112OSM   H14B11557   3.753   5.139  10.822 -0.8688 -0.5227 -0.1038
  112OSM   H14C11558   3.668   5.183  10.971 -0.1737 -0.5100  1.9919
  112OSM    C1311559   3.917   5.222  11.022  0.0250  0.9070 -0.0431
  112OSM   H13A11560   3.977   5.227  11.112 -1.0560  1.1177  0.6947
  112OSM   H13B11561   3.841   5.294  11.048  1.9049  2.0571  2.7933
  112OSM   H13C11562   3.983   5.249  10.941  1.8568 -0.1790  1.0112
  112OSM    C1211563   3.957   5.001  10.926  0.0137 -0.1887  0.3039
  112OSM   H12A11564   3.899   4.915  10.894 -1.3989  0.2972  1.4100
  112OSM   H12B11565   4.022   4.965  11.004 -0.1480 -2.5855 -0.5947
  112OSM    C1111566   4.012   5.061  10.790  0.5168 -0.2072 -0.3641
  112OSM   H11A11567   4.102   5.004  10.757  0.5790 -1.7763  2.2007
  112OSM   H11B11568   4.033   5.170  10.788 -0.6731  0.0459  0.2037
  112OSM      P11569   3.884   4.924  10.605  0.7043 -0.3228 -0.1437
  112OSM    O1311570   3.962   4.814  10.663 -0.1243 -0.4388 -0.2375
  112OSM    O1411571   3.741   4.906  10.597  0.7747  0.6854 -0.1756
  112OSM    O1111572   3.944   4.960  10.466  0.2283 -0.1932 -0.2062
  112OSM    O1211573   3.906   5.053  10.693 -0.2717  0.0696  0.1897
  112OSM    C1S11574   4.007   5.085  10.443 -0.8642  0.4003 -0.3141
  112OSM    H1S11575   4.100   5.103  10.502 -1.5618  0.1462  0.9032
  112OSM    H1T11576   3.940   5.168  10.474 -1.5393 -0.4978  0.7040
  112OSM     NF11577   4.146   5.189  10.270  0.6022 -0.3649 -0.4452
  112OSM    HNF11578   4.130   5.286  10.252  0.4982 -0.5858 -1.6165
  112OSM    C2S11579   4.031   5.102  10.291 -0.5063  0.1384 -0.1791
  112OSM    H2S11580   4.059   5.003  10.250 -1.1486 -0.2704  0.3464
  112OSM    C3S11581   3.898   5.155  10.223 -0.2895 -0.0859  0.3275
  112OSM    H3S11582   3.852   5.212  10.306  2.3479  2.0541  0.4586
  112OSM     O311583   3.798   5.059  10.192  0.2096 -0.2916  0.1643
  112OSM    HO311584   3.815   4.974  10.234  1.6379  0.5882  1.5032
  112OSM    C4S11585   3.921   5.236  10.102 -0.1452 -0.1171 -0.2786
  112OSM    H4S11586   3.929   5.345  10.118 -2.3233  0.0914 -0.2757
  112OSM    C5S11587   3.934   5.200   9.971 -0.9403 -0.0037 -0.3287
  112OSM    H5S11588   3.934   5.093   9.947  1.2508 -0.0072 -0.4967
  112OSM    C6S11589   3.974   5.298   9.863  0.5387  0.1823 -0.7118
  112OSM    H6S11590   4.083   5.283   9.844  1.4923  1.9091  2.6114
  112OSM    H6T11591   3.958   5.405   9.888 -0.2681 -0.4469  1.7744
  112OSM    C7S11592   3.919   5.250   9.731 -0.6213  0.1743 -0.0053
  112OSM    H7S11593   3.808   5.254   9.728 -0.7850  1.7681  3.1511
  112OSM    H7T11594   3.940   5.141   9.727 -2.5207 -0.1863 -0.8569
  112OSM    C8S11595   3.973   5.324   9.608  0.4703 -0.6011 -0.2387
  112OSM    H8S11596   4.074   5.283   9.581  1.6527  1.2927  1.1165
  112OSM    H8T11597   3.991   5.430   9.635  2.0635 -0.9059  0.0172
  112OSM    C9S11598   3.871   5.322   9.493  0.4864  0.3872 -0.7313
  112OSM    H9S11599   3.772   5.369   9.511  0.6329  0.4410 -0.0139
  112OSM    H9T11600   3.850   5.217   9.461  0.6002 -0.2648  1.1811
  112OSM   C10S11601   3.932   5.381   9.365  0.2398 -0.1908  0.0998
  112OSM   H10S11602   4.029   5.328   9.351 -0.8413 -1.9764 -1.1005
  112OSM   H10T11603   3.958   5.487   9.386 -1.1974  0.5489 -1.6696
  112OSM   C11S11604   3.851   5.383   9.239 -0.5104  0.7192  0.2050
  112OSM   H11S11605   3.765   5.450   9.260  0.4284  1.7155  1.0200
  112OSM   H11T11606   3.822   5.277   9.222 -1.0124  1.0939 -1.3673
  112OSM   C12S11607   3.926   5.417   9.107  0.2122 -0.7461 -0.0170
  112OSM   H12S11608   3.986   5.509   9.128 -0.7859 -0.0431 -0.1558
  112OSM   H12T11609   3.847   5.440   9.033 -0.5696 -2.1283  0.3550
  112OSM   C13S11610   4.008   5.297   9.058  0.5070 -0.4032  0.5778
  112OSM   H13S11611   3.948   5.215   9.013  0.3998  0.0794 -0.1890
  112OSM   H13T11612   4.072   5.259   9.140  0.2303 -2.3195 -0.0548
  112OSM   C14S11613   4.094   5.357   8.944  0.4619  0.2989  0.5763
  112OSM   H14S11614   4.153   5.438   8.992  2.0718 -0.5016 -0.0021
  112OSM   H14T11615   4.020   5.399   8.872 -2.1839 -1.3657  2.1151
  112OSM   C15S11616   4.186   5.242   8.887  0.6684 -0.0231 -0.0743
  112OSM   H15S11617   4.217   5.273   8.785  2.1118 -1.9044 -0.2668
  112OSM   H15T11618   4.114   5.157   8.875 -1.7508  1.6868  1.3037
  112OSM   C16S11619   4.301   5.203   8.966  0.6836 -0.6363  0.9705
  112OSM   H16S11620   4.267   5.160   9.063 -0.4774 -2.5166 -0.2274
  112OSM   H16T11621   4.349   5.301   8.988  0.7328  0.0868 -1.9945
  112OSM   C17S11622   4.409   5.122   8.896  0.2853  0.2969  0.2840
  112OSM   H17S11623   4.497   5.089   8.954  0.4467 -1.2772 -0.7923
  112OSM   H17T11624   4.459   5.165   8.807  1.7498 -0.0584  0.9068
  112OSM   C18S11625   4.348   4.987   8.846  0.2101 -0.4524  0.5214
  112OSM   H18S11626   4.423   4.909   8.824  1.8456  0.7278  1.6732
  112OSM   H18T11627   4.295   5.007   8.750 -2.1610  2.1361  2.1689
  112OSM   H18U11628   4.274   4.952   8.922 -0.3916 -1.4215 -0.4769
  112OSM    C1F11629   4.277   5.157  10.280  0.7988  0.7768  0.6909
  112OSM     OF11630   4.302   5.042  10.308  0.0520  0.4188  0.3696
  112OSM    C2F11631   4.374   5.267  10.245 -0.4210  0.8160  0.1217
  112OSM    H2F11632   4.446   5.277  10.328 -0.1261  0.2685 -0.0639
  112OSM    H2G11633   4.329   5.368  10.246  0.8619  1.5110  4.2456
  112OSM    C3F11634   4.450   5.254  10.109  0.2630  0.2096  0.6138
  112OSM    H3F11635   4.483   5.149  10.098  0.2439  0.2943 -0.3406
  112OSM    H3G11636   4.534   5.327  10.109 -0.8214  1.5447 -0.4713
  112OSM    C4F11637   4.363   5.313   9.995 -0.1206 -0.3811 -0.2998
  112OSM    H4F11638   4.345   5.423   9.996  1.7908 -0.0420  0.9622
  112OSM    H4G11639   4.263   5.263   9.995 -0.2433 -0.1679 -1.5202
  112OSM    C5F11640   4.423   5.288   9.861 -0.9052 -0.5013 -0.2831
  112OSM    H5F11641   4.454   5.181   9.861  0.1688 -0.2334 -2.2201
  112OSM    H5G11642   4.507   5.359   9.845 -1.8462  0.3066 -1.8849
  112OSM    C6F11643   4.334   5.303   9.741 -0.2653 -0.5173 -0.3470
  112OSM    H6F11644   4.277   5.399   9.753 -0.6807 -1.0092  2.1573
  112OSM    H6G11645   4.258   5.223   9.728 -0.7297  0.0668 -1.3866
  112OSM    C7F11646   4.415   5.307   9.608 -0.9494 -0.4533  0.0541
  112OSM    H7F11647   4.477   5.216   9.596 -0.4435 -0.1070 -0.0040
  112OSM    H7G11648   4.486   5.392   9.617 -2.5983  0.9144  0.7399
  112OSM    C8F11649   4.339   5.333   9.484  1.2925 -0.1260 -0.2981
  112OSM    H8F11650   4.265   5.415   9.500  3.2488  1.1258  3.4462
  112OSM    H8G11651   4.276   5.243   9.469 -1.2470  1.5762 -0.5854
  112OSM    C9F11652   4.421   5.353   9.362  0.4688 -0.7230 -0.3941
  112OSM    H9F11653   4.435   5.460   9.346 -0.2473 -0.3508  1.2431
  112OSM   C10F11654   4.461   5.266   9.273  0.2936  0.1095  0.1753
  112OSM   H10F11655   4.530   5.293   9.192  0.4889  0.1585  0.3575
  112OSM   C11F11656   4.444   5.115   9.297 -0.0373 -0.2501 -0.2202
  112OSM   H11F11657   4.390   5.080   9.207 -1.3254 -1.6132  1.0321
  112OSM   H11G11658   4.377   5.088   9.381 -1.2977  0.0801 -1.1010
  112OSM   C12F11659   4.567   5.037   9.331  0.0987 -1.1140  0.1222
  112OSM   H12F11660   4.530   4.932   9.329 -0.0229 -1.0657 -1.2452
  112OSM   H12G11661   4.604   5.057   9.433  1.5361 -1.0625 -0.3785
  112OSM   C13F11662   4.686   5.064   9.236  0.1925  0.5302 -0.4846
  112OSM   H13F11663   4.705   5.173   9.245 -0.8126  0.5645  2.2403
  112OSM   H13G11664   4.655   5.040   9.132  2.3084 -2.6961 -0.5087
  112OSM   C14F11665   4.813   4.998   9.282 -0.0174 -0.7182 -0.5011
  112OSM   H14F11666   4.808   4.890   9.258  1.2075 -1.2266  1.3045
  112OSM   H14G11667   4.820   5.010   9.392 -0.8905  0.3828 -0.5468
  112OSM   C15F11668   4.931   5.082   9.217 -0.2534  0.0701  0.2951
  112OSM   H15F11669   4.933   5.175   9.277  0.6434 -1.7910  3.4251
  112OSM   H15G11670   4.915   5.106   9.110 -1.9746  0.2987  0.5611
  112OSM   C16F11671   5.060   5.004   9.227  0.1979  0.2567  0.8945
  112OSM   H16F11672   5.050   4.920   9.155 -0.7222  0.7432  0.4384
  112OSM   H16G11673   5.073   4.965   9.330 -1.8790 -2.1352  0.3587
  112OSM   C17F11674   5.181   5.084   9.171  0.3430  0.8111 -0.3615
  112OSM   H17F11675   5.197   5.180   9.224 -0.8573  0.3616  0.8875
  112OSM   H17G11676   5.154   5.107   9.066 -1.4835 -0.3583 -0.1986
  112OSM   C18F11677   5.305   5.000   9.163  0.5544 -0.2581 -0.0727
  112OSM   H18F11678   5.294   4.900   9.116  0.6504  0.0904 -0.8568
  112OSM   H18G11679   5.338   4.970   9.265 -1.1738 -1.6236  0.1416
  112OSM   H18H11680   5.383   5.055   9.107 -0.0444 -0.0680 -0.7461
  113OSM      N11681   2.289   4.351  10.750 -1.2946 -0.5294  0.4124
  113OSM    C1511682   2.363   4.305  10.875 -0.0764  0.2407  0.1274
  113OSM   H15A11683   2.358   4.388  10.942 -1.1606  1.0611 -0.9198
  113OSM   H15B11684   2.465   4.276  10.856 -0.4412 -0.9088 -0.1922
  113OSM   H15C11685   2.308   4.220  10.914 -1.9386  1.2030 -0.2799
  113OSM    C1411686   2.160   4.402  10.791  0.0098  0.7257 -0.1620
  113OSM   H14A11687   2.098   4.332  10.846  0.8786 -0.6159 -0.8333
  113OSM   H14B11688   2.103   4.431  10.704 -2.4797 -0.2847  1.0280
  113OSM   H14C11689   2.168   4.494  10.848  1.9682 -0.1115  1.0091
  113OSM    C1311690   2.363   4.468  10.684  0.1493 -0.6417 -0.5397
  113OSM   H13A11691   2.463   4.442  10.652 -0.5755 -3.3441 -0.8415
  113OSM   H13B11692   2.379   4.547  10.755  2.7378 -1.1968 -0.4042
  113OSM   H13C11693   2.311   4.514  10.601 -0.9472 -0.2283  0.3554
  113OSM    C1211694   2.285   4.240  10.646  0.2490  0.1616  0.2137
  113OSM   H12A11695   2.229   4.277  10.561  0.9769 -0.6763 -0.6577
  113OSM   H12B11696   2.246   4.150  10.690 -1.5871  1.7749  2.1476
  113OSM    C1111697   2.406   4.172  10.584 -0.6608  0.3447 -0.7040
  113OSM   H11A11698   2.466   4.253  10.537  0.4261  0.2123  0.3908
  113OSM   H11B11699   2.375   4.101  10.504 -0.7973 -1.7064  1.0829
  113OSM      P11700   2.645   4.106  10.667 -0.0268  0.0309 -0.1390
  113OSM    O1311701   2.699   4.242  10.698  0.6428  0.4996  0.0859
  113OSM    O1411702   2.705   3.993  10.737 -0.4433  0.4196 -0.5393
  113OSM    O1111703   2.678   4.080  10.514 -0.8379 -0.2417 -0.5177
  113OSM    O1211704   2.491   4.102  10.685  0.6870  0.4035  0.4234
  113OSM    C1S11705   2.695   3.943  10.468 -0.1309 -0.0954  0.1791
  113OSM    H1S11706   2.628   3.875  10.526  0.3700  1.1979  2.4004
  113OSM    H1T11707   2.800   3.911  10.487  0.1121 -1.1239 -2.4658
  113OSM     NF11708   2.667   3.774  10.299  0.0166 -0.9035 -0.0627
  113OSM    HNF11709   2.753   3.739  10.263 -0.1780 -0.5205 -0.9210
  113OSM    C2S11710   2.670   3.917  10.321  0.8789 -1.1907 -0.6016
  113OSM    H2S11711   2.573   3.965  10.294  1.5951  0.2152 -0.7730
  113OSM    C3S11712   2.781   3.995  10.245  1.4124  0.1221 -0.2838
  113OSM    H3S11713   2.882   3.966  10.281  0.5173  0.1438  2.4831
  113OSM     O311714   2.780   4.142  10.256  0.2179  0.3264  0.1899
  113OSM    HO311715   2.718   4.157  10.327  0.4786 -0.0008  0.4893
  113OSM    C4S11716   2.756   3.962  10.103 -0.0144 -0.2312 -0.0367
  113OSM    H4S11717   2.677   4.025  10.060 -1.6854 -1.7860  0.6250
  113OSM    C5S11718   2.827   3.878  10.025 -0.2514  0.2268  0.2094
  113OSM    H5S11719   2.916   3.822  10.059  1.7383  2.9564 -0.2095
  113OSM    C6S11720   2.796   3.843   9.880 -0.2399 -0.7303  0.0091
  113OSM    H6S11721   2.767   3.737   9.863 -0.9607 -0.6244  0.5531
  113OSM    H6T11722   2.892   3.858   9.826 -1.1548 -0.5652 -1.6631
  113OSM    C7S11723   2.698   3.943   9.814 -0.5375  1.3158 -0.6144
  113OSM    H7S11724   2.736   4.047   9.823  0.3039  0.9571  0.0528
  113OSM    H7T11725   2.610   3.931   9.881  2.2192  0.5597  3.1466
  113OSM    C8S11726   2.669   3.901   9.668 -0.2183  0.6294  0.2940
  113OSM    H8S11727   2.624   3.799   9.669 -3.6484  1.9813 -0.9777
  113OSM    H8T11728   2.770   3.903   9.622  0.6052  1.6418  2.0649
  113OSM    C9S11729   2.576   4.006   9.601  0.1259  0.0534  0.4024
  113OSM    H9S11730   2.612   4.109   9.618 -0.4758  0.7762 -2.2166
  113OSM    H9T11731   2.475   3.998   9.647 -0.1768  1.1383 -0.0532
  113OSM   C10S11732   2.549   3.979   9.453 -0.1110 -0.6837  0.1538
  113OSM   H10S11733   2.520   3.872   9.450 -0.0413 -0.7521  1.3902
  113OSM   H10T11734   2.644   3.993   9.396  0.7456  0.1911  1.7198
  113OSM   C11S11735   2.443   4.067   9.381  0.0081 -0.4025  0.0395
  113OSM   H11S11736   2.494   4.164   9.361  1.0403 -1.0920 -0.7599
  113OSM   H11T11737   2.349   4.089   9.437  0.6997  1.9013  0.4145
  113OSM   C12S11738   2.404   4.014   9.243  0.5114  0.2849  0.1108
  113OSM   H12S11739   2.313   4.074   9.220 -0.8560  0.3571  4.6009
  113OSM   H12T11740   2.350   3.920   9.266  0.0593  1.1249  2.9456
  113OSM   C13S11741   2.514   4.007   9.138  1.3978 -0.8739 -0.5197
  113OSM   H13S11742   2.598   3.941   9.170 -0.1655 -1.5204  2.6327
  113OSM   H13T11743   2.560   4.107   9.121  2.7559 -1.3368  0.2410
  113OSM   C14S11744   2.462   3.947   9.002 -0.3023  0.0548 -0.0051
  113OSM   H14S11745   2.399   4.022   8.951  1.7446  0.6339 -1.8114
  113OSM   H14T11746   2.398   3.858   9.019 -3.2192  2.1141  0.5391
  113OSM   C15S11747   2.570   3.911   8.896  0.8514  0.1332  0.1975
  113OSM   H15S11748   2.640   3.832   8.930  1.1776 -0.7636 -2.3491
  113OSM   H15T11749   2.633   4.000   8.878 -0.7959  1.5531  1.2287
  113OSM   C16S11750   2.509   3.873   8.758  0.0081  0.2536 -0.8452
  113OSM   H16S11751   2.471   3.966   8.710 -0.7561  0.2869 -0.1984
  113OSM   H16T11752   2.416   3.821   8.790  0.5309 -0.6494 -0.7640
  113OSM   C17S11753   2.594   3.784   8.673  0.8502  0.5509  0.2890
  113OSM   H17S11754   2.652   3.710   8.733  0.2134 -0.4854 -0.3412
  113OSM   H17T11755   2.671   3.843   8.619  0.1133 -0.9958 -2.6765
  113OSM   C18S11756   2.524   3.716   8.557  0.3321 -0.0318 -0.7762
  113OSM   H18S11757   2.481   3.620   8.591  0.0249  0.3552 -0.0293
  113OSM   H18T11758   2.598   3.687   8.480  0.3761 -1.3262 -0.2586
  113OSM   H18U11759   2.444   3.768   8.500 -1.6906 -0.9926  1.0496
  113OSM    C1F11760   2.562   3.697  10.328  0.4746 -0.1559 -0.0874
  113OSM     OF11761   2.463   3.747  10.376  0.3444 -1.0307  0.0237
  113OSM    C2F11762   2.583   3.545  10.309 -0.1575 -0.7585 -0.4069
  113OSM    H2F11763   2.584   3.503  10.412  0.5504 -3.0806 -1.2847
  113OSM    H2G11764   2.683   3.533  10.261 -0.2637 -1.2369 -0.5160
  113OSM    C3F11765   2.486   3.480  10.213 -0.0503  0.1774  0.0486
  113OSM    H3F11766   2.383   3.505  10.245 -0.4421 -0.0892 -0.9722
  113OSM    H3G11767   2.495   3.369  10.215  0.7740  0.0947 -2.8538
  113OSM    C4F11768   2.497   3.523  10.066 -0.0974  0.0865  0.3960
  113OSM    H4F11769   2.549   3.621  10.056 -1.0572  0.5663  0.0055
  113OSM    H4G11770   2.395   3.521  10.023 -0.3207 -1.1203  0.9220
  113OSM    C5F11771   2.590   3.435   9.980 -0.0176 -0.7293  0.5979
  113OSM    H5F11772   2.573   3.326   9.995  1.2282 -0.9840  0.2114
  113OSM    H5G11773   2.696   3.453  10.006  0.3577  0.3733 -1.5142
  113OSM    C6F11774   2.577   3.465   9.834  0.5548  0.6128  0.1288
  113OSM    H6F11775   2.565   3.573   9.810  2.4130  0.3321 -2.4869
  113OSM    H6G11776   2.485   3.409   9.806  2.1728 -1.9321 -0.3706
  113OSM    C7F11777   2.705   3.418   9.764 -0.8221 -0.5000 -0.2706
  113OSM    H7F11778   2.724   3.309   9.776  1.4096 -0.6973 -4.1393
  113OSM    H7G11779   2.791   3.459   9.821  0.4438 -2.9177 -0.3045
  113OSM    C8F11780   2.713   3.472   9.626  0.0757  0.3473  0.6597
  113OSM    H8F11781   2.720   3.582   9.622  0.1236  0.3284  0.0174
  113OSM    H8G11782   2.623   3.441   9.569 -0.1032 -0.9379  1.5843
  113OSM    C9F11783   2.832   3.411   9.559 -0.4232 -0.0821  0.6368
  113OSM    H9F11784   2.883   3.333   9.618 -0.0920  0.4443  1.0556
  113OSM   C10F11785   2.888   3.453   9.438 -0.0860 -0.4097 -0.3768
  113OSM   H10F11786   2.977   3.403   9.396  2.2261  2.6555  0.5015
  113OSM   C11F11787   2.833   3.570   9.358  0.8869  0.6889  1.1560
  113OSM   H11F11788   2.729   3.597   9.385  0.7255  0.0360  1.2043
  113OSM   H11G11789   2.834   3.551   9.249 -2.1648 -0.7093  1.2877
  113OSM   C12F11790   2.926   3.688   9.372 -0.7943 -0.4166 -0.3378
  113OSM   H12F11791   3.033   3.663   9.361 -0.2923  0.0027  2.7208
  113OSM   H12G11792   2.921   3.719   9.478  1.2335 -0.2689 -0.2504
  113OSM   C13F11793   2.883   3.818   9.297  0.4365  0.6497  0.6957
  113OSM   H13F11794   2.949   3.898   9.337  2.2914  0.2603 -1.3907
  113OSM   H13G11795   2.777   3.842   9.320 -0.3665 -2.3063  0.5423
  113OSM   C14F11796   2.910   3.825   9.145 -0.6618 -0.0275  0.2450
  113OSM   H14F11797   2.834   3.765   9.091  0.8907 -0.6415 -1.3758
  113OSM   H14G11798   3.008   3.775   9.129 -0.0191  1.3994 -0.5432
  113OSM   C15F11799   2.912   3.960   9.077 -0.7267  0.0298  0.6095
  113OSM   H15F11800   2.984   4.029   9.126 -0.5834 -0.3503  0.9324
  113OSM   H15G11801   2.813   4.011   9.086  0.3983  2.1283  2.0194
  113OSM   C16F11802   2.958   3.945   8.931 -0.4032 -0.7267  0.1779
  113OSM   H16F11803   2.899   3.870   8.873 -0.2046 -0.2448 -0.6651
  113OSM   H16G11804   3.060   3.905   8.915  0.1636  0.6079  0.3798
  113OSM   C17F11805   2.956   4.083   8.861  1.0400 -0.1756  0.6484
  113OSM   H17F11806   3.000   4.151   8.938  1.9974 -0.9940  0.8401
  113OSM   H17G11807   2.849   4.113   8.860  1.2412  0.5627  0.6192
  113OSM   C18F11808   3.009   4.092   8.726  0.5162 -0.3007 -0.2114
  113OSM   H18F11809   3.120   4.097   8.727  0.8810 -2.8462 -3.8309
  113OSM   H18G11810   2.959   4.184   8.688  0.4767  0.2193  1.0748
  113OSM   H18H11811   2.969   4.003   8.672 -0.6435 -0.9236  1.5959
  114OSM      N11812   6.439   3.492  11.266 -0.3353  0.1578 -0.0458
  114OSM    C1511813   6.584   3.504  11.248  0.6497 -0.3061  0.1329
  114OSM   H15A11814   6.608   3.567  11.163 -0.6256  2.3611  1.6367
  114OSM   H15B11815   6.631   3.410  11.221  0.7429 -0.3327  0.3903
  114OSM   H15C11816   6.629   3.545  11.337 -0.7324  1.9161 -0.1200
  114OSM    C1411817   6.416   3.384  11.369  0.3809 -0.0418  0.4686
  114OSM   H14A11818   6.449   3.407  11.469 -2.3824  2.0537  1.0182
  114OSM   H14B11819   6.447   3.283  11.347 -1.1427 -0.5962  0.7214
  114OSM   H14C11820   6.309   3.372  11.384  0.6649  0.1131  2.8661
  114OSM    C1311821   6.389   3.619  11.321  0.1882  0.3938 -0.1203
  114OSM   H13A11822   6.403   3.702  11.255 -1.7751  0.9250  0.0741
  114OSM   H13B11823   6.447   3.635  11.411  0.0071 -0.2881  0.1252
  114OSM   H13C11824   6.288   3.610  11.358  0.5929 -1.2004  0.7278
  114OSM    C1211825   6.374   3.448  11.135  0.7563 -0.1496  0.0414
  114OSM   H12A11826   6.413   3.347  11.126 -0.6069 -1.1211  3.6433
  114OSM   H12B11827   6.414   3.514  11.059 -1.2704 -0.4690 -1.3907
  114OSM    C1111828   6.221   3.447  11.122  0.4501 -0.0745  0.5120
  114OSM   H11A11829   6.175   3.445  11.020 -1.1044  0.5382  1.1737
  114OSM   H11B11830   6.193   3.548  11.159 -1.4124 -0.7843  1.1362
  114OSM      P11831   6.093   3.213  11.178 -0.1502  0.0475 -0.1756
  114OSM    O1311832   6.180   3.104  11.234  0.3460 -0.3224  0.3316
  114OSM    O1411833   5.956   3.216  11.228  0.2370  0.3695 -0.3560
  114OSM    O1111834   6.087   3.186  11.020  0.0377  0.8272 -0.0918
  114OSM    O1211835   6.162   3.353  11.209  0.0286 -0.1387 -0.3877
  114OSM    C1S11836   6.210   3.141  10.957 -0.6545  0.0085 -0.5002
  114OSM    H1S11837   6.233   3.037  10.991 -2.6398 -0.2059  0.3459
  114OSM    H1T11838   6.299   3.205  10.970  0.0999 -0.6789 -2.0348
  114OSM     NF11839   6.306   3.079  10.735  0.2009  0.7269  0.3662
  114OSM    HNF11840   6.381   3.141  10.714  0.8392 -1.0232 -3.4494
  114OSM    C2S11841   6.191   3.138  10.798 -0.1464 -0.5599 -0.2294
  114OSM    H2S11842   6.100   3.083  10.766  0.8724 -2.6080  0.2120
  114OSM    C3S11843   6.176   3.284  10.762 -0.3456 -0.5892  0.8572
  114OSM    H3S11844   6.268   3.339  10.791 -0.1057  0.3352 -1.4498
  114OSM     O311845   6.066   3.362  10.812  0.8659 -0.3906 -0.2793
  114OSM    HO311846   6.037   3.312  10.889 -1.5931 -0.7405 -1.3596
  114OSM    C4S11847   6.161   3.298  10.609 -0.3062 -0.3554  0.2794
  114OSM    H4S11848   6.258   3.318  10.561  0.9758  0.2643  2.9341
  114OSM    C5S11849   6.058   3.268  10.529  0.6101  0.7774  0.4867
  114OSM    H5S11850   5.960   3.236  10.568 -0.6789  1.8766 -1.6673
  114OSM    C6S11851   6.061   3.272  10.382  0.4204 -0.4097 -0.0961
  114OSM    H6S11852   6.151   3.319  10.338  0.2025  0.2267  0.1239
  114OSM    H6T11853   5.972   3.329  10.348  1.6025  0.7943 -1.2981
  114OSM    C7S11854   6.033   3.138  10.313  0.0428  0.5151  0.1441
  114OSM    H7S11855   5.944   3.097  10.366  1.5935 -0.9358  1.7784
  114OSM    H7T11856   6.108   3.058  10.332 -2.0513 -1.2865  1.2225
  114OSM    C8S11857   5.997   3.167  10.161  0.0308  0.6176 -0.4835
  114OSM    H8S11858   6.091   3.214  10.124  1.1675  1.6415  3.1719
  114OSM    H8T11859   5.908   3.233  10.153 -0.1373  0.6621  1.3427
  114OSM    C9S11860   5.993   3.035  10.084  0.2105 -0.4147 -0.1463
  114OSM    H9S11861   5.898   2.978  10.093  0.3025 -0.6883 -0.8232
  114OSM    H9T11862   6.067   2.963  10.122  0.1375 -0.4107  0.0046
  114OSM   C10S11863   6.024   3.050   9.932  0.2454 -0.3443 -0.0041
  114OSM   H10S11864   6.072   2.964   9.880  0.1957  0.6248 -1.7155
  114OSM   H10T11865   6.101   3.130   9.926  0.0988 -0.3053 -1.9421
  114OSM   C11S11866   5.910   3.109   9.851 -0.3475  0.0807 -0.3233
  114OSM   H11S11867   5.890   3.213   9.887 -0.0023 -0.2983  1.0152
  114OSM   H11T11868   5.825   3.041   9.872 -0.2866 -0.1849 -0.9101
  114OSM   C12S11869   5.953   3.106   9.707 -0.5036 -0.3111 -0.2491
  114OSM   H12S11870   6.057   3.141   9.690 -0.7247 -0.5475 -2.3069
  114OSM   H12T11871   5.884   3.169   9.648  0.5052 -0.6389 -1.8310
  114OSM   C13S11872   5.941   2.962   9.650 -0.8271  0.9497 -0.8284
  114OSM   H13S11873   5.843   2.918   9.674  0.6259 -1.7701  0.5737
  114OSM   H13T11874   6.018   2.892   9.689 -0.7361  1.5843  0.1783
  114OSM   C14S11875   5.952   2.959   9.501 -0.0629  0.6702  0.1412
  114OSM   H14S11876   6.053   3.003   9.482  0.5674 -0.0920  1.5503
  114OSM   H14T11877   5.873   3.017   9.449  0.2157  1.1058  0.1932
  114OSM   C15S11878   5.945   2.814   9.448  0.0809 -0.7180 -0.0810
  114OSM   H15S11879   5.860   2.767   9.502  1.5529 -2.3147  0.9611
  114OSM   H15T11880   6.038   2.761   9.478  1.1375  2.5737  3.2027
  114OSM   C16S11881   5.926   2.796   9.292  0.4444  0.0905 -0.0376
  114OSM   H16S11882   5.939   2.691   9.258  0.2768  1.0622 -3.4567
  114OSM   H16T11883   6.003   2.856   9.239  2.0534 -0.5530  1.4552
  114OSM   C17S11884   5.778   2.822   9.263  0.5275  0.1033 -0.1838
  114OSM   H17S11885   5.760   2.931   9.266  1.5415  0.3411 -1.5559
  114OSM   H17T11886   5.723   2.769   9.344  1.2628  4.1896  3.3498
  114OSM   C18S11887   5.733   2.758   9.129 -0.8574  0.4361 -0.1609
  114OSM   H18S11888   5.635   2.789   9.088  0.2731  2.3838 -1.5737
  114OSM   H18T11889   5.732   2.647   9.133  2.7576  0.1735 -2.0326
  114OSM   H18U11890   5.809   2.777   9.050 -1.3305  1.3913 -0.3971
  114OSM    C1F11891   6.331   2.949  10.732  0.1815 -0.1423  0.3267
  114OSM     OF11892   6.250   2.873  10.787  0.7754 -0.1761  0.3419
  114OSM    C2F11893   6.459   2.904  10.683 -0.0021 -0.0505 -0.1909
  114OSM    H2F11894   6.504   2.817  10.737 -0.3811  0.8039  1.5905
  114OSM    H2G11895   6.532   2.986  10.698  0.4906 -0.0502 -2.3580
  114OSM    C3F11896   6.443   2.874  10.533 -0.1132  0.5399 -0.0641
  114OSM    H3F11897   6.370   2.792  10.517  2.0261 -1.0641 -2.3907
  114OSM    H3G11898   6.542   2.840  10.495  0.1792  1.3301 -0.0256
  114OSM    C4F11899   6.412   2.989  10.436 -0.6977  0.0388  0.0134
  114OSM    H4F11900   6.473   3.078  10.462  2.1776 -1.7702 -0.0142
  114OSM    H4G11901   6.305   3.014  10.449 -1.1828 -1.0743 -1.5049
  114OSM    C5F11902   6.442   2.948  10.288  0.1712 -0.8250  0.0249
  114OSM    H5F11903   6.383   2.855  10.272  0.8324 -1.1358 -0.6668
  114OSM    H5G11904   6.550   2.920  10.281  0.4883  0.6503 -1.4200
  114OSM    C6F11905   6.397   3.053  10.183 -0.2932 -0.0600  0.6716
  114OSM    H6F11906   6.407   3.161  10.208 -0.5145 -0.0939  0.9109
  114OSM    H6G11907   6.288   3.039  10.166 -0.4569  0.6175  1.1195
  114OSM    C7F11908   6.464   3.047  10.044  0.0195 -0.4078 -0.1104
  114OSM    H7F11909   6.445   2.946  10.001 -0.6966  0.2163 -1.2943
  114OSM    H7G11910   6.573   3.062  10.065  0.2694 -1.5067 -0.5336
  114OSM    C8F11911   6.413   3.151   9.943 -0.2705  0.3323 -0.4524
  114OSM    H8F11912   6.380   3.236  10.007 -0.1222 -0.3419  0.5469
  114OSM    H8G11913   6.323   3.123   9.883  1.8296 -0.1192 -3.6656
  114OSM    C9F11914   6.521   3.188   9.851  0.0890  0.1998  0.3947
  114OSM    H9F11915   6.590   3.267   9.885  1.1421 -0.4483 -0.1575
  114OSM   C10F11916   6.543   3.148   9.725  0.3636  0.7692 -0.0051
  114OSM   H10F11917   6.639   3.170   9.674  0.3793 -2.7746 -1.8041
  114OSM   C11F11918   6.468   3.042   9.650  0.7272  0.1600 -0.1278
  114OSM   H11F11919   6.387   2.997   9.711  1.3143  1.7462  1.9211
  114OSM   H11G11920   6.544   2.964   9.625  1.7674  1.2756 -0.5181
  114OSM   C12F11921   6.388   3.100   9.528  0.2749  0.2445 -0.1700
  114OSM   H12F11922   6.340   3.193   9.565 -1.2740 -0.8609  0.6993
  114OSM   H12G11923   6.302   3.034   9.505 -0.1261  0.3355  0.9663
  114OSM   C13F11924   6.471   3.124   9.399 -0.0386 -0.0220  1.4398
  114OSM   H13F11925   6.505   3.024   9.364  0.0765  1.2762 -2.6866
  114OSM   H13G11926   6.560   3.188   9.419  1.0973 -1.4510  1.1351
  114OSM   C14F11927   6.388   3.176   9.275 -0.2187 -0.3060 -0.2333
  114OSM   H14F11928   6.374   3.285   9.294  1.0762 -0.4670  2.0825
  114OSM   H14G11929   6.291   3.125   9.293 -0.6014  0.4661 -0.0466
  114OSM   C15F11930   6.457   3.152   9.135  0.1334 -0.6043 -0.0779
  114OSM   H15F11931   6.518   3.061   9.153 -1.6587 -1.9250 -0.4897
  114OSM   H15G11932   6.534   3.232   9.126 -2.3165  1.8195 -0.7596
  114OSM   C16F11933   6.381   3.141   9.002  0.2642 -1.0222  0.2548
  114OSM   H16F11934   6.315   3.229   8.992 -0.3519 -1.5974 -1.0072
  114OSM   H16G11935   6.325   3.046   8.989  0.0329 -0.6974 -1.4257
  114OSM   C17F11936   6.477   3.147   8.883 -0.6633  0.3317 -0.3846
  114OSM   H17F11937   6.531   3.244   8.887  0.5744 -0.3155 -0.6253
  114OSM   H17G11938   6.424   3.158   8.786  0.5364  1.3012 -0.9607
  114OSM   C18F11939   6.583   3.027   8.892 -0.0461  0.1362 -0.0508
  114OSM   H18F11940   6.649   3.029   8.981 -0.7496 -0.4972  0.4984
  114OSM   H18G11941   6.641   3.011   8.798 -1.1346 -3.1706 -0.2927
  114OSM   H18H11942   6.516   2.941   8.911 -1.7313  0.9684 -1.8179
  115OSM      N11943   6.357   5.894   5.595 -0.5318  0.9103  0.7708
  115OSM    C1511944   6.311   6.033   5.573  0.6959 -1.2453  0.0397
  115OSM   H15A11945   6.229   6.056   5.639  0.8350 -1.9940  0.4825
  115OSM   H15B11946   6.264   6.033   5.475 -1.5475  0.9091  1.0047
  115OSM   H15C11947   6.385   6.111   5.581 -1.7385  1.5653 -2.1797
  115OSM    C1411948   6.259   5.793   5.550 -0.3963  0.4235 -0.0086
  115OSM   H14A11949   6.305   5.696   5.558  1.3744  1.2923  0.9628
  115OSM   H14B11950   6.227   5.798   5.447 -1.6197 -2.2363  0.1583
  115OSM   H14C11951   6.171   5.787   5.612 -0.4312 -1.4509 -0.1697
  115OSM    C1311952   6.477   5.870   5.511 -0.5131  0.4430 -0.0313
  115OSM   H13A11953   6.549   5.951   5.516 -2.7125  2.6937 -2.0940
  115OSM   H13B11954   6.437   5.862   5.411 -0.5136 -0.9275  0.0579
  115OSM   H13C11955   6.519   5.774   5.539 -2.0780 -0.0578  0.6946
  115OSM    C1211956   6.393   5.864   5.741  0.1273  0.3320 -0.5746
  115OSM   H12A11957   6.491   5.905   5.760  0.0916  0.3043 -0.3257
  115OSM   H12B11958   6.400   5.757   5.751 -1.6494  0.3138  1.0699
  115OSM    C1111959   6.301   5.921   5.847  0.3128  0.0746 -0.8880
  115OSM   H11A11960   6.321   6.031   5.849  0.5242  0.0340 -0.7983
  115OSM   H11B11961   6.326   5.882   5.948 -1.7394 -4.7930 -1.9928
  115OSM      P11962   6.041   5.973   5.883 -0.6756  0.3255 -0.0823
  115OSM    O1311963   6.045   6.110   5.820  0.1342 -0.0832  0.1181
  115OSM    O1411964   5.923   5.893   5.855 -0.0507  0.4534 -0.1371
  115OSM    O1111965   6.065   5.981   6.029  0.1891  0.1367 -0.4500
  115OSM    O1211966   6.165   5.894   5.823  0.4366  0.3814 -0.2477
  115OSM    C1S11967   6.042   5.853   6.101  0.1446 -0.7380 -0.1400
  115OSM    H1S11968   6.077   5.764   6.045  2.3532 -0.1831  0.2390
  115OSM    H1T11969   5.938   5.842   6.139 -0.3258  2.0811 -0.3850
  115OSM     NF11970   6.071   5.746   6.319  0.5300  0.4176 -0.3053
  115OSM    HNF11971   6.025   5.779   6.402  0.0744  0.5003 -0.5901
  115OSM    C2S11972   6.127   5.853   6.234  0.0936  0.1711 -0.3293
  115OSM    H2S11973   6.231   5.819   6.213 -0.4248 -2.2006  0.5874
  115OSM    C3S11974   6.146   5.989   6.300  0.5452 -0.4283 -0.3241
  115OSM    H3S11975   6.043   6.029   6.307  0.5717 -0.3517 -0.3713
  115OSM     O311976   6.233   6.077   6.225  0.1822  0.8568 -0.2652
  115OSM    HO311977   6.212   6.057   6.134 -1.5769  0.0130  0.2886
  115OSM    C4S11978   6.193   5.970   6.447 -0.0202 -0.3879  0.2257
  115OSM    H4S11979   6.144   5.896   6.513  0.6842 -1.7165 -0.7004
  115OSM    C5S11980   6.308   6.008   6.503 -0.1827 -0.1560 -0.8092
  115OSM    H5S11981   6.368   6.079   6.444  1.2874 -1.0542 -0.4177
  115OSM    C6S11982   6.356   5.993   6.643 -0.2217  0.2546 -0.4358
  115OSM    H6S11983   6.438   5.918   6.654 -0.2164  0.2918 -0.1987
  115OSM    H6T11984   6.276   5.945   6.704 -1.0451 -0.8262 -2.2714
  115OSM    C7S11985   6.396   6.127   6.694  0.1254 -0.5523 -0.0985
  115OSM    H7S11986   6.315   6.203   6.685  2.2264  2.0246  1.3440
  115OSM    H7T11987   6.482   6.162   6.633 -0.5490 -0.3175 -0.9375
  115OSM    C8S11988   6.430   6.129   6.845  0.1642  0.2048  0.1290
  115OSM    H8S11989   6.453   6.232   6.879  0.0455 -0.3156  1.9216
  115OSM    H8T11990   6.521   6.069   6.869  0.3795  0.1213 -0.8485
  115OSM    C9S11991   6.310   6.083   6.932  0.0154 -0.4160  0.2013
  115OSM    H9S11992   6.299   5.973   6.918  1.2004 -0.5026 -0.2107
  115OSM    H9T11993   6.218   6.128   6.889  0.7056  0.2559 -0.6100
  115OSM   C10S11994   6.333   6.128   7.075 -0.0028  0.4917 -0.5082
  115OSM   H10S11995   6.305   6.236   7.076  1.6255  0.9832 -1.7981
  115OSM   H10T11996   6.441   6.125   7.103 -0.3170 -0.6008  0.6543
  115OSM   C11S11997   6.260   6.048   7.179  0.1473  0.2865 -0.0898
  115OSM   H11S11998   6.283   5.939   7.178  1.3237  0.4215  2.6717
  115OSM   H11T11999   6.151   6.070   7.181 -0.0542 -0.4486 -1.7937
  115OSM   C12S12000   6.312   6.077   7.318 -0.2941  0.7516  0.1132
  115OSM   H12S12001   6.299   6.182   7.352 -1.0400  0.5040  0.6421
  115OSM   H12T12002   6.420   6.055   7.329 -0.2020  0.6752 -0.9050
  115OSM   C13S12003   6.235   5.995   7.421  0.7080  0.1842 -0.1793
  115OSM   H13S12004   6.256   5.886   7.412  0.4613  0.0677  0.6129
  115OSM   H13T12005   6.128   6.023   7.424  1.4278  3.8022 -2.4403
  115OSM   C14S12006   6.286   6.020   7.562 -1.0874  0.5365  0.3727
  115OSM   H14S12007   6.300   6.127   7.585 -0.2073  0.2272  1.3339
  115OSM   H14T12008   6.388   5.977   7.557 -1.5537 -0.5504 -0.2473
  115OSM   C15S12009   6.211   5.947   7.669 -0.2909  0.5044  0.1433
  115OSM   H15S12010   6.213   5.836   7.660  0.1763  0.5496 -0.3488
  115OSM   H15T12011   6.107   5.985   7.659 -1.0419 -1.7057 -1.1775
  115OSM   C16S12012   6.269   5.977   7.805  0.1053  0.1860 -0.1199
  115OSM   H16S12013   6.249   6.083   7.831 -0.6903  0.0288 -0.0561
  115OSM   H16T12014   6.378   5.971   7.784  0.1149 -1.2031  0.2086
  115OSM   C17S12015   6.229   5.889   7.923  0.0619 -0.2653  0.1356
  115OSM   H17S12016   6.249   5.782   7.901  1.3761 -0.5543  2.4655
  115OSM   H17T12017   6.120   5.897   7.943  0.2283 -1.2377  1.6186
  115OSM   C18S12018   6.302   5.925   8.056  0.0332  0.2189  0.6367
  115OSM   H18S12019   6.296   6.033   8.078 -0.1625  0.3767 -0.1841
  115OSM   H18T12020   6.411   5.902   8.055  0.3279  0.9968 -4.1567
  115OSM   H18U12021   6.248   5.877   8.141  0.9994  0.7539  1.5826
  115OSM    C1F12022   6.081   5.615   6.306  0.5043  0.1020 -0.8557
  115OSM     OF12023   6.148   5.565   6.214 -0.0271 -0.1404 -0.5739
  115OSM    C2F12024   6.008   5.523   6.402 -0.7314  0.5088  0.8007
  115OSM    H2F12025   5.972   5.436   6.342  0.8521 -0.0298  0.5764
  115OSM    H2G12026   5.917   5.576   6.436 -2.1699 -0.9759 -0.5343
  115OSM    C3F12027   6.086   5.486   6.529  0.2095 -0.0468 -0.5439
  115OSM    H3F12028   6.126   5.579   6.574  3.1224 -1.6677  0.4374
  115OSM    H3G12029   6.169   5.417   6.503 -0.2727 -0.0185 -2.3699
  115OSM    C4F12030   5.984   5.433   6.630 -0.7614 -0.1378 -0.6405
  115OSM    H4F12031   5.904   5.510   6.634 -2.4855 -1.7643 -1.6388
  115OSM    H4G12032   6.019   5.415   6.734  0.2221  0.2661 -0.8927
  115OSM    C5F12033   5.911   5.296   6.589 -0.5389  0.3591  0.0642
  115OSM    H5F12034   5.996   5.225   6.576  0.7799  2.0371 -1.0483
  115OSM    H5G12035   5.866   5.309   6.489  0.0933  2.9223  0.0564
  115OSM    C6F12036   5.802   5.244   6.681 -0.4915  0.4442  0.1703
  115OSM    H6F12037   5.838   5.252   6.786  2.5104  2.5588 -0.8993
  115OSM    H6G12038   5.784   5.136   6.664  0.9957  0.2074 -0.0010
  115OSM    C7F12039   5.670   5.328   6.668 -0.7178  0.5550  0.0785
  115OSM    H7F12040   5.627   5.339   6.566 -0.6563  0.0995 -0.0003
  115OSM    H7G12041   5.699   5.430   6.700 -0.3930  0.0965  1.3205
  115OSM    C8F12042   5.561   5.279   6.769  0.1957  0.3438 -0.0509
  115OSM    H8F12043   5.469   5.335   6.739  0.0717 -1.2738 -3.1003
  115OSM    H8G12044   5.609   5.308   6.865  1.1151 -0.1463 -0.3543
  115OSM    C9F12045   5.531   5.134   6.764 -0.8124  0.7074 -0.9441
  115OSM    H9F12046   5.568   5.082   6.675  1.7040 -0.8873  0.8899
  115OSM   C10F12047   5.469   5.065   6.863  0.2882 -0.1086 -0.6055
  115OSM   H10F12048   5.445   4.958   6.852 -0.6798 -0.6263  4.2895
  115OSM   C11F12049   5.416   5.116   6.990  0.7112  0.1031 -0.3237
  115OSM   H11F12050   5.343   5.048   7.038  2.1119  0.4990  2.5930
  115OSM   H11G12051   5.370   5.217   6.978 -0.7459 -0.5174 -0.1302
  115OSM   C12F12052   5.516   5.124   7.103 -0.1756 -0.2978  0.3309
  115OSM   H12F12053   5.596   5.199   7.084 -0.5531  0.0320  0.0322
  115OSM   H12G12054   5.569   5.026   7.105 -2.0682 -1.3875 -0.0769
  115OSM   C13F12055   5.450   5.155   7.235  0.6043 -0.5135 -0.4765
  115OSM   H13F12056   5.369   5.085   7.267 -1.2423  0.3568 -2.9627
  115OSM   H13G12057   5.402   5.255   7.234  4.3072  1.4132 -0.7117
  115OSM   C14F12058   5.548   5.156   7.355 -0.1462 -0.5748 -0.7838
  115OSM   H14F12059   5.633   5.225   7.335  1.3275 -2.2414 -0.4512
  115OSM   H14G12060   5.607   5.062   7.354  1.2287  0.2263  0.6220
  115OSM   C15F12061   5.482   5.187   7.494  0.0573  0.4278 -0.4800
  115OSM   H15F12062   5.409   5.108   7.518  0.6637 -0.5762 -1.7948
  115OSM   H15G12063   5.425   5.281   7.475  0.4217  0.4966 -1.2956
  115OSM   C16F12064   5.581   5.202   7.609 -0.0643  0.1027  0.1226
  115OSM   H16F12065   5.526   5.198   7.706  0.4384  0.8670  0.4493
  115OSM   H16G12066   5.645   5.292   7.599  2.1130 -1.5484 -1.8602
  115OSM   C17F12067   5.673   5.076   7.600 -0.7678  0.9254 -1.1738
  115OSM   H17F12068   5.760   5.084   7.531 -0.2749  0.2459 -0.6478
  115OSM   H17G12069   5.627   4.985   7.556  2.2124 -0.8493 -0.8486
  115OSM   C18F12070   5.720   5.037   7.743  0.3418  0.2578  0.3722
  115OSM   H18F12071   5.772   4.939   7.728  1.9365  1.0263  0.6521
  115OSM   H18G12072   5.636   5.038   7.815 -0.1131 -1.7893 -0.0509
  115OSM   H18H12073   5.793   5.112   7.779  1.3443 -1.3004  1.7354
  116OSM      N12074   6.207   3.494   6.271 -0.3188  0.0433  0.8477
  116OSM    C1512075   6.264   3.453   6.402 -0.0419  1.2274  0.0753
  116OSM   H15A12076   6.369   3.431   6.396 -0.9115 -3.8197 -2.8268
  116OSM   H15B12077   6.222   3.361   6.441  0.9100  0.2364 -1.1884
  116OSM   H15C12078   6.249   3.530   6.476 -2.3015  1.2703 -0.3316
  116OSM    C1412079   6.060   3.493   6.281 -0.6381  0.2110 -0.0177
  116OSM   H14A12080   6.036   3.549   6.370 -0.0885  0.1992  0.1395
  116OSM   H14B12081   6.033   3.391   6.302 -0.8866  0.3710  0.4514
  116OSM   H14C12082   6.016   3.529   6.189 -0.0268 -2.4954 -1.4609
  116OSM    C1312083   6.250   3.637   6.249  0.8226 -0.0095 -0.2709
  116OSM   H13A12084   6.358   3.644   6.251  0.9204 -1.2098 -0.6846
  116OSM   H13B12085   6.211   3.687   6.336 -0.6332 -0.6023 -0.5539
  116OSM   H13C12086   6.198   3.679   6.165 -0.6881 -2.1028 -0.4595
  116OSM    C1212087   6.258   3.403   6.165  0.3847  0.7320 -1.0610
  116OSM   H12A12088   6.363   3.392   6.185  0.2298  1.0825 -0.0098
  116OSM   H12B12089   6.262   3.446   6.065  0.9999  0.3749 -1.1964
  116OSM    C1112090   6.186   3.264   6.155  0.0443  0.2543  0.1819
  116OSM   H11A12091   6.223   3.205   6.068 -1.4509 -0.5331  0.0353
  116OSM   H11B12092   6.079   3.265   6.123 -0.0048 -1.7320  0.1352
  116OSM      P12093   6.066   3.121   6.343  0.1680  0.2043  0.0015
  116OSM    O1312094   5.943   3.192   6.302 -0.4917  0.0290 -0.3493
  116OSM    O1412095   6.068   2.972   6.335 -0.0982  0.2909  0.5220
  116OSM    O1112096   6.100   3.168   6.487  1.0078 -0.1699  0.3910
  116OSM    O1212097   6.200   3.184   6.275 -0.6118  0.3490 -0.1318
  116OSM    C1S12098   6.216   3.129   6.561  0.5139 -0.0227 -0.3177
  116OSM    H1S12099   6.308   3.168   6.513  1.6181 -0.3793  1.4203
  116OSM    H1T12100   6.230   3.019   6.570 -1.0742 -0.3763 -1.6948
  116OSM     NF12101   6.334   3.201   6.770 -0.2923  0.2035 -0.0833
  116OSM    HNF12102   6.363   3.125   6.829  0.1838  1.0868  0.8533
  116OSM    C2S12103   6.210   3.181   6.706 -0.0887 -0.1603  0.5824
  116OSM    H2S12104   6.173   3.286   6.705  2.3722  0.7946  2.0605
  116OSM    C3S12105   6.105   3.095   6.789 -0.3509  0.9114  0.2819
  116OSM    H3S12106   6.138   2.990   6.796 -0.5427  0.9370  2.0971
  116OSM     O312107   5.980   3.100   6.725 -0.1474  0.2325  0.1598
  116OSM    HO312108   6.007   3.116   6.634  1.2503  2.0264  0.8440
  116OSM    C4S12109   6.084   3.156   6.924  1.2150  0.1166 -0.5796
  116OSM    H4S12110   6.039   3.255   6.916  1.7423  0.2841 -1.6793
  116OSM    C5S12111   6.112   3.103   7.049 -0.6506  0.3490 -0.2983
  116OSM    H5S12112   6.157   3.003   7.062  0.9576  1.2353  1.5273
  116OSM    C6S12113   6.078   3.167   7.183 -0.1136 -0.0948 -0.0969
  116OSM    H6S12114   6.003   3.247   7.163 -0.3649 -0.2439  0.2294
  116OSM    H6T12115   6.169   3.219   7.218 -0.7829  0.6928  0.5335
  116OSM    C7S12116   6.002   3.081   7.276 -0.7286  0.3087  0.0106
  116OSM    H7S12117   6.044   2.978   7.282 -1.6247 -0.1781 -1.5248
  116OSM    H7T12118   5.897   3.067   7.243 -0.6519 -0.7506  0.1995
  116OSM    C8S12119   6.003   3.140   7.420 -0.3501 -0.1857  0.2929
  116OSM    H8S12120   5.938   3.229   7.413 -0.8867 -0.5701  0.3853
  116OSM    H8T12121   6.107   3.171   7.443 -0.8760 -0.2248  2.9987
  116OSM    C9S12122   5.956   3.044   7.531  0.0752  0.6814 -0.3127
  116OSM    H9S12123   6.027   2.959   7.539  0.1831  0.5827 -1.9046
  116OSM    H9T12124   5.862   3.005   7.489  0.4077  0.2202 -0.6400
  116OSM   C10S12125   5.923   3.127   7.661 -0.3091  0.3206 -0.2599
  116OSM   H10S12126   5.836   3.079   7.710  0.1209  0.8230  1.0326
  116OSM   H10T12127   5.879   3.226   7.636 -1.7673 -0.5862 -1.3976
  116OSM   C11S12128   6.032   3.158   7.774  0.6934  0.3192 -0.2994
  116OSM   H11S12129   5.996   3.223   7.856 -0.0373 -1.6373  1.0115
  116OSM   H11T12130   6.109   3.216   7.719  0.5426  0.0701 -0.7775
  116OSM   C12S12131   6.100   3.036   7.823  0.4804 -0.3886 -0.7426
  116OSM   H12S12132   6.134   2.978   7.735  0.2652 -2.1031  0.2510
  116OSM   H12T12133   6.039   2.963   7.882 -1.9612  0.7978 -1.6746
  116OSM   C13S12134   6.233   3.065   7.893 -0.3146  0.3787  0.0252
  116OSM   H13S12135   6.306   3.121   7.831  1.0251 -0.3846  0.8749
  116OSM   H13T12136   6.273   2.965   7.919 -0.5636  0.0440 -0.8358
  116OSM   C14S12137   6.209   3.146   8.020  0.6853  0.4096  0.3510
  116OSM   H14S12138   6.148   3.091   8.095 -0.5985 -0.8959 -1.5662
  116OSM   H14T12139   6.146   3.236   8.003 -2.6845 -1.8918 -0.3674
  116OSM   C15S12140   6.330   3.198   8.106  0.0190  0.2635  0.3545
  116OSM   H15S12141   6.362   3.120   8.178 -1.4734 -3.0659 -2.3311
  116OSM   H15T12142   6.296   3.280   8.172  0.6867  0.6667  0.2050
  116OSM   C16S12143   6.453   3.236   8.017 -0.2063  0.2912 -0.6508
  116OSM   H16S12144   6.424   3.323   7.956 -0.9186  0.8672  0.4815
  116OSM   H16T12145   6.472   3.147   7.953 -2.3560  0.7781 -2.0686
  116OSM   C17S12146   6.576   3.281   8.103 -0.3606  0.1160 -0.4709
  116OSM   H17S12147   6.665   3.277   8.038  1.1896 -1.1481  1.5958
  116OSM   H17T12148   6.609   3.212   8.184 -0.3227 -1.2111 -1.5794
  116OSM   C18S12149   6.557   3.416   8.170  0.7868 -0.3321  0.0451
  116OSM   H18S12150   6.647   3.453   8.223  0.2773 -0.5479  1.0873
  116OSM   H18T12151   6.468   3.416   8.236  0.2337 -0.9424 -0.6859
  116OSM   H18U12152   6.552   3.496   8.093  3.0490  0.0615  0.2300
  116OSM    C1F12153   6.430   3.290   6.738  0.1728 -0.1808  0.0213
  116OSM     OF12154   6.406   3.378   6.655  0.1885 -0.1627  0.2417
  116OSM    C2F12155   6.552   3.287   6.816  0.2488  0.2781  0.6367
  116OSM    H2F12156   6.627   3.256   6.741  0.2074 -0.2853  0.8254
  116OSM    H2G12157   6.540   3.209   6.894 -1.1709  0.6718  0.8359
  116OSM    C3F12158   6.598   3.418   6.891  0.6086 -0.5447  0.3292
  116OSM    H3F12159   6.585   3.511   6.832 -2.2446 -0.8944  0.2907
  116OSM    H3G12160   6.707   3.410   6.914  0.5751  0.2233  0.7673
  116OSM    C4F12161   6.521   3.436   7.020  0.2095  0.0321 -0.1953
  116OSM    H4F12162   6.519   3.345   7.084  1.9173  0.1990  0.1462
  116OSM    H4G12163   6.416   3.462   6.994 -0.0689 -1.2551 -0.4283
  116OSM    C5F12164   6.578   3.550   7.116  0.3148  0.2568  0.6616
  116OSM    H5F12165   6.591   3.642   7.056  0.3348  0.3168  0.7587
  116OSM    H5G12166   6.677   3.513   7.150  0.1718  0.3616  1.2011
  116OSM    C6F12167   6.489   3.577   7.230  0.7217  0.2501 -0.6464
  116OSM    H6F12168   6.384   3.585   7.196 -0.3464 -2.6322  1.5404
  116OSM    H6G12169   6.497   3.679   7.274  1.5209  1.5305 -3.5147
  116OSM    C7F12170   6.491   3.467   7.338 -0.1321 -0.2063  0.0044
  116OSM    H7F12171   6.571   3.487   7.412 -0.0405 -1.4038  0.2521
  116OSM    H7G12172   6.494   3.367   7.289 -0.5400  0.2767 -1.0329
  116OSM    C8F12173   6.365   3.481   7.425  0.6096 -0.0176  0.1506
  116OSM    H8F12174   6.284   3.466   7.350  0.9032  2.5875 -0.8030
  116OSM    H8G12175   6.371   3.584   7.468 -0.4154 -0.0918  0.4801
  116OSM    C9F12176   6.345   3.380   7.537  0.5584  0.0718 -0.0027
  116OSM    H9F12177   6.300   3.284   7.507 -0.2126  0.0166  1.2971
  116OSM   C10F12178   6.388   3.398   7.663  1.3352 -0.4997  0.0307
  116OSM   H10F12179   6.373   3.318   7.736 -0.4647 -0.5391 -0.3387
  116OSM   C11F12180   6.463   3.520   7.715 -0.2185 -0.0106  0.5465
  116OSM   H11F12181   6.503   3.579   7.630  1.6693 -1.5505  0.3011
  116OSM   H11G12182   6.549   3.480   7.773 -0.8853 -1.0365  0.8512
  116OSM   C12F12183   6.384   3.615   7.812  0.2817 -0.1933  0.0587
  116OSM   H12F12184   6.373   3.550   7.902  1.6437 -0.1875  0.2507
  116OSM   H12G12185   6.282   3.646   7.781 -0.1760 -0.5799  1.1220
  116OSM   C13F12186   6.458   3.741   7.859  0.5891 -0.6898 -0.0758
  116OSM   H13F12187   6.499   3.808   7.780 -0.1333 -0.5490 -0.3372
  116OSM   H13G12188   6.551   3.713   7.913  2.1000 -0.0817 -2.2425
  116OSM   C14F12189   6.377   3.821   7.968 -0.0483  0.2279 -0.1646
  116OSM   H14F12190   6.272   3.841   7.939 -0.3563 -1.4860 -0.3428
  116OSM   H14G12191   6.429   3.918   7.981  1.6510 -0.3544 -2.1399
  116OSM   C15F12192   6.381   3.747   8.101 -0.5857  0.2042  0.3262
  116OSM   H15F12193   6.486   3.718   8.124 -1.4705 -3.3531  0.4032
  116OSM   H15G12194   6.331   3.648   8.101  1.3915 -0.8507 -1.0489
  116OSM   C16F12195   6.314   3.831   8.209  0.2609  0.0982  0.0778
  116OSM   H16F12196   6.206   3.820   8.188 -0.2485  1.9995  1.4648
  116OSM   H16G12197   6.349   3.936   8.195 -1.1001  0.3818 -1.5150
  116OSM   C17F12198   6.349   3.791   8.353 -0.6234  0.0984 -0.2469
  116OSM   H17F12199   6.314   3.693   8.392 -1.1636 -0.1125 -1.2530
  116OSM   H17G12200   6.307   3.862   8.428  1.5601 -1.4804  2.6913
  116OSM   C18F12201   6.497   3.788   8.384 -0.0405  0.0431 -0.1940
  116OSM   H18F12202   6.536   3.688   8.355 -0.1267  0.0448 -0.3162
  116OSM   H18G12203   6.506   3.790   8.495 -2.2141  1.4419  0.0217
  116OSM   H18H12204   6.552   3.870   8.332  0.9677  0.8228  1.9751
  117OSM      N12205   0.768   5.208   5.912 -0.5657 -0.3413 -0.4555
  117OSM    C1512206   0.670   5.110   5.888 -0.5499 -0.3762  0.1427
  117OSM   H15A12207   0.720   5.015   5.904  1.3152  0.6161  0.5796
  117OSM   H15B12208   0.633   5.132   5.789 -1.9241  3.5741  1.3402
  117OSM   H15C12209   0.584   5.128   5.949 -0.5090 -2.3775  0.8505
  117OSM    C1412210   0.890   5.192   5.824 -0.8347  0.0479  0.5320
  117OSM   H14A12211   0.972   5.246   5.870 -0.1059 -0.3459 -0.2698
  117OSM   H14B12212   0.874   5.233   5.726 -0.7745 -0.3840  0.3372
  117OSM   H14C12213   0.930   5.092   5.813  0.4667  0.3437  2.0613
  117OSM    C1312214   0.714   5.352   5.893 -0.0465  0.3292 -0.6383
  117OSM   H13A12215   0.690   5.349   5.788 -0.3491 -1.5272 -0.5407
  117OSM   H13B12216   0.793   5.424   5.911 -0.2159  0.2481  0.4772
  117OSM   H13C12217   0.630   5.373   5.957  1.9424  2.2411  1.5709
  117OSM    C1212218   0.815   5.207   6.056 -0.0414  0.4205 -0.7713
  117OSM   H12A12219   0.732   5.233   6.120  0.2378  0.9123 -0.5988
  117OSM   H12B12220   0.886   5.285   6.081  3.2974 -2.4801 -0.5161
  117OSM    C1112221   0.857   5.069   6.114 -0.0068 -0.5738 -0.2091
  117OSM   H11A12222   0.778   4.993   6.093 -0.1671  0.4283 -4.0215
  117OSM   H11B12223   0.843   5.077   6.224  2.8201 -0.4102  0.2004
  117OSM      P12224   1.115   5.109   6.124 -0.0218  0.2027  0.1297
  117OSM    O1312225   1.242   5.045   6.077 -0.2163  0.1576  0.6336
  117OSM    O1412226   1.113   5.250   6.082 -0.0476  0.6597  0.1916
  117OSM    O1112227   1.119   5.108   6.283 -0.2193 -0.3887 -0.1929
  117OSM    O1212228   0.986   5.022   6.086 -0.8408 -0.3125  0.0679
  117OSM    C1S12229   1.114   4.982   6.345 -0.5456 -0.0348  0.1364
  117OSM    H1S12230   1.213   4.937   6.324  0.0589  1.1044  0.4336
  117OSM    H1T12231   1.048   4.907   6.297 -1.1809 -0.7803  2.0999
  117OSM     NF12232   1.088   4.860   6.552  0.1692  0.4132 -0.3452
  117OSM    HNF12233   1.009   4.802   6.535  0.2034  0.6527 -1.3640
  117OSM    C2S12234   1.091   4.995   6.501 -0.5449  0.5395 -0.4343
  117OSM    H2S12235   1.182   5.046   6.538  1.2539 -0.2621 -3.4016
  117OSM    C3S12236   0.968   5.084   6.533  0.7400 -0.4584 -0.1307
  117OSM    H3S12237   0.879   5.040   6.484 -1.5487  3.9068 -0.3884
  117OSM     O312238   0.962   5.215   6.484 -0.1358 -0.0009 -0.3677
  117OSM    HO312239   1.036   5.208   6.423  0.4498 -1.2582  0.4578
  117OSM    C4S12240   0.941   5.092   6.685  0.4941  0.4492 -0.2632
  117OSM    H4S12241   0.914   4.995   6.728  2.5639  0.5017  1.3291
  117OSM    C5S12242   0.972   5.192   6.766 -0.0192 -0.2761 -0.1655
  117OSM    H5S12243   1.005   5.289   6.725  2.0270 -1.0145 -0.3486
  117OSM    C6S12244   0.955   5.187   6.922 -0.1948 -0.2871  0.5950
  117OSM    H6S12245   0.882   5.263   6.957 -1.7742 -0.0219 -2.8215
  117OSM    H6T12246   1.055   5.207   6.965  0.2453 -2.5439  0.7625
  117OSM    C7S12247   0.907   5.047   6.982 -0.5064 -0.3151 -0.1782
  117OSM    H7S12248   0.974   4.964   6.954  0.4332  0.0114  1.0364
  117OSM    H7T12249   0.811   5.016   6.936  0.0411 -1.0011 -0.8671
  117OSM    C8S12250   0.896   5.053   7.134 -0.0740  0.8182 -0.5469
  117OSM    H8S12251   0.832   5.133   7.176 -0.0918  1.5463 -1.8876
  117OSM    H8T12252   0.999   5.071   7.170 -0.6296 -0.4809  1.9658
  117OSM    C9S12253   0.858   4.917   7.200 -0.5385  0.1428  0.4743
  117OSM    H9S12254   0.882   4.831   7.134  0.0258  0.2093  0.5936
  117OSM    H9T12255   0.751   4.920   7.232 -1.0256 -4.9006  0.2838
  117OSM   C10S12256   0.935   4.884   7.331 -0.8776  0.5874 -0.0385
  117OSM   H10S12257   0.898   4.946   7.415  2.1271  0.9261  1.1384
  117OSM   H10T12258   1.038   4.923   7.321 -0.5682 -0.1713  0.1501
  117OSM   C11S12259   0.934   4.735   7.370  0.0202 -0.0237 -0.3919
  117OSM   H11S12260   0.978   4.674   7.288 -1.1354 -1.7615  0.2366
  117OSM   H11T12261   0.833   4.694   7.389  0.9907 -2.0384  0.6714
  117OSM   C12S12262   1.009   4.692   7.505  0.3116  0.0081  0.4642
  117OSM   H12S12263   0.983   4.751   7.595 -0.2665  0.1163  0.2300
  117OSM   H12T12264   1.120   4.690   7.498  0.3210  0.0916  0.5952
  117OSM   C13S12265   0.984   4.537   7.534  0.0139 -0.1928 -0.2705
  117OSM   H13S12266   0.987   4.491   7.432  1.4282 -1.5245  0.3398
  117OSM   H13T12267   0.882   4.526   7.576  0.8601 -6.0897  1.1152
  117OSM   C14S12268   1.090   4.476   7.628 -0.3623 -0.1760  0.2337
  117OSM   H14S12269   1.192   4.518   7.622  0.2066 -1.3768  1.1536
  117OSM   H14T12270   1.094   4.368   7.602 -0.6030 -0.0442 -0.3705
  117OSM   C15S12271   1.039   4.488   7.779  0.4968 -0.2383 -0.0309
  117OSM   H15S12272   0.939   4.442   7.799  1.1791 -0.7553  2.6071
  117OSM   H15T12273   1.035   4.595   7.805 -1.5267 -0.6914  1.8612
  117OSM   C16S12274   1.129   4.410   7.869 -0.0281  0.7214 -0.0178
  117OSM   H16S12275   1.232   4.445   7.850  0.7389 -0.8272  1.0738
  117OSM   H16T12276   1.117   4.304   7.835 -1.9415  0.1085  2.2848
  117OSM   C17S12277   1.097   4.427   8.010 -0.5846  0.0645 -0.3579
  117OSM   H17S12278   0.987   4.418   8.020 -0.9247 -1.2402 -3.8654
  117OSM   H17T12279   1.131   4.524   8.054  1.1344  0.7882 -3.0288
  117OSM   C18S12280   1.166   4.323   8.096 -0.5219  0.2483 -0.0725
  117OSM   H18S12281   1.152   4.221   8.054 -0.7755  0.0701  0.4458
  117OSM   H18T12282   1.116   4.342   8.193 -0.6457  3.0033 -0.5998
  117OSM   H18U12283   1.273   4.350   8.108 -0.1606 -0.7998 -0.8058
  117OSM    C1F12284   1.203   4.792   6.566 -0.2377  0.2120  0.1522
  117OSM     OF12285   1.318   4.831   6.538 -0.1649 -0.2148 -0.4089
  117OSM    C2F12286   1.183   4.647   6.606 -0.1255 -0.5149  0.3664
  117OSM    H2F12287   1.268   4.600   6.553 -0.0369  3.0556 -3.0727
  117OSM    H2G12288   1.088   4.620   6.553 -1.1226  1.5899  0.9749
  117OSM    C3F12289   1.159   4.621   6.758  0.1131  0.0956  0.3939
  117OSM    H3F12290   1.220   4.679   6.831 -1.1546 -1.3479  2.7419
  117OSM    H3G12291   1.179   4.512   6.767 -0.4491 -0.4076 -3.0618
  117OSM    C4F12292   1.013   4.648   6.805 -0.4424  0.7908 -0.3356
  117OSM    H4F12293   0.948   4.578   6.748 -1.8061  0.3444  1.6820
  117OSM    H4G12294   0.978   4.750   6.780 -2.3157  0.0118 -1.1012
  117OSM    C5F12295   1.000   4.612   6.962  0.1169  0.1947  0.6930
  117OSM    H5F12296   0.909   4.663   7.000  0.7219  0.8316  1.3550
  117OSM    H5G12297   1.087   4.660   7.013 -0.2765 -0.0065  1.5701
  117OSM    C6F12298   1.002   4.461   6.993 -0.1974  0.5156 -0.3628
  117OSM    H6F12299   1.092   4.432   6.935  0.4584  1.6154  0.0841
  117OSM    H6G12300   0.907   4.412   6.963  0.7368 -1.7228  0.0913
  117OSM    C7F12301   1.025   4.431   7.134 -0.2798  0.1060  0.3501
  117OSM    H7F12302   0.938   4.456   7.198 -1.6331 -1.6376 -0.7061
  117OSM    H7G12303   1.117   4.487   7.163  0.9382 -1.1199 -0.9339
  117OSM    C8F12304   1.053   4.281   7.153 -0.2063  0.3263  0.2327
  117OSM    H8F12305   1.145   4.252   7.097 -0.0203  2.1182 -0.4881
  117OSM    H8G12306   0.972   4.224   7.103 -0.5019 -0.7133  1.8464
  117OSM    C9F12307   1.060   4.247   7.301 -0.3182 -0.6078  0.0326
  117OSM    H9F12308   0.960   4.236   7.345 -0.1048  0.3592  0.8268
  117OSM   C10F12309   1.168   4.215   7.375 -0.2354 -0.2005 -0.3223
  117OSM   H10F12310   1.156   4.187   7.481  0.9851 -1.3960 -0.4702
  117OSM   C11F12311   1.312   4.212   7.321  0.0393 -0.1739  0.1291
  117OSM   H11F12312   1.318   4.195   7.212  1.0389  0.9320 -0.0066
  117OSM   H11G12313   1.356   4.120   7.365  0.0809 -0.1729  0.0892
  117OSM   C12F12314   1.403   4.331   7.361 -0.8787  0.4448  0.1396
  117OSM   H12F12315   1.364   4.427   7.322  0.3888  1.7908  2.0015
  117OSM   H12G12316   1.495   4.315   7.300 -1.5909  1.5389 -1.2813
  117OSM   C13F12317   1.453   4.345   7.503  0.1943  0.0422  0.5265
  117OSM   H13F12318   1.431   4.249   7.555  0.3183  0.1086  0.7010
  117OSM   H13G12319   1.394   4.427   7.547 -2.1108 -1.6649  0.7803
  117OSM   C14F12320   1.596   4.391   7.522 -0.2563 -0.5170 -0.5321
  117OSM   H14F12321   1.606   4.495   7.487 -1.5204 -0.2325 -0.0940
  117OSM   H14G12322   1.667   4.346   7.450 -0.9100 -1.3222 -0.7002
  117OSM   C15F12323   1.652   4.374   7.670 -0.2395 -0.0155  0.2934
  117OSM   H15F12324   1.759   4.401   7.666 -0.4586  0.9166  0.3318
  117OSM   H15G12325   1.632   4.267   7.691 -0.3681 -0.4633 -1.8381
  117OSM   C16F12326   1.574   4.461   7.769 -0.3085  0.2797  0.0276
  117OSM   H16F12327   1.626   4.450   7.867 -0.8105 -0.3647  0.2247
  117OSM   H16G12328   1.473   4.415   7.770 -0.7418  1.1597 -0.8544
  117OSM   C17F12329   1.557   4.610   7.735 -0.9993  0.1482 -0.1223
  117OSM   H17F12330   1.659   4.648   7.715 -0.0518 -1.9691  0.3835
  117OSM   H17G12331   1.496   4.620   7.643 -0.6290  0.2958 -0.3531
  117OSM   C18F12332   1.501   4.693   7.841  0.7298 -0.3965  0.4229
  117OSM   H18F12333   1.581   4.705   7.917  0.5067  1.9420  0.3625
  117OSM   H18G12334   1.412   4.643   7.885  0.7327  0.1490  1.0661
  117OSM   H18H12335   1.460   4.791   7.807 -1.1887 -0.4674  2.2959
  118OSM      N12336   5.892   1.734   6.405 -0.3064  1.0548 -0.2121
  118OSM    C1512337   5.930   1.624   6.499 -0.3431 -0.0295  0.1283
  118OSM   H15A12338   5.869   1.536   6.484 -0.5685  0.4648 -2.2713
  118OSM   H15B12339   5.918   1.663   6.599  0.7505 -2.2504  1.2164
  118OSM   H15C12340   6.031   1.588   6.486 -0.3657  0.0899 -0.4117
  118OSM    C1412341   5.995   1.845   6.415 -0.5093 -0.6198 -0.1742
  118OSM   H14A12342   5.999   1.903   6.324  1.3527 -1.7590 -0.8868
  118OSM   H14B12343   6.086   1.793   6.440  0.8127  0.2986 -2.7015
  118OSM   H14C12344   5.975   1.911   6.498  1.1936  0.8389 -0.8450
  118OSM    C1312345   5.906   1.676   6.265 -0.3979 -0.3563 -0.1361
  118OSM   H13A12346   5.998   1.621   6.254  1.0518  2.1514 -1.6423
  118OSM   H13B12347   5.909   1.753   6.189 -1.6486 -1.9523 -1.8918
  118OSM   H13C12348   5.831   1.607   6.230  0.2571 -1.6121  0.8688
  118OSM    C1212349   5.749   1.785   6.439 -0.4478 -0.7996 -0.4798
  118OSM   H12A12350   5.723   1.862   6.368 -0.4303  0.6546  1.0182
  118OSM   H12B12351   5.753   1.831   6.537 -0.7229  0.0202 -0.8438
  118OSM    C1112352   5.639   1.678   6.448  0.2065  0.2839 -0.8799
  118OSM   H11A12353   5.549   1.722   6.496  0.6194  0.1190  0.0844
  118OSM   H11B12354   5.663   1.603   6.527  0.3845  2.7223  1.5584
  118OSM      P12355   5.496   1.667   6.234 -0.0489 -0.0087  0.1521
  118OSM    O1312356   5.457   1.805   6.276 -0.4970  0.0716  0.2786
  118OSM    O1412357   5.524   1.652   6.091  0.6693 -0.4624  0.0840
  118OSM    O1112358   5.374   1.576   6.274 -0.0584 -0.3073  0.3437
  118OSM    O1212359   5.616   1.620   6.317  0.1593  0.2330  0.1471
  118OSM    C1S12360   5.406   1.459   6.348 -0.0810 -0.3151  0.3507
  118OSM    H1S12361   5.506   1.458   6.397  0.3914  1.8556 -0.4336
  118OSM    H1T12362   5.409   1.373   6.278  1.8347 -1.6165  1.9149
  118OSM     NF12363   5.355   1.290   6.508  0.3514  0.7645  0.4768
  118OSM    HNF12364   5.311   1.210   6.469  1.3744 -0.3181  1.4512
  118OSM    C2S12365   5.312   1.419   6.469  0.6450  0.2022 -0.2799
  118OSM    H2S12366   5.340   1.491   6.549  0.0136 -1.2836  1.3300
  118OSM    C3S12367   5.161   1.441   6.432  0.0305  0.8249 -0.7809
  118OSM    H3S12368   5.132   1.381   6.343 -0.0883  1.3715 -1.1155
  118OSM     O312369   5.119   1.579   6.403  0.0094 -0.3896  0.4946
  118OSM    HO312370   5.197   1.629   6.377 -0.2174 -1.0636 -1.6399
  118OSM    C4S12371   5.079   1.397   6.550 -0.5585  0.2146 -0.1574
  118OSM    H4S12372   5.032   1.299   6.534  0.9746 -0.7929  1.2114
  118OSM    C5S12373   5.061   1.462   6.671 -0.5853 -0.4907  0.6983
  118OSM    H5S12374   5.114   1.556   6.690 -0.4759 -0.0364 -1.5868
  118OSM    C6S12375   4.975   1.413   6.780 -0.2618 -0.3804 -0.0252
  118OSM    H6S12376   5.026   1.383   6.874 -0.1290  2.3373  0.8299
  118OSM    H6T12377   4.907   1.331   6.748  0.7769 -1.7559  1.1376
  118OSM    C7S12378   4.885   1.538   6.823 -0.4939 -0.3870  0.0732
  118OSM    H7S12379   4.831   1.575   6.733  0.6773 -0.2672 -0.6094
  118OSM    H7T12380   4.956   1.613   6.863 -0.8017 -0.7819  1.4261
  118OSM    C8S12381   4.799   1.496   6.949 -0.2609  1.0027 -0.5133
  118OSM    H8S12382   4.722   1.418   6.934  0.3820 -0.4987  2.8506
  118OSM    H8T12383   4.747   1.588   6.984  1.5054  0.9591  2.6638
  118OSM    C9S12384   4.876   1.453   7.073 -0.9246 -0.0838  0.0881
  118OSM    H9S12385   4.942   1.533   7.112  0.3799 -1.4156  0.7361
  118OSM    H9T12386   4.944   1.367   7.051  2.1081  1.6507  2.0425
  118OSM   C10S12387   4.787   1.413   7.195  0.0016 -0.6640  0.4097
  118OSM   H10S12388   4.723   1.332   7.155  2.0853 -1.9781 -0.4315
  118OSM   H10T12389   4.712   1.490   7.224 -1.0762 -0.9742 -1.3949
  118OSM   C11S12390   4.862   1.362   7.317  0.1754  0.6282  0.6143
  118OSM   H11S12391   4.933   1.435   7.362 -0.3532  1.2125  0.5231
  118OSM   H11T12392   4.920   1.274   7.282 -0.4313  1.2639 -2.2434
  118OSM   C12S12393   4.759   1.324   7.426 -0.1875 -0.3028 -0.1180
  118OSM   H12S12394   4.704   1.235   7.389  0.5550 -0.1177 -1.7674
  118OSM   H12T12395   4.698   1.414   7.446 -0.0337 -0.2408  0.0794
  118OSM   C13S12396   4.834   1.285   7.548  0.3611  0.3233 -0.2188
  118OSM   H13S12397   4.880   1.373   7.598 -0.4739  0.6390  0.0217
  118OSM   H13T12398   4.931   1.239   7.519  1.1890  1.1449  1.1125
  118OSM   C14S12399   4.766   1.219   7.662  0.0730  0.0045 -0.3493
  118OSM   H14S12400   4.722   1.118   7.645  2.1860 -1.0261 -0.0160
  118OSM   H14T12401   4.683   1.280   7.704 -0.2922  0.4706 -1.7231
  118OSM   C15S12402   4.867   1.212   7.782  0.6078  0.6114  0.5002
  118OSM   H15S12403   4.898   1.318   7.796  0.1723  1.0455 -1.5003
  118OSM   H15T12404   4.957   1.154   7.752 -0.2264 -0.6802  0.4225
  118OSM   C16S12405   4.817   1.158   7.913  0.8908  0.2097  0.2462
  118OSM   H16S12406   4.795   1.051   7.892 -2.1763  1.2742 -3.0486
  118OSM   H16T12407   4.721   1.207   7.938  0.6788  0.5289 -1.1187
  118OSM   C17S12408   4.913   1.179   8.035  0.1950  0.0708  1.3098
  118OSM   H17S12409   5.019   1.156   8.013 -0.3047 -1.3785  0.2396
  118OSM   H17T12410   4.882   1.099   8.106  0.6793 -1.6194 -0.3123
  118OSM   C18S12411   4.900   1.322   8.082  0.1807  0.3274  0.3301
  118OSM   H18S12412   4.801   1.372   8.078  0.4144  0.9440  1.6916
  118OSM   H18T12413   4.962   1.393   8.023 -1.4134  1.2080 -0.3407
  118OSM   H18U12414   4.935   1.331   8.187 -3.9077  3.3269  1.7163
  118OSM    C1F12415   5.463   1.266   6.590 -0.5614  0.7838  0.7498
  118OSM     OF12416   5.543   1.359   6.617  0.3397  0.3592  0.3628
  118OSM    C2F12417   5.475   1.129   6.643  0.3096 -0.3677 -0.9451
  118OSM    H2F12418   5.572   1.075   6.649 -1.1041 -2.8763  1.5692
  118OSM    H2G12419   5.410   1.058   6.588  0.6557 -1.8054  0.4278
  118OSM    C3F12420   5.429   1.144   6.787 -0.0455  0.1833 -0.5428
  118OSM    H3F12421   5.322   1.169   6.801 -0.1887 -0.4539 -0.4552
  118OSM    H3G12422   5.501   1.212   6.837 -0.1907  1.1306 -1.5885
  118OSM    C4F12423   5.445   1.009   6.866  0.0836 -0.5631  0.4853
  118OSM    H4F12424   5.556   1.000   6.866  0.2394  1.0391  0.2318
  118OSM    H4G12425   5.388   0.929   6.814 -0.5261  0.2601 -0.1449
  118OSM    C5F12426   5.394   1.019   7.008  0.2393 -0.6424  0.1777
  118OSM    H5F12427   5.296   1.072   7.016  0.8585  0.3121  2.0797
  118OSM    H5G12428   5.471   1.090   7.045  0.7617 -0.6199 -0.9034
  118OSM    C6F12429   5.387   0.877   7.074 -0.3060 -0.4161 -0.1192
  118OSM    H6F12430   5.481   0.822   7.051 -0.9774 -0.7199 -2.3318
  118OSM    H6G12431   5.308   0.820   7.021 -0.4309 -1.2215  0.9036
  118OSM    C7F12432   5.363   0.882   7.228  0.6734 -0.3756 -0.0930
  118OSM    H7F12433   5.258   0.883   7.264  1.2667 -1.9824  1.9004
  118OSM    H7G12434   5.424   0.960   7.277  2.2826  0.0840 -2.6164
  118OSM    C8F12435   5.424   0.760   7.305  0.1915 -0.7483 -0.4938
  118OSM    H8F12436   5.451   0.788   7.409 -3.6455  1.4186  0.0809
  118OSM    H8G12437   5.518   0.733   7.252  2.1512  0.9570  1.9119
  118OSM    C9F12438   5.341   0.637   7.318 -0.4965 -0.9247 -0.2441
  118OSM    H9F12439   5.306   0.596   7.223  0.7110  1.0338 -1.6048
  118OSM   C10F12440   5.310   0.563   7.426  0.3934 -0.5281  0.3312
  118OSM   H10F12441   5.259   0.468   7.404  1.1266 -0.9246  0.2903
  118OSM   C11F12442   5.348   0.576   7.570 -0.4894  0.0388 -0.5834
  118OSM   H11F12443   5.307   0.505   7.644  2.9724  1.0510  2.6199
  118OSM   H11G12444   5.312   0.673   7.611  0.7172 -0.2330  1.2228
  118OSM   C12F12445   5.503   0.575   7.590 -0.1199  0.1856 -0.2189
  118OSM   H12F12446   5.550   0.665   7.546  0.3321  0.5767  1.0287
  118OSM   H12G12447   5.553   0.485   7.547 -1.6152 -2.1848  2.5657
  118OSM   C13F12448   5.532   0.576   7.743 -0.2244 -0.3457  0.2238
  118OSM   H13F12449   5.642   0.568   7.757 -0.2272  1.2203  1.3696
  118OSM   H13G12450   5.487   0.483   7.783  0.1107 -0.0952  1.2010
  118OSM   C14F12451   5.463   0.679   7.836 -0.2387 -0.1812 -0.4414
  118OSM   H14F12452   5.357   0.699   7.807 -0.3019 -0.6299 -0.5352
  118OSM   H14G12453   5.512   0.776   7.814 -0.9589  1.0290  2.7363
  118OSM   C15F12454   5.482   0.648   7.984  0.3023  0.1796 -0.8429
  118OSM   H15F12455   5.584   0.604   7.978  0.8967  1.0877  1.6495
  118OSM   H15G12456   5.413   0.565   8.012  1.0863 -0.1892  0.0365
  118OSM   C16F12457   5.466   0.764   8.090  0.7346 -0.3304  0.7634
  118OSM   H16F12458   5.377   0.825   8.063  1.7833  1.2180  0.6597
  118OSM   H16G12459   5.560   0.819   8.066  0.4453 -0.2716 -0.2983
  118OSM   C17F12460   5.463   0.715   8.237  0.6029  0.3241 -0.2543
  118OSM   H17F12461   5.543   0.644   8.266  0.0839 -0.6471 -1.1395
  118OSM   H17G12462   5.365   0.662   8.244  1.8655 -2.2697 -0.9827
  118OSM   C18F12463   5.450   0.826   8.341 -0.1751 -0.5049 -0.0273
  118OSM   H18F12464   5.425   0.792   8.444 -0.6074 -1.6055 -0.4861
  118OSM   H18G12465   5.365   0.891   8.312  1.0245  1.6284  0.9505
  118OSM   H18H12466   5.543   0.888   8.341  0.8376 -1.8760  2.2940
  119OSM      N12467   5.516   0.100   6.009  0.1773 -0.2906  0.0423
  119OSM    C1512468   5.622   0.049   6.108  0.3879 -0.3365  1.2697
  119OSM   H15A12469   5.572  -0.022   6.173 -2.4704 -0.2189 -0.6029
  119OSM   H15B12470   5.666   0.134   6.158 -1.1287  0.0121  2.0862
  119OSM   H15C12471   5.707   0.005   6.059 -0.3184  0.2241 -0.5362
  119OSM    C1412472   5.577   0.190   5.907  0.0077  0.0246 -0.1463
  119OSM   H14A12473   5.508   0.229   5.832  1.2704 -0.3513 -1.5515
  119OSM   H14B12474   5.648   0.129   5.853  0.4467  0.4576 -0.0650
  119OSM   H14C12475   5.619   0.280   5.948 -1.1942  0.0098  1.2013
  119OSM    C1312476   5.464  -0.015   5.936 -0.1254 -0.2593 -0.1922
  119OSM   H13A12477   5.436  -0.096   6.003  1.3180 -2.7192 -2.3812
  119OSM   H13B12478   5.537  -0.053   5.867  1.8686  0.6966  1.2855
  119OSM   H13C12479   5.369   0.002   5.886 -1.2300 -0.5147  1.7168
  119OSM    C1212480   5.401   0.179   6.082  0.0490  0.1823  0.1879
  119OSM   H12A12481   5.444   0.262   6.135  1.4180 -1.7623  2.3579
  119OSM   H12B12482   5.356   0.122   6.163  1.1686 -1.7634 -0.4861
  119OSM    C1112483   5.282   0.233   5.991 -0.4144 -0.3028 -0.3144
  119OSM   H11A12484   5.346   0.273   5.909  1.7085 -0.9130  0.9419
  119OSM   H11B12485   5.226   0.315   6.040  0.1737 -1.7286  2.9674
  119OSM      P12486   5.083   0.074   6.027  0.0302  0.2230  0.3809
  119OSM    O1312487   4.986   0.182   6.050  0.0959 -0.2674 -0.0139
  119OSM    O1412488   5.031  -0.057   5.975  0.1256 -0.0885 -0.1482
  119OSM    O1112489   5.158   0.049   6.162 -0.5737 -0.9509  0.4157
  119OSM    O1212490   5.197   0.134   5.938 -0.0851  0.0136  0.5710
  119OSM    C1S12491   5.187  -0.084   6.211 -0.0698 -0.4986  0.1248
  119OSM    H1S12492   5.285  -0.115   6.169 -0.5434 -0.0839 -1.3107
  119OSM    H1T12493   5.117  -0.166   6.182 -0.8218  0.0218  0.4423
  119OSM     NF12494   5.283  -0.219   6.411 -0.4278  0.0240  0.1950
  119OSM    HNF12495   5.234  -0.305   6.426  1.3358 -0.8191  1.5182
  119OSM    C2S12496   5.207  -0.095   6.365  0.0081 -0.8089 -0.7423
  119OSM    H2S12497   5.262  -0.000   6.383 -0.4987 -0.4228 -1.1932
  119OSM    C3S12498   5.065  -0.086   6.426 -0.3920  0.4589 -0.4928
  119OSM    H3S12499   5.011  -0.171   6.378  1.5086 -1.1733  0.1009
  119OSM     O312500   4.994   0.032   6.398 -0.1448 -0.1909 -0.1156
  119OSM    HO312501   5.049   0.077   6.334 -0.5854  0.0651 -0.3200
  119OSM    C4S12502   5.072  -0.099   6.571 -0.3910  0.0529  0.1564
  119OSM    H4S12503   5.120  -0.013   6.620  1.0572  0.6123 -2.0653
  119OSM    C5S12504   5.006  -0.190   6.644  0.3516 -0.5758  0.0647
  119OSM    H5S12505   4.945  -0.261   6.586 -0.7232 -0.2158  0.7390
  119OSM    C6S12506   4.987  -0.197   6.796 -1.1435 -0.3495 -0.8880
  119OSM    H6S12507   4.885  -0.227   6.830  0.8209 -3.8375  2.8428
  119OSM    H6T12508   5.001  -0.093   6.834  0.9938 -1.1103  0.6505
  119OSM    C7S12509   5.090  -0.275   6.877 -0.1068 -0.4613  0.3987
  119OSM    H7S12510   5.188  -0.230   6.851  0.7558 -2.2823  0.3200
  119OSM    H7T12511   5.098  -0.379   6.839  1.1219  0.3918 -1.9011
  119OSM    C8S12512   5.070  -0.264   7.027 -0.0567 -0.3421  0.2591
  119OSM    H8S12513   5.136  -0.338   7.077 -3.0900 -1.8004  2.4626
  119OSM    H8T12514   4.964  -0.293   7.042 -0.4333  1.6520  1.9019
  119OSM    C9S12515   5.096  -0.121   7.088  0.0184  0.1035  0.0871
  119OSM    H9S12516   5.042  -0.041   7.033 -1.0283 -0.6832 -0.0440
  119OSM    H9T12517   5.204  -0.100   7.071 -0.4767  1.0298 -2.4011
  119OSM   C10S12518   5.074  -0.116   7.245  0.0337  0.1861  0.4809
  119OSM   H10S12519   4.970  -0.153   7.254 -0.4125  0.3904 -2.8265
  119OSM   H10T12520   5.080  -0.011   7.281 -1.1039 -0.3815  2.4847
  119OSM   C11S12521   5.162  -0.207   7.336 -0.0988  1.0641  0.2899
  119OSM   H11S12522   5.264  -0.181   7.302  0.2139 -0.0652  0.3191
  119OSM   H11T12523   5.141  -0.309   7.297  2.9522 -0.1627  1.5561
  119OSM   C12S12524   5.132  -0.199   7.478 -0.2292  0.0546 -0.1608
  119OSM   H12S12525   5.178  -0.110   7.525  3.5326 -2.2372  1.0109
  119OSM   H12T12526   5.190  -0.274   7.537 -1.1537  0.0793  0.7980
  119OSM   C13S12527   4.985  -0.205   7.527 -0.0670 -0.2531 -0.7926
  119OSM   H13S12528   4.928  -0.279   7.467  1.9511 -2.9212  0.3768
  119OSM   H13T12529   4.956  -0.099   7.516  2.7008  1.1242  2.9789
  119OSM   C14S12530   4.985  -0.241   7.677  0.3075  0.1238 -0.7235
  119OSM   H14S12531   5.004  -0.155   7.745 -0.8267 -1.0184  1.1254
  119OSM   H14T12532   5.060  -0.312   7.716 -2.8070 -2.2011  1.5433
  119OSM   C15S12533   4.842  -0.277   7.726 -0.1843 -0.2010 -0.0758
  119OSM   H15S12534   4.818  -0.384   7.705 -0.8477  0.3226 -2.2933
  119OSM   H15T12535   4.770  -0.212   7.671 -0.3707  0.9896  1.4862
  119OSM   C16S12536   4.813  -0.245   7.880 -0.2945  0.1338 -0.1113
  119OSM   H16S12537   4.710  -0.247   7.920 -0.0105 -0.3711  0.6161
  119OSM   H16T12538   4.853  -0.144   7.902 -0.8293  0.4090 -0.3789
  119OSM   C17S12539   4.891  -0.340   7.972 -0.6097 -0.2846  0.2789
  119OSM   H17S12540   5.002  -0.337   7.961 -0.6556  0.2865 -0.0739
  119OSM   H17T12541   4.860  -0.437   7.929 -1.2678  0.2712 -0.5315
  119OSM   C18S12542   4.865  -0.330   8.126  0.0988  0.1035  0.1204
  119OSM   H18S12543   4.906  -0.232   8.161  0.1043 -0.6327  2.3046
  119OSM   H18T12544   4.920  -0.406   8.185 -0.5014  1.3972  2.4766
  119OSM   H18U12545   4.757  -0.331   8.151  0.2327  0.4053  0.7267
  119OSM    C1F12546   5.407  -0.227   6.379 -0.6484  0.0793 -0.7408
  119OSM     OF12547   5.471  -0.121   6.369  0.1505 -0.1375 -0.1361
  119OSM    C2F12548   5.460  -0.366   6.343  0.2614  0.0280  0.0269
  119OSM    H2F12549   5.531  -0.342   6.261  0.8685 -1.9395 -0.0822
  119OSM    H2G12550   5.376  -0.424   6.299 -0.6143  1.4232 -0.2206
  119OSM    C3F12551   5.531  -0.438   6.457  0.1807  0.4095  0.2623
  119OSM    H3F12552   5.613  -0.376   6.500  1.6009 -0.7377 -0.6955
  119OSM    H3G12553   5.574  -0.537   6.428  0.8048 -0.1922  2.9236
  119OSM    C4F12554   5.441  -0.470   6.575  0.0590  0.9619 -0.3189
  119OSM    H4F12555   5.344  -0.512   6.540 -0.1858  2.0284 -0.9439
  119OSM    H4G12556   5.427  -0.380   6.638  3.0143  1.6963 -0.5819
  119OSM    C5F12557   5.515  -0.572   6.670  0.5902  0.1923 -0.1485
  119OSM    H5F12558   5.598  -0.512   6.712  0.6306  0.7210 -0.9476
  119OSM    H5G12559   5.545  -0.667   6.620 -1.3247  0.0045 -1.0531
  119OSM    C6F12560   5.415  -0.603   6.786  0.0245  0.0611 -0.7316
  119OSM    H6F12561   5.310  -0.619   6.754 -0.6553  1.2349  0.7303
  119OSM    H6G12562   5.405  -0.513   6.851 -1.1597 -0.0313 -0.7805
  119OSM    C7F12563   5.451  -0.730   6.870  0.2189  0.3191  0.0091
  119OSM    H7F12564   5.547  -0.715   6.924  0.5530 -0.1957 -0.4270
  119OSM    H7G12565   5.472  -0.821   6.810  2.8610 -1.0566  2.7432
  119OSM    C8F12566   5.332  -0.766   6.966  0.0801 -0.1933  0.4758
  119OSM    H8F12567   5.370  -0.841   7.038 -2.2425  0.0417  2.0552
  119OSM    H8G12568   5.251  -0.811   6.905 -0.0844 -0.2971  0.7680
  119OSM    C9F12569   5.263  -0.650   7.039  0.5172  0.2167  0.7289
  119OSM    H9F12570   5.190  -0.594   6.979  1.3000  1.8107  1.2212
  119OSM   C10F12571   5.289  -0.615   7.165 -0.6922 -0.0996 -0.1726
  119OSM   H10F12572   5.241  -0.525   7.207 -1.1331 -0.5415  0.2714
  119OSM   C11F12573   5.394  -0.677   7.257 -0.2305 -0.0317  0.3310
  119OSM   H11F12574   5.487  -0.677   7.196 -0.2776 -1.9787  0.1723
  119OSM   H11G12575   5.365  -0.783   7.275  2.5706 -0.8414  0.4921
  119OSM   C12F12576   5.428  -0.600   7.385 -0.1818 -0.4452  0.9807
  119OSM   H12F12577   5.439  -0.492   7.360 -2.3756  0.2433  2.6743
  119OSM   H12G12578   5.523  -0.634   7.431  0.7854 -0.4634 -0.8988
  119OSM   C13F12579   5.320  -0.606   7.494  0.6918  0.0208  0.2232
  119OSM   H13F12580   5.292  -0.713   7.495 -0.1474  0.2170  1.9993
  119OSM   H13G12581   5.238  -0.538   7.459  1.7386  1.8144  1.1126
  119OSM   C14F12582   5.367  -0.570   7.631 -0.1398 -1.0324 -0.0331
  119OSM   H14F12583   5.376  -0.460   7.636  0.6532 -1.1199  0.7480
  119OSM   H14G12584   5.468  -0.616   7.638  0.6826  0.4954 -1.2335
  119OSM   C15F12585   5.276  -0.633   7.740 -0.6957  0.1812  0.0583
  119OSM   H15F12586   5.288  -0.742   7.722 -0.8052  0.3613 -1.2201
  119OSM   H15G12587   5.174  -0.590   7.731 -1.0029 -0.6337 -0.4360
  119OSM   C16F12588   5.330  -0.596   7.882 -0.7640 -0.0984 -0.5260
  119OSM   H16F12589   5.259  -0.634   7.959  0.0555 -0.8167 -0.1121
  119OSM   H16G12590   5.343  -0.486   7.888  0.6391 -0.2787 -0.1078
  119OSM   C17F12591   5.471  -0.657   7.916  0.3276  0.2990 -0.2627
  119OSM   H17F12592   5.555  -0.596   7.876  1.8532 -0.3419  1.8016
  119OSM   H17G12593   5.479  -0.760   7.877  1.1931 -0.1792  1.1223
  119OSM   C18F12594   5.498  -0.659   8.063 -0.2820  0.3524  0.2820
  119OSM   H18F12595   5.605  -0.687   8.080 -1.1125 -3.0687  0.5373
  119OSM   H18G12596   5.434  -0.731   8.119  0.0423  0.0710  0.2975
  119OSM   H18H12597   5.477  -0.560   8.109 -0.4773  1.3969 -1.9215
  120OSM      N12598   3.830   3.571   6.500 -0.4389  0.6436  0.1055
  120OSM    C1512599   3.976   3.544   6.519  0.3597 -0.2219  0.1673
  120OSM   H15A12600   3.997   3.571   6.621  2.2936 -0.9590  0.0173
  120OSM   H15B12601   4.043   3.595   6.451 -0.1878  1.3758  0.7951
  120OSM   H15C12602   4.002   3.440   6.502 -1.3260 -0.2985 -2.5093
  120OSM    C1412603   3.801   3.562   6.348  0.2586  0.4112 -0.5524
  120OSM   H14A12604   3.697   3.583   6.329 -0.1367  1.2519  2.0400
  120OSM   H14B12605   3.823   3.462   6.314 -0.5550  0.0338 -0.0081
  120OSM   H14C12606   3.869   3.629   6.296  3.9876 -1.2801  1.6812
  120OSM    C1312607   3.750   3.467   6.570  0.8152 -0.5035 -0.1361
  120OSM   H13A12608   3.760   3.374   6.517  0.3397 -0.3939 -0.4243
  120OSM   H13B12609   3.645   3.489   6.568  1.0475  0.8120  0.6416
  120OSM   H13C12610   3.774   3.476   6.675 -0.7732 -0.7121  0.2711
  120OSM    C1212611   3.792   3.707   6.557 -0.0106 -1.0558  0.5283
  120OSM   H12A12612   3.835   3.788   6.500 -0.3420  0.7297  2.6759
  120OSM   H12B12613   3.824   3.716   6.660  0.4290  0.2418  0.3063
  120OSM    C1112614   3.638   3.744   6.560 -0.4898  0.4146 -0.1193
  120OSM   H11A12615   3.622   3.822   6.638 -2.4897 -1.2613  1.2619
  120OSM   H11B12616   3.582   3.655   6.595 -0.2224  0.5233  0.6057
  120OSM      P12617   3.612   3.923   6.369  0.2474  0.4088 -0.0340
  120OSM    O1312618   3.755   3.957   6.368 -0.2465  0.4005 -0.2239
  120OSM    O1412619   3.553   3.913   6.237 -0.1975  0.0012  0.1921
  120OSM    O1112620   3.527   4.022   6.462  0.5194 -0.7219  0.2477
  120OSM    O1212621   3.594   3.783   6.434 -0.3570 -0.4342  0.0091
  120OSM    C1S12622   3.385   3.988   6.490 -0.7311  0.4158  0.2193
  120OSM    H1S12623   3.362   3.883   6.461  0.1748 -0.1696  1.5371
  120OSM    H1T12624   3.316   4.063   6.445 -1.0278  0.7062  1.1272
  120OSM     NF12625   3.232   3.968   6.678 -0.0328  0.3549  0.1445
  120OSM    HNF12626   3.183   4.049   6.709  0.4293  0.0457  1.7722
  120OSM    C2S12627   3.371   4.000   6.642  0.4283 -0.0472  0.6511
  120OSM    H2S12628   3.431   3.920   6.690  2.0026 -1.7689 -3.6074
  120OSM    C3S12629   3.415   4.141   6.701  0.0846  0.4974 -0.1630
  120OSM    H3S12630   3.350   4.221   6.658 -2.0703 -0.3423  1.3403
  120OSM     O312631   3.543   4.183   6.670 -0.4085  0.2061  0.1284
  120OSM    HO312632   3.564   4.117   6.603  0.0026  0.2466  0.2142
  120OSM    C4S12633   3.410   4.128   6.850 -1.3605  0.4826 -0.3382
  120OSM    H4S12634   3.476   4.051   6.892 -2.9719 -0.4782  0.5611
  120OSM    C5S12635   3.339   4.206   6.927  0.2809  0.5631  0.9200
  120OSM    H5S12636   3.294   4.291   6.872  0.0514 -1.2757 -1.9941
  120OSM    C6S12637   3.325   4.201   7.079 -0.0099  0.0836 -0.2326
  120OSM    H6S12638   3.392   4.120   7.116  1.9739  2.1049  0.8465
  120OSM    H6T12639   3.222   4.165   7.100 -0.4610 -0.3439 -2.8497
  120OSM    C7S12640   3.351   4.337   7.144 -0.1882 -0.0743 -0.1825
  120OSM    H7S12641   3.260   4.401   7.140 -0.0855  0.0435 -0.8555
  120OSM    H7T12642   3.421   4.398   7.082  0.1896  0.4613  0.7559
  120OSM    C8S12643   3.414   4.328   7.283 -0.3524 -0.4573  0.7168
  120OSM    H8S12644   3.430   4.434   7.313  0.1398 -0.3076 -0.0589
  120OSM    H8T12645   3.514   4.281   7.273  0.2542  1.1785 -1.6251
  120OSM    C9S12646   3.315   4.246   7.368 -0.2252 -0.1641 -0.4850
  120OSM    H9S12647   3.323   4.141   7.332 -0.6640 -0.5470  0.4903
  120OSM    H9T12648   3.209   4.277   7.360 -0.1510  0.1443 -0.3095
  120OSM   C10S12649   3.351   4.252   7.515  0.0122  0.1218 -0.5874
  120OSM   H10S12650   3.450   4.205   7.531  0.4081  1.1368  0.0624
  120OSM   H10T12651   3.270   4.193   7.563 -1.1551  0.8903 -1.5271
  120OSM   C11S12652   3.337   4.392   7.569 -0.7942  0.2348  0.4647
  120OSM   H11S12653   3.247   4.432   7.517  0.6150  0.0306 -2.3327
  120OSM   H11T12654   3.414   4.467   7.539 -0.3215 -0.7761 -0.9509
  120OSM   C12S12655   3.318   4.383   7.725 -0.2442  0.0281  0.0463
  120OSM   H12S12656   3.409   4.334   7.766 -0.0463 -0.8483 -1.3938
  120OSM   H12T12657   3.236   4.311   7.744 -0.4985  0.1946 -0.4084
  120OSM   C13S12658   3.280   4.520   7.787  0.4862  0.2945  0.1012
  120OSM   H13S12659   3.202   4.566   7.722  0.4434  1.7116  1.1062
  120OSM   H13T12660   3.374   4.578   7.783  1.8543 -1.8797 -2.2201
  120OSM   C14S12661   3.224   4.500   7.934  0.6643 -0.0535  0.9738
  120OSM   H14S12662   3.299   4.449   7.997  1.7623  0.8471  0.4311
  120OSM   H14T12663   3.142   4.426   7.919  1.0700 -0.1637 -1.0073
  120OSM   C15S12664   3.157   4.630   7.986  0.1904  0.5931 -0.1706
  120OSM   H15S12665   3.108   4.613   8.084 -1.8450  0.6322 -1.1290
  120OSM   H15T12666   3.073   4.648   7.915  1.6223 -0.3986 -2.2203
  120OSM   C16S12667   3.251   4.761   7.980 -0.1847 -0.1672 -0.3190
  120OSM   H16S12668   3.200   4.855   8.012  1.6123  0.4841  0.8391
  120OSM   H16T12669   3.283   4.769   7.873  1.1913 -1.4380 -0.0320
  120OSM   C17S12670   3.380   4.756   8.065 -0.0733  0.3803  0.2240
  120OSM   H17S12671   3.437   4.850   8.050  0.0366  0.3517  0.4595
  120OSM   H17T12672   3.453   4.674   8.047 -1.3696 -0.8467  0.3387
  120OSM   C18S12673   3.341   4.745   8.214  0.1294 -0.1262  0.2169
  120OSM   H18S12674   3.426   4.776   8.278 -0.9240  0.3020  1.4585
  120OSM   H18T12675   3.307   4.641   8.238  1.2375 -0.5710 -0.0701
  120OSM   H18U12676   3.254   4.811   8.231  0.4818  1.3089 -2.8929
  120OSM    C1F12677   3.184   3.853   6.648 -0.0443 -0.2265  0.8557
  120OSM     OF12678   3.252   3.759   6.620 -0.0791  0.3330 -0.4501
  120OSM    C2F12679   3.036   3.844   6.635 -0.0170  0.6315 -0.7180
  120OSM    H2F12680   3.007   3.737   6.638 -2.0683  1.1637 -0.3661
  120OSM    H2G12681   3.013   3.899   6.541  1.0901  1.8413 -0.3063
  120OSM    C3F12682   2.966   3.914   6.753 -0.3719 -0.1864  0.0025
  120OSM    H3F12683   2.859   3.898   6.728 -0.7026 -1.0107  1.7716
  120OSM    H3G12684   2.972   4.025   6.752 -1.6275 -0.1075 -1.2002
  120OSM    C4F12685   2.993   3.858   6.897 -0.3958  0.0128  0.7890
  120OSM    H4F12686   3.103   3.866   6.911 -0.0391 -2.1004 -0.3161
  120OSM    H4G12687   2.969   3.749   6.893  1.7880 -0.4780 -0.4942
  120OSM    C5F12688   2.914   3.934   6.998 -0.1312 -0.5293  0.1325
  120OSM    H5F12689   2.805   3.944   6.980  0.4214 -0.0385 -3.7548
  120OSM    H5G12690   2.951   4.038   6.995 -2.4715  0.3541 -2.5583
  120OSM    C6F12691   2.926   3.881   7.144  0.5610  0.2107 -0.4835
  120OSM    H6F12692   2.852   3.798   7.155 -2.2714  2.4423 -1.3927
  120OSM    H6G12693   2.874   3.956   7.208 -0.8837  1.3905 -2.8842
  120OSM    C7F12694   3.063   3.852   7.194 -0.5549 -0.0833  0.1178
  120OSM    H7F12695   3.118   3.948   7.180  0.6645 -0.9873 -1.6620
  120OSM    H7G12696   3.119   3.785   7.126 -0.5862  2.0263 -2.1522
  120OSM    C8F12697   3.083   3.801   7.336  0.1091 -0.3762 -1.0034
  120OSM    H8F12698   3.054   3.695   7.352  1.1980 -0.7603 -1.4431
  120OSM    H8G12699   3.017   3.860   7.403 -0.3736 -0.2850 -1.5524
  120OSM    C9F12700   3.229   3.805   7.371  0.0384 -0.3351 -0.0665
  120OSM    H9F12701   3.292   3.790   7.282 -2.2387 -0.0296 -1.8065
  120OSM   C10F12702   3.285   3.847   7.485  0.0502 -0.6137  0.1369
  120OSM   H10F12703   3.392   3.845   7.512  0.5347  1.0386 -1.4942
  120OSM   C11F12704   3.196   3.892   7.600 -0.3924 -0.1391 -0.3786
  120OSM   H11F12705   3.123   3.814   7.629  0.6125  0.0776  3.2599
  120OSM   H11G12706   3.138   3.980   7.565 -1.0820 -0.5221 -0.2136
  120OSM   C12F12707   3.271   3.931   7.732 -0.2137  0.1081  0.8366
  120OSM   H12F12708   3.365   3.989   7.716  0.5898 -1.8953 -2.8193
  120OSM   H12G12709   3.303   3.836   7.779 -1.5924 -1.0077 -0.4251
  120OSM   C13F12710   3.183   4.006   7.836  0.0059 -0.0708  0.4129
  120OSM   H13F12711   3.110   3.938   7.885  1.6442 -0.5200  2.3736
  120OSM   H13G12712   3.128   4.097   7.801  2.6037  2.2892  2.0606
  120OSM   C14F12713   3.261   4.058   7.950  0.0822 -0.1778  0.3332
  120OSM   H14F12714   3.328   4.141   7.921  1.8707 -1.4412  0.6865
  120OSM   H14G12715   3.342   3.987   7.976  1.1668 -0.6999 -3.8323
  120OSM   C15F12716   3.181   4.096   8.071  0.4136 -0.2885 -0.3838
  120OSM   H15F12717   3.124   4.005   8.099 -1.8639  1.6526  1.8072
  120OSM   H15G12718   3.108   4.173   8.040 -0.3115 -1.3498 -1.3727
  120OSM   C16F12719   3.273   4.139   8.185  0.1680  0.3657 -0.9593
  120OSM   H16F12720   3.336   4.227   8.159  1.8492  0.3521  2.5596
  120OSM   H16G12721   3.340   4.052   8.204 -4.2289 -2.9551  1.3339
  120OSM   C17F12722   3.200   4.149   8.322 -0.3208  0.2971 -0.7518
  120OSM   H17F12723   3.271   4.191   8.396 -1.6579 -0.2943  0.9303
  120OSM   H17G12724   3.174   4.049   8.361  3.5112 -0.7674 -0.6382
  120OSM   C18F12725   3.075   4.241   8.327  0.4714 -0.2787  0.6005
  120OSM   H18F12726   3.024   4.262   8.423 -2.2673 -0.0253 -0.8154
  120OSM   H18G12727   2.994   4.215   8.255 -0.0754  1.4492  0.5486
  120OSM   H18H12728   3.111   4.343   8.303 -0.0178 -0.5955 -1.7454
  121OSM      N12729   1.632   6.810   5.829  0.1297  0.0945 -0.8528
  121OSM    C1512730   1.689   6.836   5.966 -0.4357 -0.2178  0.3796
  121OSM   H15A12731   1.796   6.847   5.955 -0.6450  0.6589 -0.8656
  121OSM   H15B12732   1.669   6.758   6.038 -0.1591  1.3528  2.2443
  121OSM   H15C12733   1.647   6.926   6.010  1.4486  1.5379 -1.2092
  121OSM    C1412734   1.480   6.809   5.863  0.3872  0.0082 -0.5734
  121OSM   H14A12735   1.465   6.714   5.912 -0.6611 -0.4990 -1.8219
  121OSM   H14B12736   1.424   6.797   5.772 -1.0547 -1.1987  0.4371
  121OSM   H14C12737   1.455   6.896   5.922  2.4617  0.1705  0.1575
  121OSM    C1312738   1.645   6.923   5.735  0.3508 -0.3093 -0.4900
  121OSM   H13A12739   1.588   6.919   5.643  0.4783  4.3696 -1.0197
  121OSM   H13B12740   1.750   6.935   5.712  0.2137 -0.1006 -1.0093
  121OSM   H13C12741   1.612   7.017   5.778 -0.7361  0.6378 -3.1946
  121OSM    C1212742   1.688   6.682   5.772 -0.0418 -0.0599 -0.0717
  121OSM   H12A12743   1.792   6.708   5.759  0.3965 -1.5514  0.2567
  121OSM   H12B12744   1.647   6.644   5.680 -0.5866 -3.2129  1.3167
  121OSM    C1112745   1.690   6.562   5.867  0.1213 -0.3204 -0.0720
  121OSM   H11A12746   1.750   6.581   5.958  2.1972  2.9504 -1.9550
  121OSM   H11B12747   1.758   6.484   5.827 -2.1270 -2.0285 -0.8245
  121OSM      P12748   1.500   6.412   5.793 -0.0420  0.2176  0.0518
  121OSM    O1312749   1.497   6.471   5.658 -0.4800  0.3121  0.3366
  121OSM    O1412750   1.575   6.281   5.798  0.6181 -0.0886 -1.0015
  121OSM    O1112751   1.359   6.399   5.857  0.1848 -0.2658  0.6402
  121OSM    O1212752   1.562   6.514   5.904  0.4226  0.3090 -0.4112
  121OSM    C1S12753   1.336   6.327   5.981  0.8789  0.7203  0.4686
  121OSM    H1S12754   1.395   6.369   6.065  3.1296 -0.5043 -0.4359
  121OSM    H1T12755   1.365   6.220   5.972 -1.5572  0.1061 -0.9138
  121OSM     NF12756   1.187   6.304   6.169 -0.5228 -0.1022 -0.5345
  121OSM    HNF12757   1.161   6.209   6.182 -1.7292 -0.0134 -2.0814
  121OSM    C2S12758   1.187   6.333   6.032 -0.5079 -0.0539  0.6998
  121OSM    H2S12759   1.162   6.440   6.016 -1.5192 -0.4684 -0.6813
  121OSM    C3S12760   1.098   6.234   5.951  0.1081 -0.3184  0.1347
  121OSM    H3S12761   1.129   6.129   5.972 -0.0626 -0.7370 -1.5623
  121OSM     O312762   1.123   6.246   5.809 -0.5180  0.1552 -0.0870
  121OSM    HO312763   1.192   6.312   5.797  1.2924 -1.6673 -0.2933
  121OSM    C4S12764   0.950   6.239   5.985  0.8261 -0.8390  0.1582
  121OSM    H4S12765   0.931   6.158   6.057 -0.3928 -1.9476 -1.3339
  121OSM    C5S12766   0.859   6.319   5.927 -0.7932 -0.4237  0.0098
  121OSM    H5S12767   0.869   6.387   5.841 -0.8997 -1.9939 -1.3027
  121OSM    C6S12768   0.710   6.314   5.962 -0.5256 -0.3116 -0.0277
  121OSM    H6S12769   0.656   6.286   5.869  0.1633 -1.1357 -0.1913
  121OSM    H6T12770   0.677   6.413   6.000 -0.3853 -0.2436 -0.0798
  121OSM    C7S12771   0.675   6.210   6.065  0.0982  0.2958  0.7459
  121OSM    H7S12772   0.719   6.109   6.055  1.6461  0.5756  3.6065
  121OSM    H7T12773   0.565   6.201   6.055  0.0923  2.3358 -2.6500
  121OSM    C8S12774   0.714   6.262   6.208  0.6380  0.1480  0.7521
  121OSM    H8S12775   0.700   6.372   6.215 -1.7597  0.1485 -2.3052
  121OSM    H8T12776   0.825   6.256   6.213  0.5274 -1.6041  2.4737
  121OSM    C9S12777   0.652   6.188   6.322  0.8514  0.2472 -0.6124
  121OSM    H9S12778   0.628   6.084   6.289 -2.0298  1.4143 -2.5377
  121OSM    H9T12779   0.550   6.231   6.336  0.3285 -1.1606  0.1643
  121OSM   C10S12780   0.733   6.191   6.463 -0.1024  0.2393 -0.0517
  121OSM   H10S12781   0.674   6.135   6.538 -0.4880  0.0442 -0.4984
  121OSM   H10T12782   0.723   6.296   6.500 -0.7462 -0.4519  1.9030
  121OSM   C11S12783   0.882   6.146   6.463  0.7363  0.3165  0.4071
  121OSM   H11S12784   0.944   6.220   6.409  0.5938  0.2754  0.1874
  121OSM   H11T12785   0.902   6.052   6.408 -1.4353  1.2090 -2.0910
  121OSM   C12S12786   0.950   6.112   6.602 -0.3305  0.0227  0.5183
  121OSM   H12S12787   1.058   6.096   6.583 -0.7358 -0.8497 -1.3362
  121OSM   H12T12788   0.899   6.024   6.646 -0.1580  0.9392  2.6575
  121OSM   C13S12789   0.939   6.227   6.703 -0.2279  0.2392  0.3209
  121OSM   H13S12790   0.833   6.224   6.737 -0.7652 -0.9489 -1.3287
  121OSM   H13T12791   0.958   6.318   6.643 -1.1593 -0.5759 -1.2922
  121OSM   C14S12792   1.028   6.210   6.827 -0.0308 -0.6249 -0.3754
  121OSM   H14S12793   1.028   6.305   6.885  0.0009 -0.0184 -1.3594
  121OSM   H14T12794   1.134   6.205   6.792  0.3905 -1.4815  0.9270
  121OSM   C15S12795   0.997   6.089   6.923 -0.2420  0.1806 -0.3499
  121OSM   H15S12796   1.066   6.104   7.009 -2.7439  0.5779  1.6948
  121OSM   H15T12797   1.004   5.993   6.867 -1.0598 -0.2970  0.3547
  121OSM   C16S12798   0.854   6.079   6.990  0.5079 -0.3147  0.8301
  121OSM   H16S12799   0.779   6.049   6.914  1.5795  0.3599 -0.5400
  121OSM   H16T12800   0.821   6.180   7.022  3.4082  1.8561 -2.3534
  121OSM   C17S12801   0.854   5.974   7.104 -0.2375  1.5742  0.5899
  121OSM   H17S12802   0.899   5.884   7.058 -0.8846  0.3725  2.2158
  121OSM   H17T12803   0.749   5.945   7.127  0.1738 -0.0187  0.5851
  121OSM   C18S12804   0.936   5.999   7.234  0.1287 -0.4195 -0.2467
  121OSM   H18S12805   1.044   5.989   7.209  0.7349 -0.7855  2.2620
  121OSM   H18T12806   0.921   5.925   7.316 -0.8175  1.8592  1.7217
  121OSM   H18U12807   0.895   6.092   7.278 -0.9541 -0.2791 -1.4776
  121OSM    C1F12808   1.242   6.375   6.267  0.4218 -0.3152  0.0534
  121OSM     OF12809   1.282   6.486   6.233 -0.2110  0.3305 -0.0877
  121OSM    C2F12810   1.256   6.325   6.403  0.2159 -0.2579 -0.1866
  121OSM    H2F12811   1.289   6.220   6.422 -0.9292 -1.1152 -2.5156
  121OSM    H2G12812   1.151   6.323   6.437  0.4579  0.9436  0.6901
  121OSM    C3F12813   1.337   6.417   6.495  0.1346  0.4353 -0.1879
  121OSM    H3F12814   1.320   6.526   6.484 -0.1797  0.4573  0.4876
  121OSM    H3G12815   1.443   6.407   6.462  0.2625 -0.4991  0.4651
  121OSM    C4F12816   1.343   6.353   6.644  0.2026  0.0586  0.2391
  121OSM    H4F12817   1.404   6.262   6.627 -1.6324 -0.7807 -2.6362
  121OSM    H4G12818   1.241   6.330   6.680  0.0369 -1.7276 -1.2743
  121OSM    C5F12819   1.408   6.447   6.745  0.2238 -0.5967  0.5445
  121OSM    H5F12820   1.366   6.549   6.732 -1.2465 -1.4480 -1.9757
  121OSM    H5G12821   1.515   6.468   6.721  0.1452 -0.4744  0.3032
  121OSM    C6F12822   1.383   6.411   6.889 -0.4349  0.2987  0.0722
  121OSM    H6F12823   1.410   6.305   6.909 -0.2452  0.8606  3.4380
  121OSM    H6G12824   1.278   6.425   6.920  0.1500  1.5197  1.6325
  121OSM    C7F12825   1.468   6.497   6.983 -0.5304  0.6283  0.1934
  121OSM    H7F12826   1.469   6.600   6.943 -0.5921 -0.1340 -1.8536
  121OSM    H7G12827   1.572   6.458   6.975 -1.0247 -0.6150 -0.4897
  121OSM    C8F12828   1.418   6.503   7.127  0.2324  0.3188 -0.6981
  121OSM    H8F12829   1.325   6.563   7.129  0.1157  0.1365  0.4360
  121OSM    H8G12830   1.495   6.544   7.196 -1.2423 -0.6664  1.6479
  121OSM    C9F12831   1.398   6.362   7.180  0.7674 -0.3289  0.3107
  121OSM    H9F12832   1.461   6.285   7.134  0.2140 -0.7842  0.2944
  121OSM   C10F12833   1.305   6.321   7.265 -0.5056  0.9987  0.2274
  121OSM   H10F12834   1.301   6.211   7.268  1.7823  0.8470 -0.1801
  121OSM   C11F12835   1.205   6.400   7.337  0.2344  0.0879  0.0008
  121OSM   H11F12836   1.125   6.439   7.271  3.2796 -3.3106 -6.6918
  121OSM   H11G12837   1.262   6.481   7.387  0.7630  1.4155 -2.5992
  121OSM   C12F12838   1.146   6.313   7.441  0.3496 -0.5023 -0.1711
  121OSM   H12F12839   1.216   6.279   7.520  0.8703 -1.7721 -1.1506
  121OSM   H12G12840   1.108   6.217   7.399 -0.3988 -0.4815  0.4271
  121OSM   C13F12841   1.029   6.383   7.518 -0.3663 -0.0955 -0.7254
  121OSM   H13F12842   0.954   6.417   7.443  0.0793 -0.8438 -1.5283
  121OSM   H13G12843   1.070   6.476   7.563 -0.7545 -0.3082  0.0764
  121OSM   C14F12844   0.972   6.287   7.630 -0.5019  0.0414  0.0419
  121OSM   H14F12845   0.911   6.361   7.685  0.3436  1.0852 -0.3760
  121OSM   H14G12846   1.046   6.238   7.697 -1.0688  0.5626  1.0577
  121OSM   C15F12847   0.876   6.184   7.572 -0.0333  0.0072 -0.2367
  121OSM   H15F12848   0.936   6.105   7.522  3.9180  2.9114 -0.5653
  121OSM   H15G12849   0.802   6.241   7.511 -0.3510 -0.6924 -0.5058
  121OSM   C16F12850   0.790   6.130   7.688  0.3624  0.1817 -0.6884
  121OSM   H16F12851   0.697   6.191   7.692  0.4377  0.2236  1.0637
  121OSM   H16G12852   0.840   6.136   7.787 -1.3275 -0.5212  0.2546
  121OSM   C17F12853   0.738   5.978   7.662  0.1044 -0.6242 -0.7394
  121OSM   H17F12854   0.674   5.960   7.750 -0.3528  0.0918 -0.9101
  121OSM   H17G12855   0.829   5.915   7.675  0.5937  0.0060 -1.0080
  121OSM   C18F12856   0.659   5.970   7.528  1.2415 -0.2017 -0.8149
  121OSM   H18F12857   0.569   6.034   7.522  1.6208  0.2708 -1.9633
  121OSM   H18G12858   0.630   5.865   7.505 -1.6364  0.7920 -2.2809
  121OSM   H18H12859   0.727   6.008   7.448  1.0958  2.8137  0.3706
  122OSM      N12860   4.722   6.733   5.730  0.0993  0.0279 -0.0603
  122OSM    C1512861   4.824   6.704   5.632  0.6930  0.0959 -0.5733
  122OSM   H15A12862   4.793   6.651   5.543 -1.6436 -0.0800  0.2828
  122OSM   H15B12863   4.905   6.647   5.676  1.1753  0.6720 -0.6944
  122OSM   H15C12864   4.851   6.798   5.587 -1.7873  0.0984 -2.2760
  122OSM    C1412865   4.599   6.780   5.665 -0.1891 -0.1950 -0.5494
  122OSM   H14A12866   4.567   6.722   5.580  2.5164 -1.1799 -1.0126
  122OSM   H14B12867   4.598   6.886   5.645 -0.9634  0.4730  2.4485
  122OSM   H14C12868   4.514   6.774   5.731 -0.0814  0.9930 -0.2735
  122OSM    C1312869   4.691   6.600   5.797  0.6471 -0.5284  0.4728
  122OSM   H13A12870   4.652   6.539   5.717  0.2951  1.5942 -1.0568
  122OSM   H13B12871   4.608   6.601   5.866 -0.4840  0.0243 -0.8479
  122OSM   H13C12872   4.773   6.552   5.848  1.0657 -0.3233  0.0106
  122OSM    C1212873   4.771   6.832   5.833 -0.3647 -0.4331  0.8512
  122OSM   H12A12874   4.816   6.920   5.789  0.0134  0.3978  2.7934
  122OSM   H12B12875   4.850   6.789   5.892  0.8296  0.1368 -0.2724
  122OSM    C1112876   4.678   6.858   5.954  0.2575 -0.5483  0.0270
  122OSM   H11A12877   4.725   6.923   6.031  1.4798 -1.4373  0.0512
  122OSM   H11B12878   4.652   6.760   5.998 -0.7671  1.0885  3.4686
  122OSM      P12879   4.456   7.012   5.997 -0.3433  0.1954  0.7122
  122OSM    O1312880   4.441   7.150   5.955 -0.0058  0.1568  0.1019
  122OSM    O1412881   4.332   6.939   6.016  0.1665  0.0981  0.0762
  122OSM    O1112882   4.530   7.016   6.133 -0.6182  0.3108 -0.0930
  122OSM    O1212883   4.553   6.920   5.908 -0.2281  0.4286 -0.6965
  122OSM    C1S12884   4.441   7.047   6.248 -0.0126  0.1081 -0.2890
  122OSM    H1S12885   4.356   6.974   6.248 -0.4429  0.5956  0.9600
  122OSM    H1T12886   4.397   7.148   6.236 -1.0095 -0.2819 -0.0303
  122OSM     NF12887   4.424   7.053   6.497  0.6882  0.4307  0.2388
  122OSM    HNF12888   4.432   7.137   6.551 -0.5393  0.1756  0.8589
  122OSM    C2S12889   4.514   7.034   6.388  0.3067  0.4956 -0.1625
  122OSM    H2S12890   4.558   6.932   6.398 -1.1414 -0.3709 -1.9905
  122OSM    C3S12891   4.639   7.130   6.395  0.2921  0.7596  0.8684
  122OSM    H3S12892   4.595   7.229   6.369 -1.2931 -0.7144 -2.5487
  122OSM     O312893   4.741   7.107   6.295  0.7778  0.1893 -0.7875
  122OSM    HO312894   4.697   7.045   6.237 -0.3577 -2.0691  2.2256
  122OSM    C4S12895   4.705   7.141   6.532 -0.0730 -0.1633 -0.1449
  122OSM    H4S12896   4.720   7.243   6.571  0.8744 -0.9424  1.6114
  122OSM    C5S12897   4.760   7.044   6.599  0.1148  0.7853  0.1737
  122OSM    H5S12898   4.760   6.948   6.546 -1.9773  0.6017  0.3962
  122OSM    C6S12899   4.831   7.054   6.732 -0.7409 -0.4989 -0.1895
  122OSM    H6S12900   4.844   7.158   6.768 -0.9786 -0.3715 -0.4617
  122OSM    H6T12901   4.937   7.022   6.726 -0.4306  0.6014 -1.0551
  122OSM    C7S12902   4.762   6.979   6.852  0.2357 -0.7641  0.1834
  122OSM    H7S12903   4.764   6.871   6.829 -1.0729 -0.7937  0.1244
  122OSM    H7T12904   4.654   7.002   6.862  0.2287 -1.1844  1.1602
  122OSM    C8S12905   4.839   7.009   6.980 -0.0475  0.0232  0.1426
  122OSM    H8S12906   4.850   7.119   6.986 -1.3367  0.1246  1.4811
  122OSM    H8T12907   4.945   6.983   6.960  0.0816 -0.9039  1.8636
  122OSM    C9S12908   4.781   6.955   7.106 -0.5329  0.4317 -0.1725
  122OSM    H9S12909   4.798   6.845   7.107 -2.6326  0.0434 -1.1632
  122OSM    H9T12910   4.672   6.974   7.109 -0.5702  0.1452  0.4940
  122OSM   C10S12911   4.833   7.022   7.231  0.4257 -1.0772  0.4931
  122OSM   H10S12912   4.828   7.132   7.219 -1.7041 -1.1575  0.1718
  122OSM   H10T12913   4.939   6.997   7.253  0.7662  1.7364  2.5452
  122OSM   C11S12914   4.745   6.995   7.356 -0.5086  0.3205  0.4305
  122OSM   H11S12915   4.742   6.885   7.375  2.0891  0.5179  2.7139
  122OSM   H11T12916   4.641   7.027   7.335 -0.8059 -0.1891  1.0791
  122OSM   C12S12917   4.795   7.056   7.487  0.1429 -0.1063 -0.6821
  122OSM   H12S12918   4.803   7.164   7.461  0.3415 -0.1249 -0.7025
  122OSM   H12T12919   4.894   7.006   7.499 -1.3138 -3.2947 -1.1100
  122OSM   C13S12920   4.713   7.019   7.604 -0.2535  0.1437 -0.7577
  122OSM   H13S12921   4.719   6.908   7.611  2.8146  0.2601 -0.2093
  122OSM   H13T12922   4.608   7.050   7.587 -1.3010 -2.0197  1.1551
  122OSM   C14S12923   4.768   7.073   7.731 -0.0815 -0.0182 -0.4743
  122OSM   H14S12924   4.757   7.179   7.700 -0.7728 -0.7459 -2.9768
  122OSM   H14T12925   4.878   7.067   7.749 -0.2035  0.3713  0.4181
  122OSM   C15S12926   4.699   7.039   7.868 -0.0167 -0.5796  0.1303
  122OSM   H15S12927   4.722   6.933   7.892 -0.5989 -0.9381 -0.8374
  122OSM   H15T12928   4.590   7.038   7.847 -0.1529 -1.0068  0.8301
  122OSM   C16S12929   4.734   7.117   7.993 -0.2632 -0.0398 -0.5510
  122OSM   H16S12930   4.681   7.214   7.988  0.2499  0.2490 -0.4148
  122OSM   H16T12931   4.843   7.127   8.014  0.2001 -0.3947 -2.5216
  122OSM   C17S12932   4.665   7.052   8.119 -0.4695 -0.2985 -0.2389
  122OSM   H17S12933   4.655   6.944   8.098 -2.9101 -0.0823 -0.4641
  122OSM   H17T12934   4.564   7.098   8.116 -0.8596 -1.1476 -3.5596
  122OSM   C18S12935   4.732   7.083   8.253  0.0850  0.4178 -0.2794
  122OSM   H18S12936   4.663   7.052   8.335  0.0888 -2.5681 -1.2973
  122OSM   H18T12937   4.746   7.192   8.269  0.7164  0.0548  1.9502
  122OSM   H18U12938   4.835   7.044   8.265 -0.5079 -0.6890  1.4651
  122OSM    C1F12939   4.311   6.983   6.526 -0.1924 -0.0130  0.4947
  122OSM     OF12940   4.293   6.881   6.464  0.4575  0.2769  0.1771
  122OSM    C2F12941   4.216   7.037   6.632  0.0003 -0.1011 -0.1976
  122OSM    H2F12942   4.113   7.021   6.594 -0.8361  0.5356  1.6646
  122OSM    H2G12943   4.226   7.146   6.649  0.3912 -0.2353  0.4722
  122OSM    C3F12944   4.231   6.978   6.775  0.3055  0.3632  1.0457
  122OSM    H3F12945   4.130   6.995   6.820  0.7768  3.3284  1.1339
  122OSM    H3G12946   4.311   7.030   6.831  0.6646 -1.2882  2.1535
  122OSM    C4F12947   4.260   6.824   6.776  0.1770 -0.6805 -0.6808
  122OSM    H4F12948   4.355   6.808   6.721  0.0028  3.8986 -2.8308
  122OSM    H4G12949   4.173   6.779   6.724 -1.7618 -0.3108  2.0419
  122OSM    C5F12950   4.257   6.755   6.912  0.0771 -0.2069  0.6132
  122OSM    H5F12951   4.280   6.648   6.895  1.0238 -0.1333  1.3602
  122OSM    H5G12952   4.153   6.769   6.951  0.6519  2.4931  1.4175
  122OSM    C6F12953   4.368   6.811   7.009 -0.1631 -0.2683  0.5320
  122OSM    H6F12954   4.333   6.897   7.070  0.2827  1.3416 -1.3639
  122OSM    H6G12955   4.456   6.841   6.949  0.6471 -1.5247  1.0583
  122OSM    C7F12956   4.413   6.694   7.098  0.7511  0.3853  0.9509
  122OSM    H7F12957   4.452   6.614   7.032 -1.8909  0.6459 -1.0917
  122OSM    H7G12958   4.322   6.660   7.152 -1.1372  0.1183 -2.1552
  122OSM    C8F12959   4.522   6.733   7.198 -0.5504  0.2577 -0.6289
  122OSM    H8F12960   4.489   6.820   7.259  0.5919 -1.3083  2.4468
  122OSM    H8G12961   4.618   6.767   7.153 -0.0442  1.7837  1.4545
  122OSM    C9F12962   4.545   6.621   7.300  0.5889 -0.2898 -0.0948
  122OSM    H9F12963   4.617   6.550   7.257  0.4183 -1.0146  0.7990
  122OSM   C10F12964   4.493   6.611   7.423  0.0709  0.2467 -0.2948
  122OSM   H10F12965   4.531   6.525   7.480  1.9851  0.3994 -1.2704
  122OSM   C11F12966   4.399   6.709   7.489  0.8796 -0.0530 -0.4403
  122OSM   H11F12967   4.294   6.689   7.457  0.0927 -2.2264  2.9781
  122OSM   H11G12968   4.427   6.814   7.467  1.9311 -0.5273 -1.4425
  122OSM   C12F12969   4.390   6.703   7.650  0.3331  0.5211  0.2921
  122OSM   H12F12970   4.477   6.764   7.683 -0.2432  0.0246  2.9182
  122OSM   H12G12971   4.410   6.599   7.683  0.4415  0.4007 -0.1464
  122OSM   C13F12972   4.271   6.772   7.709  0.2775 -0.1828  1.5055
  122OSM   H13F12973   4.183   6.708   7.684  1.8275 -1.8770  0.0687
  122OSM   H13G12974   4.251   6.873   7.668 -0.5260 -0.6922  0.5765
  122OSM   C14F12975   4.284   6.793   7.856 -0.4146  0.1846  0.0449
  122OSM   H14F12976   4.198   6.857   7.887  0.4805  1.6533 -0.4178
  122OSM   H14G12977   4.372   6.861   7.855 -1.7046  1.9236  0.0280
  122OSM   C15F12978   4.306   6.672   7.941  0.1984  0.7641  0.0925
  122OSM   H15F12979   4.390   6.606   7.912  0.4156  0.7508  0.7320
  122OSM   H15G12980   4.210   6.619   7.927  0.7110 -0.3868  0.7776
  122OSM   C16F12981   4.313   6.706   8.086  0.1081  0.9292  0.0788
  122OSM   H16F12982   4.309   6.624   8.160 -0.8788  1.3220  0.4721
  122OSM   H16G12983   4.230   6.776   8.106 -1.7772 -1.4246  0.9139
  122OSM   C17F12984   4.450   6.767   8.126 -0.0180  0.9488  0.3139
  122OSM   H17F12985   4.464   6.857   8.062  1.0523  1.3093  1.0299
  122OSM   H17G12986   4.532   6.700   8.092 -1.3689  0.8249 -3.0457
  122OSM   C18F12987   4.461   6.805   8.278 -0.3686 -0.4166  0.1479
  122OSM   H18F12988   4.565   6.836   8.304 -0.5786 -0.1596  0.7074
  122OSM   H18G12989   4.432   6.714   8.336  1.1708 -1.0594 -0.0380
  122OSM   H18H12990   4.382   6.880   8.300  0.6909 -0.0173  2.9379
  123OSM      N12991   4.139   3.203   6.155  0.6102 -0.3993  0.5842
  123OSM    C1512992   4.104   3.348   6.190 -1.0861 -0.1499  0.0640
  123OSM   H15A12993   4.039   3.352   6.276  1.7081  1.0276  2.2708
  123OSM   H15B12994   4.044   3.381   6.106  0.0856  0.0130 -0.7311
  123OSM   H15C12995   4.195   3.405   6.202 -0.4832 -1.0114 -0.3131
  123OSM    C1412996   4.008   3.135   6.131 -0.7000  0.2377 -0.1354
  123OSM   H14A12997   4.020   3.028   6.121 -2.3648 -0.1815  1.6827
  123OSM   H14B12998   3.946   3.179   6.054 -0.1196  2.4816  0.6003
  123OSM   H14C12999   3.945   3.140   6.218  0.4428 -0.3229  0.7453
  123OSM    C1313000   4.222   3.217   6.026  0.1039  0.2857 -0.5162
  123OSM   H13A13001   4.228   3.123   5.973  2.0843  1.0286 -1.7378
  123OSM   H13B13002   4.323   3.245   6.051  0.9283 -0.4312 -2.7432
  123OSM   H13C13003   4.183   3.299   5.968  0.9744  1.3273  0.3282
  123OSM    C1213004   4.214   3.133   6.266 -0.2157 -0.3287 -0.9376
  123OSM   H12A13005   4.305   3.191   6.271 -1.0417  0.9494  0.0007
  123OSM   H12B13006   4.241   3.038   6.223 -0.9003 -0.7932 -0.3600
  123OSM    C1113007   4.156   3.098   6.405  0.2393  0.8937  0.8035
  123OSM   H11A13008   4.169   3.191   6.464 -1.0106  0.7790  1.2953
  123OSM   H11B13009   4.231   3.026   6.445  0.7916  0.0956 -1.4589
  123OSM      P13010   3.904   3.127   6.471  1.0180  0.1982 -0.1493
  123OSM    O1313011   3.882   3.244   6.386 -0.0255 -0.0241  0.3931
  123OSM    O1413012   3.788   3.043   6.511 -0.2768  0.7226 -0.3026
  123OSM    O1113013   3.973   3.189   6.613 -0.2728 -0.5086  0.0299
  123OSM    O1213014   4.028   3.041   6.409  0.3974 -0.2518 -0.2072
  123OSM    C1S13015   4.005   3.085   6.714 -0.2706  0.8566 -0.1255
  123OSM    H1S13016   4.095   3.028   6.681  0.9670  2.4369  0.4213
  123OSM    H1T13017   3.929   3.008   6.740 -0.7521  0.9801 -1.1569
  123OSM     NF13018   4.098   3.052   6.944  0.2962 -0.0240 -0.2117
  123OSM    HNF13019   4.041   3.001   7.008  1.6989 -0.0397  1.0885
  123OSM    C2S13020   4.040   3.151   6.851 -0.4709 -0.5863 -0.3646
  123OSM    H2S13021   4.111   3.231   6.823 -1.5565  1.0833  1.3872
  123OSM    C3S13022   3.921   3.228   6.907 -0.0138 -0.6196 -0.1671
  123OSM    H3S13023   3.845   3.149   6.925 -0.7671 -1.0029 -4.0960
  123OSM     O313024   3.866   3.326   6.821  0.0246  0.6170 -0.5913
  123OSM    HO313025   3.890   3.291   6.734  0.1571  2.2462 -1.2335
  123OSM    C4S13026   3.971   3.310   7.023 -0.3743  0.7576  0.0804
  123OSM    H4S13027   4.035   3.397   7.004  0.7442  0.9504  3.9484
  123OSM    C5S13028   3.925   3.293   7.148  0.5762  0.3427 -0.0027
  123OSM    H5S13029   3.867   3.204   7.179 -0.7005  0.6756 -1.3031
  123OSM    C6S13030   3.954   3.381   7.263  0.4978 -0.7600 -0.0966
  123OSM    H6S13031   3.873   3.389   7.340  2.6870 -2.4486  2.5802
  123OSM    H6T13032   3.971   3.483   7.223  1.6290 -0.9149 -0.0338
  123OSM    C7S13033   4.080   3.340   7.323  0.6687 -0.2020 -0.6319
  123OSM    H7S13034   4.126   3.436   7.355 -0.2968  0.0988 -0.1084
  123OSM    H7T13035   4.151   3.298   7.249  1.8918 -0.6725  0.7629
  123OSM    C8S13036   4.065   3.255   7.452 -0.1001 -0.0128 -0.0629
  123OSM    H8S13037   4.166   3.222   7.485 -0.5882 -1.1638  0.3354
  123OSM    H8T13038   4.006   3.163   7.432  0.3662 -0.1621 -0.7634
  123OSM    C9S13039   3.999   3.332   7.567  0.5226 -0.0460  0.5300
  123OSM    H9S13040   3.892   3.349   7.546  0.5588 -0.7715 -0.2943
  123OSM    H9T13041   4.061   3.423   7.578  1.2804 -0.5363  0.4094
  123OSM   C10S13042   4.016   3.253   7.701 -0.7390 -0.0821  0.6551
  123OSM   H10S13043   4.113   3.198   7.697 -0.1002  0.9572  1.4793
  123OSM   H10T13044   3.938   3.174   7.711 -1.9545  1.3413  3.0594
  123OSM   C11S13045   3.994   3.342   7.824 -0.0133  0.4355 -0.3207
  123OSM   H11S13046   3.891   3.381   7.810 -0.0291  0.8639  0.8344
  123OSM   H11T13047   4.067   3.426   7.820 -0.3269  0.6527 -1.8362
  123OSM   C12S13048   4.009   3.272   7.954  0.7458  0.4515 -0.0577
  123OSM   H12S13049   4.111   3.236   7.977  1.3928  0.9896 -1.8861
  123OSM   H12T13050   3.945   3.181   7.946 -0.3015  0.9420  1.9579
  123OSM   C13S13051   3.948   3.347   8.078  0.1730 -0.0880  0.2639
  123OSM   H13S13052   3.837   3.338   8.079  0.2841 -1.6730  1.0921
  123OSM   H13T13053   3.998   3.445   8.096  2.3571 -1.1602  0.3591
  123OSM   C14S13054   3.977   3.278   8.214  0.3615  0.1039  0.4423
  123OSM   H14S13055   4.084   3.255   8.235  1.3355  0.0830 -3.7006
  123OSM   H14T13056   3.918   3.186   8.231 -1.4887  1.2195  0.2589
  123OSM   C15S13057   3.938   3.369   8.328  0.0505 -0.1645  0.4153
  123OSM   H15S13058   3.837   3.413   8.315 -0.7807 -2.3863 -1.1934
  123OSM   H15T13059   3.997   3.463   8.323 -1.0034  0.4661 -0.6338
  123OSM   C16S13060   3.928   3.312   8.474 -0.3993  0.1296 -0.1181
  123OSM   H16S13061   3.886   3.211   8.452  0.4178 -0.1695 -0.3202
  123OSM   H16T13062   3.852   3.366   8.534 -2.0847 -2.5187  0.3274
  123OSM   C17S13063   4.063   3.310   8.546  0.0599  0.3134 -0.4630
  123OSM   H17S13064   4.076   3.409   8.594  0.2574 -0.3899  1.0027
  123OSM   H17T13065   4.150   3.275   8.486  1.4629  2.1570  0.4156
  123OSM   C18S13066   4.056   3.212   8.674 -0.1947 -0.3386  0.6341
  123OSM   H18S13067   4.033   3.109   8.639  2.5019 -0.0443 -2.5351
  123OSM   H18T13068   3.980   3.254   8.742 -0.7765  1.7218 -1.1920
  123OSM   H18U13069   4.160   3.214   8.714  1.3968  0.2240 -3.0738
  123OSM    C1F13070   4.210   2.996   6.893 -0.0422  0.0803 -0.5748
  123OSM     OF13071   4.287   3.057   6.819  0.0819  1.1775  0.0369
  123OSM    C2F13072   4.234   2.853   6.929 -0.1985  0.2253 -0.0514
  123OSM    H2F13073   4.176   2.799   6.851  0.8002  1.2032 -1.5464
  123OSM    H2G13074   4.195   2.844   7.032  2.8456 -0.1531  1.1715
  123OSM    C3F13075   4.383   2.807   6.911  0.3537  0.1633 -1.1344
  123OSM    H3F13076   4.448   2.860   6.985 -1.8359 -0.6392  1.5348
  123OSM    H3G13077   4.422   2.835   6.811  0.0198  1.2439 -0.9762
  123OSM    C4F13078   4.392   2.658   6.936 -0.6601  0.2904 -0.1311
  123OSM    H4F13079   4.496   2.622   6.951  0.2673  2.8366  0.0455
  123OSM    H4G13080   4.350   2.608   6.846 -0.3920  0.0979 -0.1489
  123OSM    C5F13081   4.313   2.610   7.057 -0.3428  0.5552 -0.3994
  123OSM    H5F13082   4.328   2.500   7.054 -1.2001  0.3131  1.8771
  123OSM    H5G13083   4.202   2.622   7.052 -0.4935  0.2357  1.5352
  123OSM    C6F13084   4.361   2.650   7.195  0.4999  0.6633  0.2040
  123OSM    H6F13085   4.371   2.761   7.197 -1.6831  0.9287 -0.7820
  123OSM    H6G13086   4.463   2.610   7.215  0.3003  0.6424  1.2037
  123OSM    C7F13087   4.256   2.614   7.309  0.3663 -0.0804 -0.3092
  123OSM    H7F13088   4.237   2.506   7.292  1.8518 -0.7618  1.8165
  123OSM    H7G13089   4.162   2.670   7.294 -2.3763 -4.2578 -0.1566
  123OSM    C8F13090   4.325   2.632   7.447 -0.2693  0.3443  0.3074
  123OSM    H8F13091   4.371   2.732   7.437 -1.0028  0.5777 -0.9320
  123OSM    H8G13092   4.404   2.554   7.455 -1.2003 -0.5509  1.2312
  123OSM    C9F13093   4.228   2.623   7.565 -0.4112 -0.1154 -0.3771
  123OSM    H9F13094   4.203   2.519   7.590  0.8286 -0.6253 -1.1567
  123OSM   C10F13095   4.182   2.725   7.641 -0.2466  0.4416 -0.2611
  123OSM   H10F13096   4.133   2.701   7.736  0.1065  0.2783 -0.1171
  123OSM   C11F13097   4.228   2.867   7.612  0.3489  0.2821  0.0266
  123OSM   H11F13098   4.145   2.940   7.616 -0.7910 -0.9899  0.2088
  123OSM   H11G13099   4.278   2.882   7.514 -0.2888  1.1687 -0.1673
  123OSM   C12F13100   4.318   2.923   7.731 -0.6049  0.1279 -0.4190
  123OSM   H12F13101   4.389   3.000   7.694  0.2889 -0.6024 -0.2699
  123OSM   H12G13102   4.393   2.845   7.757 -1.9210 -0.8406  0.5723
  123OSM   C13F13103   4.249   2.966   7.860  0.1572  0.2170 -1.0640
  123OSM   H13F13104   4.157   2.909   7.881  0.9205 -1.0941 -1.1802
  123OSM   H13G13105   4.237   3.077   7.863 -0.1624  0.2133  2.1589
  123OSM   C14F13106   4.323   2.918   7.988  0.2478  0.0428  0.0596
  123OSM   H14F13107   4.428   2.927   7.952 -0.1643 -2.5163 -2.1616
  123OSM   H14G13108   4.317   2.809   8.012  1.1598  0.5359  2.8251
  123OSM   C15F13109   4.292   2.992   8.117  1.1022  0.4675 -0.6614
  123OSM   H15F13110   4.208   2.940   8.168  1.6713  0.0339 -0.1726
  123OSM   H15G13111   4.276   3.102   8.113 -1.9628  0.1156 -1.2585
  123OSM   C16F13112   4.398   2.984   8.225 -0.1015  0.0779  0.5032
  123OSM   H16F13113   4.485   3.037   8.180 -1.6935  3.0450  0.6146
  123OSM   H16G13114   4.415   2.875   8.234 -0.9595 -0.1988 -1.0216
  123OSM   C17F13115   4.354   3.035   8.364  0.0696 -0.3009  0.4761
  123OSM   H17F13116   4.264   2.983   8.404  0.2436 -0.6706  0.3873
  123OSM   H17G13117   4.325   3.142   8.354  1.9133  0.1643 -0.3385
  123OSM   C18F13118   4.468   3.022   8.461 -0.6370 -0.6099 -0.8970
  123OSM   H18F13119   4.545   3.101   8.445 -0.2929 -0.4349  1.3040
  123OSM   H18G13120   4.505   2.918   8.467 -2.1307 -1.1018  1.0469
  123OSM   H18H13121   4.415   3.034   8.559 -0.3518 -0.3532 -0.7699
  124OSM      N13122   4.228   4.647   6.137 -0.2834  0.4260 -0.0464
  124OSM    C1513123   4.329   4.724   6.057  0.0698  0.7550 -0.3912
  124OSM   H15A13124   4.413   4.660   6.031 -0.1838  0.9526 -1.7779
  124OSM   H15B13125   4.367   4.813   6.105  0.7138 -0.2004  0.9186
  124OSM   H15C13126   4.282   4.769   5.971 -0.9530  2.3806  0.9675
  124OSM    C1413127   4.192   4.528   6.056 -0.0428 -0.4697  0.0340
  124OSM   H14A13128   4.277   4.466   6.029 -0.7295 -1.8299  0.9018
  124OSM   H14B13129   4.135   4.555   5.969  0.7079  0.2824 -0.2357
  124OSM   H14C13130   4.113   4.472   6.104 -1.1977 -0.0054 -1.3017
  124OSM    C1313131   4.287   4.584   6.263 -0.5673 -0.1484  0.2529
  124OSM   H13A13132   4.216   4.509   6.291 -0.6230 -1.4195 -2.8509
  124OSM   H13B13133   4.295   4.660   6.340 -2.4111  2.0409 -1.5447
  124OSM   H13C13134   4.382   4.537   6.242 -0.7267 -0.4115  0.1183
  124OSM    C1213135   4.104   4.730   6.178 -0.3639  0.0351 -1.0711
  124OSM   H12A13136   4.046   4.752   6.089  0.4635  0.9505 -1.4075
  124OSM   H12B13137   4.139   4.825   6.215 -2.3179 -0.6557  3.1171
  124OSM    C1113138   4.007   4.664   6.285  0.0503 -0.2345  0.0733
  124OSM   H11A13139   3.928   4.739   6.304 -1.2499 -2.0391  2.2168
  124OSM   H11B13140   4.056   4.652   6.384 -0.4896  0.2765  0.4041
  124OSM      P13141   3.817   4.537   6.151 -0.2165  0.3607 -0.2953
  124OSM    O1313142   3.760   4.672   6.133 -0.5861  0.4580  0.1386
  124OSM    O1413143   3.834   4.456   6.032  0.2036 -0.6011  0.4142
  124OSM    O1113144   3.712   4.455   6.238  0.2704 -0.2151  0.1429
  124OSM    O1213145   3.954   4.541   6.234  0.3075 -0.2072 -0.0148
  124OSM    C1S13146   3.739   4.349   6.326  0.0586  0.5034 -0.1683
  124OSM    H1S13147   3.821   4.286   6.285  0.3475  2.3288 -2.6122
  124OSM    H1T13148   3.652   4.281   6.342  1.4168 -0.6578  3.1750
  124OSM     NF13149   3.794   4.277   6.560  0.9297  0.6122 -0.0931
  124OSM    HNF13150   3.719   4.256   6.622 -0.8746  2.1629 -1.6040
  124OSM    C2S13151   3.774   4.393   6.474  1.0641 -0.2304  0.3407
  124OSM    H2S13152   3.865   4.456   6.458 -1.4744  3.4250 -1.3518
  124OSM    C3S13153   3.670   4.496   6.533  0.0730  0.6338 -0.0747
  124OSM    H3S13154   3.578   4.435   6.537 -0.0967  0.9534  1.3657
  124OSM     O313155   3.636   4.609   6.452 -0.4075  0.3110 -0.3360
  124OSM    HO313156   3.642   4.569   6.365  0.0539  0.2222 -0.2670
  124OSM    C4S13157   3.708   4.537   6.670  0.0047  0.1458  0.4482
  124OSM    H4S13158   3.801   4.596   6.672 -0.1163  0.3235  0.8203
  124OSM    C5S13159   3.634   4.511   6.785 -0.1334 -0.1225  0.5052
  124OSM    H5S13160   3.538   4.460   6.771 -0.7597  0.8033  1.2851
  124OSM    C6S13161   3.660   4.566   6.925  0.0257  0.0559 -0.1280
  124OSM    H6S13162   3.562   4.594   6.969 -0.6187  0.1863 -1.5782
  124OSM    H6T13163   3.716   4.662   6.925  0.2577 -0.0708  1.2316
  124OSM    C7S13164   3.739   4.458   6.999  0.2296  0.4740 -0.3872
  124OSM    H7S13165   3.845   4.472   6.968 -0.1907 -0.3072 -2.2915
  124OSM    H7T13166   3.723   4.350   6.979  2.1459  0.1646 -0.4529
  124OSM    C8S13167   3.729   4.474   7.151 -0.4634  0.1643  0.0743
  124OSM    H8S13168   3.795   4.395   7.192  0.6075  0.6718 -0.6285
  124OSM    H8T13169   3.622   4.456   7.173 -0.7181 -0.1909 -1.3531
  124OSM    C9S13170   3.788   4.611   7.199  0.3139  0.1473 -0.3201
  124OSM    H9S13171   3.710   4.682   7.165 -0.7563 -1.2124 -0.8041
  124OSM    H9T13172   3.878   4.623   7.134  2.0316 -3.4808  1.1043
  124OSM   C10S13173   3.823   4.619   7.353  0.7640 -0.4345  1.1075
  124OSM   H10S13174   3.817   4.727   7.381 -2.0205 -0.7986  2.2601
  124OSM   H10T13175   3.928   4.583   7.361  1.3427  1.1484  1.0030
  124OSM   C11S13176   3.735   4.534   7.444 -0.3413 -0.0165  0.6489
  124OSM   H11S13177   3.770   4.430   7.430  0.9040  0.0595  2.7578
  124OSM   H11T13178   3.627   4.557   7.432 -0.4510  0.2324  1.9509
  124OSM   C12S13179   3.776   4.556   7.593  0.4837  0.2614 -0.4928
  124OSM   H12S13180   3.749   4.652   7.640  0.5048  0.3920 -0.7476
  124OSM   H12T13181   3.883   4.526   7.584 -0.0086 -1.4477 -1.1658
  124OSM   C13S13182   3.712   4.454   7.682 -0.8870  1.0953 -0.4482
  124OSM   H13S13183   3.710   4.357   7.627  0.9065  0.7935 -0.0636
  124OSM   H13T13184   3.609   4.487   7.706 -0.5164  2.6160 -0.8863
  124OSM   C14S13185   3.798   4.434   7.804  0.3906 -0.0723 -0.3057
  124OSM   H14S13186   3.822   4.531   7.852  0.8289 -0.2097 -0.2392
  124OSM   H14T13187   3.897   4.391   7.778  0.2768 -0.4071 -0.1983
  124OSM   C15S13188   3.719   4.354   7.905  0.5876  0.7285 -0.0883
  124OSM   H15S13189   3.787   4.269   7.928  0.6238  0.3535 -1.4994
  124OSM   H15T13190   3.624   4.313   7.864  1.0079 -3.2399  2.2924
  124OSM   C16S13191   3.701   4.422   8.039 -0.1596  0.2264  0.3301
  124OSM   H16S13192   3.666   4.524   8.014  2.3622  0.4959 -2.7176
  124OSM   H16T13193   3.802   4.426   8.083  0.5397  2.5011 -1.2972
  124OSM   C17S13194   3.601   4.339   8.118  0.8624  0.3715 -0.4359
  124OSM   H17S13195   3.630   4.232   8.106 -0.6036 -0.0625 -0.3445
  124OSM   H17T13196   3.503   4.345   8.067 -0.9697 -2.2520  2.3772
  124OSM   C18S13197   3.589   4.387   8.260 -0.7360 -0.0260  0.1018
  124OSM   H18S13198   3.501   4.345   8.315 -0.2174 -0.8666  0.3104
  124OSM   H18T13199   3.570   4.496   8.265 -0.8003 -0.0741  1.2961
  124OSM   H18U13200   3.685   4.362   8.311 -0.0169 -1.2454 -1.7652
  124OSM    C1F13201   3.888   4.186   6.554  0.0241  0.1331  0.0488
  124OSM     OF13202   3.991   4.219   6.494  0.2096  0.9217 -0.3283
  124OSM    C2F13203   3.867   4.053   6.632  0.2686 -0.4757 -0.1508
  124OSM    H2F13204   3.898   3.969   6.566 -1.6132  0.1968 -2.0071
  124OSM    H2G13205   3.758   4.037   6.641 -0.0683  0.9316 -1.3230
  124OSM    C3F13206   3.937   4.012   6.772 -0.0557  0.0596 -0.0790
  124OSM    H3F13207   4.046   3.996   6.758 -0.2865 -3.2664  0.9960
  124OSM    H3G13208   3.885   3.918   6.801  0.7105  0.5295  3.2426
  124OSM    C4F13209   3.920   4.115   6.883 -0.6391 -0.0015  0.5429
  124OSM    H4F13210   3.820   4.093   6.926 -0.4891  0.3980  1.1192
  124OSM    H4G13211   3.919   4.217   6.839 -0.8367 -0.9245 -1.7214
  124OSM    C5F13212   4.030   4.099   6.987 -0.0773 -0.4719  0.0499
  124OSM    H5F13213   4.120   4.127   6.929  0.8687 -0.3037  1.5630
  124OSM    H5G13214   4.033   3.991   7.015 -0.7447 -0.5745 -0.2516
  124OSM    C6F13215   4.010   4.190   7.111  0.0094  0.1950 -0.2664
  124OSM    H6F13216   3.921   4.154   7.166 -0.7072 -1.6311 -2.4465
  124OSM    H6G13217   3.998   4.292   7.070  1.7489 -0.0375 -1.4784
  124OSM    C7F13218   4.129   4.178   7.207  0.4010  0.4470 -0.1423
  124OSM    H7F13219   4.225   4.190   7.153  0.8287 -1.6473  0.0747
  124OSM    H7G13220   4.127   4.071   7.235 -2.5942 -0.1799 -2.1981
  124OSM    C8F13221   4.125   4.270   7.329 -0.1364 -0.7851  0.4584
  124OSM    H8F13222   4.109   4.376   7.299  3.1469  1.5764  5.6185
  124OSM    H8G13223   4.229   4.265   7.367  0.2250  1.6774 -0.0625
  124OSM    C9F13224   4.021   4.212   7.421  0.1320 -0.2193 -0.1729
  124OSM    H9F13225   3.922   4.252   7.394  0.2447  2.5112  2.9021
  124OSM   C10F13226   4.036   4.135   7.525 -0.3558  0.0433 -0.8229
  124OSM   H10F13227   3.946   4.112   7.585  0.1436 -3.5000 -1.2228
  124OSM   C11F13228   4.159   4.078   7.578 -0.2290 -0.0699 -0.1072
  124OSM   H11F13229   4.234   4.077   7.496  1.0790  0.9531  1.0452
  124OSM   H11G13230   4.138   3.971   7.599 -0.2095 -0.4919 -2.0407
  124OSM   C12F13231   4.222   4.146   7.707  0.0105  0.8371  0.0154
  124OSM   H12F13232   4.260   4.247   7.680 -0.9449  1.5268  1.1222
  124OSM   H12G13233   4.301   4.080   7.747 -0.6031 -0.9420 -1.6057
  124OSM   C13F13234   4.120   4.175   7.825 -0.3465 -0.8681  0.0599
  124OSM   H13F13235   4.066   4.088   7.871  0.1432 -0.7927  0.7989
  124OSM   H13G13236   4.049   4.244   7.775  2.0270  0.1232 -2.1021
  124OSM   C14F13237   4.187   4.243   7.942  0.4591 -0.3769 -0.3172
  124OSM   H14F13238   4.231   4.334   7.897 -1.1523  0.2849 -0.6142
  124OSM   H14G13239   4.269   4.179   7.980  2.0051  1.4443 -0.4347
  124OSM   C15F13240   4.080   4.274   8.055  0.4232 -0.1486 -0.4075
  124OSM   H15F13241   4.026   4.183   8.087 -0.8059  0.0906 -1.6909
  124OSM   H15G13242   4.015   4.351   8.007 -2.5616 -1.5636  1.0785
  124OSM   C16F13243   4.129   4.361   8.169 -0.1217 -0.0668  0.0257
  124OSM   H16F13244   4.045   4.394   8.235  0.8704  2.8506 -0.0603
  124OSM   H16G13245   4.182   4.451   8.132 -0.7724  0.7275  0.9727
  124OSM   C17F13246   4.220   4.286   8.262 -0.3469 -0.1596 -0.2925
  124OSM   H17F13247   4.315   4.272   8.206 -0.3214  0.8535 -0.5255
  124OSM   H17G13248   4.178   4.186   8.286  1.7865 -0.6077  1.9264
  124OSM   C18F13249   4.256   4.351   8.395 -0.2930 -0.5407 -0.1116
  124OSM   H18F13250   4.259   4.462   8.384 -2.0974 -0.0770  2.9562
  124OSM   H18G13251   4.349   4.307   8.436  0.0260 -0.8206 -1.0992
  124OSM   H18H13252   4.169   4.346   8.463 -0.1208 -1.6000  0.0364
  125OSM      N13253   0.164   4.961   5.867  0.4662 -0.2523  0.1204
  125OSM    C1513254   0.251   5.065   5.800  0.5375  0.1392  0.4891
  125OSM   H15A13255   0.254   5.157   5.857 -0.2837 -0.4434  1.5304
  125OSM   H15B13256   0.217   5.086   5.700 -1.6725  0.3011  1.2093
  125OSM   H15C13257   0.350   5.023   5.798 -0.2055 -1.6513 -0.2850
  125OSM    C1413258   0.015   4.976   5.859  0.5145 -0.2027  0.4540
  125OSM   H14A13259  -0.036   4.967   5.764  0.8018  0.6497  0.2086
  125OSM   H14B13260  -0.014   5.069   5.906 -0.0917  0.5497 -1.3196
  125OSM   H14C13261  -0.022   4.906   5.932 -0.7620  0.3150  0.3287
  125OSM    C1313262   0.206   4.838   5.796 -0.1624  0.1677 -0.1321
  125OSM   H13A13263   0.303   4.808   5.832 -1.8121 -2.0749  2.9530
  125OSM   H13B13264   0.201   4.845   5.689  2.7642 -0.5513 -0.4046
  125OSM   H13C13265   0.143   4.753   5.818 -0.1299  0.1216 -0.2146
  125OSM    C1213266   0.201   4.957   6.014  0.2690  0.6797  0.3854
  125OSM   H12A13267   0.309   4.947   6.010  0.0299 -3.5040 -1.0458
  125OSM   H12B13268   0.183   4.863   6.065  0.9985  0.1050 -0.3699
  125OSM    C1113269   0.168   5.082   6.102 -0.7962  0.3975  0.5160
  125OSM   H11A13270   0.202   5.167   6.039  0.4790 -0.5318 -0.1143
  125OSM   H11B13271   0.235   5.092   6.190  1.8390 -0.4640 -1.2554
  125OSM      P13272  -0.047   5.012   6.227 -0.0592 -0.0599  0.0224
  125OSM    O1313273  -0.188   5.053   6.230 -0.0482 -0.1009 -0.1593
  125OSM    O1413274  -0.013   4.873   6.204 -0.4829  0.2812 -0.2679
  125OSM    O1113275   0.020   5.057   6.357  0.3374  0.1341 -0.2764
  125OSM    O1213276   0.025   5.095   6.112  0.4864 -1.1808  0.2371
  125OSM    C1S13277  -0.022   5.149   6.455 -0.6702  0.1208  0.4952
  125OSM    H1S13278  -0.116   5.201   6.423 -0.4701  0.4713  0.4671
  125OSM    H1T13279   0.055   5.228   6.467  1.0704 -1.2492 -1.1269
  125OSM     NF13280  -0.103   5.173   6.692  1.0183 -0.2977  0.5062
  125OSM    HNF13281  -0.041   5.211   6.760  2.9744  1.0654 -1.8519
  125OSM    C2S13282  -0.047   5.077   6.596 -0.1382 -0.2812  0.2736
  125OSM    H2S13283  -0.122   4.998   6.578 -0.3599  0.4375 -2.5198
  125OSM    C3S13284   0.088   4.999   6.634  0.0735 -0.7198  0.0185
  125OSM    H3S13285   0.168   5.075   6.644 -0.2026 -0.7252  3.2547
  125OSM     O313286   0.147   4.916   6.539 -0.2092 -0.4089 -0.2739
  125OSM    HO313287   0.106   4.949   6.459 -0.8748  0.6871  0.4906
  125OSM    C4S13288   0.073   4.939   6.769 -0.5056  0.1407  0.2744
  125OSM    H4S13289   0.034   5.008   6.846 -2.1761 -2.5668  2.0526
  125OSM    C5S13290   0.075   4.815   6.806  0.2818 -0.1613  0.2237
  125OSM    H5S13291   0.098   4.739   6.730  1.0023 -0.0075  0.2739
  125OSM    C6S13292   0.037   4.757   6.937  0.1947 -0.0367 -0.5231
  125OSM    H6S13293   0.114   4.684   6.970  2.4074  1.7745 -1.4167
  125OSM    H6T13294  -0.053   4.693   6.943  1.7197 -2.2166  0.3266
  125OSM    C7S13295   0.033   4.863   7.044 -0.6298 -0.7033 -0.0111
  125OSM    H7S13296  -0.045   4.938   7.019  0.7186  0.8108  0.1191
  125OSM    H7T13297   0.134   4.910   7.052 -0.0479 -2.2368  3.1652
  125OSM    C8S13298   0.017   4.804   7.179 -0.3675 -0.1834  0.0961
  125OSM    H8S13299   0.084   4.716   7.189  0.2708  0.5147  2.4301
  125OSM    H8T13300  -0.087   4.767   7.184 -0.3686 -0.0939  0.7120
  125OSM    C9S13301   0.012   4.909   7.292 -0.4830  0.1693 -0.0936
  125OSM    H9S13302  -0.078   4.973   7.292 -0.3266  0.4554  1.8683
  125OSM    H9T13303   0.103   4.973   7.284 -0.2042 -0.4683 -3.0481
  125OSM   C10S13304   0.018   4.831   7.429  0.5135 -0.2479 -0.4013
  125OSM   H10S13305   0.109   4.768   7.420  0.6902 -0.0147 -0.2555
  125OSM   H10T13306  -0.078   4.775   7.429  0.4868 -0.2776 -2.6645
  125OSM   C11S13307   0.030   4.922   7.556 -0.5429 -0.2386  0.0331
  125OSM   H11S13308  -0.058   4.989   7.569  1.1295  2.2529 -0.7363
  125OSM   H11T13309   0.122   4.982   7.541 -0.3037 -0.3430  1.0275
  125OSM   C12S13310   0.055   4.832   7.681  0.6650 -0.5098  0.2085
  125OSM   H12S13311   0.122   4.756   7.637  0.5010 -0.3255 -0.3683
  125OSM   H12T13312  -0.039   4.779   7.709 -0.5234  1.5154  0.2878
  125OSM   C13S13313   0.117   4.919   7.794  0.2218  0.0757 -0.1649
  125OSM   H13S13314   0.038   4.992   7.824  0.0854 -0.0830 -0.1343
  125OSM   H13T13315   0.203   4.978   7.757  1.0535 -1.2347 -0.4130
  125OSM   C14S13316   0.189   4.832   7.905 -0.7510 -0.2336 -0.0064
  125OSM   H14S13317   0.257   4.761   7.853  0.0800 -0.2999  1.1377
  125OSM   H14T13318   0.112   4.771   7.958 -1.7906 -0.4834 -1.7427
  125OSM   C15S13319   0.276   4.906   8.003 -0.1771  0.0921  0.4965
  125OSM   H15S13320   0.374   4.936   7.959 -1.0778  2.2583 -0.1855
  125OSM   H15T13321   0.290   4.835   8.088  2.4700  0.2443  0.2814
  125OSM   C16S13322   0.209   5.036   8.053  0.1261 -0.8635 -0.2051
  125OSM   H16S13323   0.099   5.027   8.070  0.0091  3.1951  2.8608
  125OSM   H16T13324   0.222   5.106   7.968  0.7036 -1.1423 -0.3556
  125OSM   C17S13325   0.278   5.107   8.166  0.1922 -0.6695  0.2784
  125OSM   H17S13326   0.225   5.197   8.203  0.4659 -0.6356  0.5990
  125OSM   H17T13327   0.375   5.151   8.132  0.2357 -0.1568  1.0303
  125OSM   C18S13328   0.327   5.021   8.276  0.7504 -0.0054  0.4036
  125OSM   H18S13329   0.388   4.936   8.241  0.9938  0.8574 -1.3867
  125OSM   H18T13330   0.243   4.985   8.339  1.0423  1.0240  1.4311
  125OSM   H18U13331   0.386   5.094   8.335 -2.0968  4.9566 -2.1754
  125OSM    C1F13332  -0.225   5.229   6.670 -0.1355  0.0142  0.1909
  125OSM     OF13333  -0.303   5.183   6.591 -0.2625 -0.4894  0.3713
  125OSM    C2F13334  -0.261   5.337   6.762  0.1959  0.0478 -0.2370
  125OSM    H2F13335  -0.199   5.425   6.738 -2.2366  1.3312 -2.2873
  125OSM    H2G13336  -0.226   5.314   6.865 -1.3384  3.2636  1.1498
  125OSM    C3F13337  -0.406   5.377   6.768  0.9748  0.2741 -0.0057
  125OSM    H3F13338  -0.470   5.300   6.818 -2.9061  2.6057 -0.9102
  125OSM    H3G13339  -0.440   5.389   6.663  0.4385 -0.8900  0.0133
  125OSM    C4F13340  -0.429   5.514   6.832 -0.3115  0.3018 -0.3775
  125OSM    H4F13341  -0.403   5.585   6.750  0.7618 -1.8441 -2.0006
  125OSM    H4G13342  -0.358   5.529   6.916  0.3147  0.4742 -0.9227
  125OSM    C5F13343  -0.568   5.537   6.880 -0.2595  0.0072  0.2245
  125OSM    H5F13344  -0.612   5.447   6.928 -3.0755  0.7807 -0.7267
  125OSM    H5G13345  -0.629   5.561   6.790  0.1018 -1.3756 -0.4164
  125OSM    C6F13346  -0.573   5.653   6.986 -0.1736  0.8540 -0.4305
  125OSM    H6F13347  -0.508   5.736   6.951  1.7294  0.6607  2.3137
  125OSM    H6G13348  -0.519   5.619   7.077 -0.0795 -0.2690 -0.8895
  125OSM    C7F13349  -0.715   5.697   7.030 -0.2518  0.9630  0.0761
  125OSM    H7F13350  -0.782   5.652   6.954  1.3128 -2.8013  0.6510
  125OSM    H7G13351  -0.717   5.807   7.041  2.5162  1.5388 -3.3175
  125OSM    C8F13352  -0.751   5.638   7.166 -0.1249 -0.3151  0.0576
  125OSM    H8F13353  -0.672   5.666   7.240 -0.7798  1.3215  0.1980
  125OSM    H8G13354  -0.745   5.527   7.169  1.9268 -0.4212 -3.1426
  125OSM    C9F13355  -0.888   5.691   7.217  0.0037 -0.5480 -0.0994
  125OSM    H9F13356  -0.906   5.796   7.190 -3.2817 -0.6604  1.1728
  125OSM   C10F13357  -0.979   5.617   7.274 -0.5045 -0.2528  0.4550
  125OSM   H10F13358  -1.068   5.670   7.311 -0.5712  1.2556 -1.6672
  125OSM   C11F13359  -0.970   5.472   7.308 -0.8508 -0.2747 -0.3571
  125OSM   H11F13360  -0.870   5.432   7.282 -0.1149  0.4296  1.2202
  125OSM   H11G13361  -1.044   5.415   7.248 -1.1206 -2.2549  1.6843
  125OSM   C12F13362  -0.992   5.453   7.456 -0.0079 -0.6169 -0.3345
  125OSM   H12F13363  -0.999   5.344   7.474  0.4010 -0.6655 -0.4645
  125OSM   H12G13364  -1.089   5.499   7.486  0.1371 -0.4744 -0.0773
  125OSM   C13F13365  -0.877   5.508   7.543  0.7509  0.2578 -0.6900
  125OSM   H13F13366  -0.885   5.619   7.547  1.8423  0.3564 -0.7458
  125OSM   H13G13367  -0.778   5.473   7.507  0.5059 -1.3189  0.0872
  125OSM   C14F13368  -0.884   5.455   7.689  0.6385 -0.4000  0.7442
  125OSM   H14F13369  -0.858   5.347   7.689  1.0640 -0.3048  1.7302
  125OSM   H14G13370  -0.985   5.465   7.733  0.3634  0.1575  0.0079
  125OSM   C15F13371  -0.778   5.510   7.782 -0.1856  0.5721 -0.0684
  125OSM   H15F13372  -0.773   5.621   7.779  1.8834  0.5055 -0.3085
  125OSM   H15G13373  -0.676   5.476   7.754  0.8263  2.9216  0.5328
  125OSM   C16F13374  -0.807   5.469   7.930 -0.2428  0.1434  0.3191
  125OSM   H16F13375  -0.914   5.475   7.959 -0.8588 -1.2526 -1.4609
  125OSM   H16G13376  -0.755   5.545   7.993 -1.4344  0.9712  0.3428
  125OSM   C17F13377  -0.750   5.331   7.964  0.8056  0.3893 -0.3758
  125OSM   H17F13378  -0.640   5.338   7.948  1.1282  3.7029  2.0635
  125OSM   H17G13379  -0.798   5.260   7.894  0.2771  1.1199 -0.7563
  125OSM   C18F13380  -0.779   5.294   8.105 -0.2721  0.4979 -0.0496
  125OSM   H18F13381  -0.713   5.338   8.183 -0.9705  0.1153  0.7758
  125OSM   H18G13382  -0.751   5.186   8.112  0.7121  0.6443 -1.3204
  125OSM   H18H13383  -0.887   5.298   8.131 -0.9732 -4.2866 -1.2679
  126OSM      N13384   0.949   2.271   6.033 -0.3115  0.0155  0.4916
  126OSM    C1513385   1.088   2.305   5.991 -0.6276  0.4984  0.0890
  126OSM   H15A13386   1.148   2.324   6.079 -0.7361 -1.1156  0.5560
  126OSM   H15B13387   1.080   2.383   5.917  0.8191 -1.2778 -2.0548
  126OSM   H15C13388   1.129   2.215   5.948  0.2760  0.1674  1.5788
  126OSM    C1413389   0.857   2.303   5.922  0.3031 -0.2525 -0.2192
  126OSM   H14A13390   0.756   2.278   5.952 -0.3306  0.6662 -1.5142
  126OSM   H14B13391   0.871   2.241   5.834 -4.3875 -0.6849 -0.8995
  126OSM   H14C13392   0.882   2.404   5.892 -0.3447 -0.5935 -2.0411
  126OSM    C1313393   0.936   2.120   6.071 -0.0220 -0.2837 -0.3980
  126OSM   H13A13394   0.998   2.095   6.155 -2.0711 -0.4523  1.1490
  126OSM   H13B13395   0.969   2.062   5.986 -0.9355 -0.6070 -0.5484
  126OSM   H13C13396   0.836   2.102   6.106  0.3684 -0.9182  0.4109
  126OSM    C1213397   0.909   2.359   6.152 -0.1022  0.3830 -0.3599
  126OSM   H12A13398   0.802   2.345   6.156 -0.2976  0.9033 -2.4491
  126OSM   H12B13399   0.912   2.464   6.129 -1.1006  0.1501 -1.6955
  126OSM    C1113400   0.972   2.333   6.288  0.0632  0.0170  0.1043
  126OSM   H11A13401   0.925   2.245   6.336  1.2952  0.1058  1.5555
  126OSM   H11B13402   0.952   2.410   6.366  1.0370 -0.6054  1.0071
  126OSM      P13403   1.220   2.281   6.378 -0.4513 -0.0178  0.5437
  126OSM    O1313404   1.352   2.289   6.314 -0.0227  0.0408  0.2786
  126OSM    O1413405   1.202   2.358   6.505  0.0242  0.5985  1.3681
  126OSM    O1113406   1.188   2.124   6.398  0.9071 -0.4090 -0.4614
  126OSM    O1213407   1.111   2.316   6.273 -0.1396 -0.2899  0.0121
  126OSM    C1S13408   1.084   2.081   6.492 -0.2419 -0.2997  0.2055
  126OSM    H1S13409   1.010   2.015   6.443  0.8519  0.0337 -2.0192
  126OSM    H1T13410   1.034   2.169   6.539  0.2687 -0.6376  1.4492
  126OSM     NF13411   1.046   2.006   6.721 -0.1814 -0.5283  0.3744
  126OSM    HNF13412   1.056   2.080   6.788 -1.8258 -0.3276  0.4434
  126OSM    C2S13413   1.145   2.008   6.617 -0.5036  0.2094  0.1777
  126OSM    H2S13414   1.165   1.901   6.597 -0.2675  0.7540 -2.9572
  126OSM    C3S13415   1.289   2.058   6.655  0.0298 -0.4901 -0.0380
  126OSM    H3S13416   1.284   2.169   6.648  2.0952 -0.4549 -1.8642
  126OSM     O313417   1.387   2.016   6.560 -0.2852  0.1621  0.5039
  126OSM    HO313418   1.336   1.975   6.490 -0.5735  1.6566 -0.1948
  126OSM    C4S13419   1.324   2.029   6.803 -0.1267  0.0879  0.5946
  126OSM    H4S13420   1.303   2.107   6.878  0.4243  1.2904 -0.4618
  126OSM    C5S13421   1.379   1.915   6.848  0.7137 -0.3912  0.1406
  126OSM    H5S13422   1.401   1.835   6.775  3.5937 -0.4785  0.9671
  126OSM    C6S13423   1.426   1.865   6.982 -0.5478  0.2412  0.0268
  126OSM    H6S13424   1.528   1.821   6.983 -0.6864 -0.1114  1.4108
  126OSM    H6T13425   1.373   1.775   7.020  1.3313 -0.7275  0.5167
  126OSM    C7S13426   1.416   1.969   7.097 -0.0142 -0.1819 -0.3528
  126OSM    H7S13427   1.307   1.984   7.109  0.0065 -0.9974  1.0568
  126OSM    H7T13428   1.475   2.059   7.069  0.4594  0.5016  2.4861
  126OSM    C8S13429   1.477   1.915   7.236 -0.3820  0.3006 -0.0794
  126OSM    H8S13430   1.588   1.923   7.231 -0.4110  0.7846 -0.0016
  126OSM    H8T13431   1.459   1.806   7.252 -0.0357 -0.3081 -3.1746
  126OSM    C9S13432   1.417   1.996   7.350  0.6979 -0.0215  0.7851
  126OSM    H9S13433   1.308   1.976   7.350  0.8646 -1.0063  1.5208
  126OSM    H9T13434   1.425   2.104   7.324 -2.5602  1.1889  3.9754
  126OSM   C10S13435   1.477   1.962   7.482 -0.7561 -0.7285 -0.2515
  126OSM   H10S13436   1.587   1.970   7.468 -0.4952  2.1749  2.2898
  126OSM   H10T13437   1.447   1.859   7.511  0.1065 -1.5028 -1.9560
  126OSM   C11S13438   1.441   2.066   7.599 -0.5587  0.1429  0.0365
  126OSM   H11S13439   1.333   2.053   7.620 -0.8253  2.7389  0.5023
  126OSM   H11T13440   1.473   2.169   7.571  2.0193 -0.6561 -0.2223
  126OSM   C12S13441   1.505   2.037   7.737 -0.1067  0.1841  0.1694
  126OSM   H12S13442   1.614   2.036   7.713  0.0325  1.7034  0.6523
  126OSM   H12T13443   1.472   1.941   7.782 -0.9965  0.9600  1.2233
  126OSM   C13S13444   1.476   2.144   7.844 -0.1351 -0.2354 -0.3425
  126OSM   H13S13445   1.472   2.239   7.787 -1.3829  0.5116  0.9085
  126OSM   H13T13446   1.565   2.143   7.910  0.4502  1.0948 -1.0858
  126OSM   C14S13447   1.347   2.118   7.926 -0.1233 -0.0059 -0.6373
  126OSM   H14S13448   1.355   2.016   7.971 -2.5068  0.7663  1.7719
  126OSM   H14T13449   1.254   2.116   7.865 -0.8762 -2.1517  0.4575
  126OSM   C15S13450   1.332   2.227   8.035  0.1249  0.5219  0.0587
  126OSM   H15S13451   1.331   2.324   7.981 -0.7913  0.1179 -0.6839
  126OSM   H15T13452   1.423   2.225   8.098  1.1955  0.4835 -1.4625
  126OSM   C16S13453   1.212   2.207   8.135  0.1421  0.4408 -1.0565
  126OSM   H16S13454   1.225   2.111   8.191  1.8642  1.0328 -0.3599
  126OSM   H16T13455   1.120   2.193   8.074  0.9505 -1.8020 -1.8906
  126OSM   C17S13456   1.200   2.311   8.242 -0.0391  0.1140 -0.1374
  126OSM   H17S13457   1.197   2.409   8.191 -0.9042  0.0625 -0.2107
  126OSM   H17T13458   1.293   2.295   8.301 -0.8773 -0.4510  1.0847
  126OSM   C18S13459   1.077   2.290   8.337  0.7041 -0.2711  0.0938
  126OSM   H18S13460   1.081   2.188   8.382 -1.2004 -0.6213 -0.4231
  126OSM   H18T13461   0.984   2.284   8.276  0.7521 -3.2154  0.1790
  126OSM   H18U13462   1.072   2.374   8.410 -1.4838 -1.4980  1.4886
  126OSM    C1F13463   0.934   1.946   6.704  0.4934  0.1544 -0.6585
  126OSM     OF13464   0.917   1.859   6.628  0.4935  0.6776 -0.0995
  126OSM    C2F13465   0.815   2.007   6.785 -0.0343 -0.0361 -0.1769
  126OSM    H2F13466   0.751   2.063   6.714  0.0871 -0.9289 -1.0151
  126OSM    H2G13467   0.850   2.086   6.855 -2.8185  1.2253 -0.0934
  126OSM    C3F13468   0.735   1.900   6.851  1.2131 -0.0302  0.3157
  126OSM    H3F13469   0.694   1.839   6.768  2.0479 -2.6570  1.7499
  126OSM    H3G13470   0.661   1.952   6.915  0.9327  0.9277 -0.7303
  126OSM    C4F13471   0.817   1.798   6.938  0.4876 -0.0174  0.6571
  126OSM    H4F13472   0.891   1.751   6.870  1.7474  1.6657  0.7840
  126OSM    H4G13473   0.741   1.726   6.973  1.7538 -1.1246  1.2132
  126OSM    C5F13474   0.882   1.864   7.060 -0.0789 -0.0925 -0.0247
  126OSM    H5F13475   0.819   1.946   7.100  1.2819  0.5659  0.8563
  126OSM    H5G13476   0.973   1.917   7.025  0.4229 -0.3815  0.7927
  126OSM    C6F13477   0.926   1.771   7.175  0.2437 -0.6137 -0.4669
  126OSM    H6F13478   0.843   1.757   7.247  0.0441 -0.6424 -0.6978
  126OSM    H6G13479   0.992   1.826   7.245  1.3751 -3.8024  1.1470
  126OSM    C7F13480   1.000   1.651   7.121 -0.2202  0.5937  0.8321
  126OSM    H7F13481   1.086   1.676   7.056  1.0196  1.8144  2.8356
  126OSM    H7G13482   0.927   1.591   7.063 -0.6629  0.6344  1.3338
  126OSM    C8F13483   1.047   1.553   7.230  0.3106  0.1792 -0.0447
  126OSM    H8F13484   1.076   1.461   7.177 -3.3808 -1.4315  0.4301
  126OSM    H8G13485   0.958   1.527   7.291  1.2126  0.7592  1.5905
  126OSM    C9F13486   1.163   1.604   7.301  0.8572 -0.5292 -0.1312
  126OSM    H9F13487   1.257   1.604   7.245  1.3741  0.1322  0.7089
  126OSM   C10F13488   1.165   1.650   7.423 -0.1179  0.4246 -0.2466
  126OSM   H10F13489   1.263   1.675   7.466 -0.3619  0.1443  0.4795
  126OSM   C11F13490   1.042   1.665   7.511  0.2226 -0.7606  0.0785
  126OSM   H11F13491   1.050   1.585   7.588  0.6318 -2.8105 -1.9809
  126OSM   H11G13492   0.945   1.650   7.459  1.0169 -1.7831 -1.1544
  126OSM   C12F13493   1.039   1.801   7.583  0.1103  0.8157  0.0766
  126OSM   H12F13494   0.934   1.828   7.605 -0.0092 -1.4334  2.7723
  126OSM   H12G13495   1.079   1.881   7.518 -1.3550  1.2360 -0.3330
  126OSM   C13F13496   1.131   1.796   7.708  1.2163 -0.3562  0.0227
  126OSM   H13F13497   1.227   1.835   7.671 -0.1959  2.4168 -0.9972
  126OSM   H13G13498   1.141   1.697   7.759 -1.0501 -0.6316  0.0315
  126OSM   C14F13499   1.095   1.889   7.826  0.7791 -0.2996  0.3758
  126OSM   H14F13500   1.074   1.994   7.794  2.4401  0.1294  0.6024
  126OSM   H14G13501   1.177   1.904   7.899  0.8457 -0.1099  0.2651
  126OSM   C15F13502   0.980   1.840   7.907 -0.0087  0.7239  0.5177
  126OSM   H15F13503   0.993   1.731   7.923 -0.5570  0.2107 -2.0281
  126OSM   H15G13504   0.884   1.845   7.851  0.6685  0.2493 -0.7219
  126OSM   C16F13505   0.953   1.906   8.043  0.3344 -0.3158  0.0959
  126OSM   H16F13506   0.920   2.011   8.027 -0.1029 -0.3941  0.4814
  126OSM   H16G13507   1.040   1.914   8.111  0.4190  0.4046 -0.0963
  126OSM   C17F13508   0.844   1.826   8.110  0.7251 -0.4033 -0.5783
  126OSM   H17F13509   0.881   1.728   8.148  1.6423 -0.5852 -1.8788
  126OSM   H17G13510   0.756   1.809   8.044 -0.2807 -2.2177  1.1027
  126OSM   C18F13511   0.783   1.915   8.224  0.6270  0.2409  0.0307
  126OSM   H18F13512   0.863   1.953   8.291  0.8886  1.0667 -0.7353
  126OSM   H18G13513   0.718   1.846   8.283 -0.7634  1.4409 -0.0356
  126OSM   H18H13514   0.721   1.997   8.182  0.3915 -0.2225 -0.5497
  127OSM      N13515   5.134   2.302   6.086 -0.2293 -0.3489 -0.2565
  127OSM    C1513516   5.107   2.198   5.989  0.1004 -0.5076 -0.0081
  127OSM   H15A13517   5.182   2.121   5.998 -0.7160 -1.2111  1.0648
  127OSM   H15B13518   5.089   2.240   5.891 -2.9227  1.3896  1.2165
  127OSM   H15C13519   5.017   2.152   6.029  0.4925  0.7479  2.4664
  127OSM    C1413520   5.270   2.355   6.045 -0.5837 -0.1462  0.3776
  127OSM   H14A13521   5.264   2.420   5.959  2.3041  1.0506  0.9518
  127OSM   H14B13522   5.344   2.286   6.006 -0.1180  0.0556  0.8905
  127OSM   H14C13523   5.312   2.404   6.131  1.3405 -0.6260 -0.2361
  127OSM    C1313524   5.031   2.405   6.077  0.1638  0.4990  0.7428
  127OSM   H13A13525   5.067   2.498   6.117  2.4666 -1.3633  3.3785
  127OSM   H13B13526   4.941   2.377   6.131 -0.5086  0.5203 -0.3442
  127OSM   H13C13527   5.009   2.425   5.973 -1.7355 -2.6987  0.3903
  127OSM    C1213528   5.141   2.250   6.225 -0.5127 -0.3334  0.5813
  127OSM   H12A13529   5.238   2.202   6.224 -0.7652 -0.8515  0.9262
  127OSM   H12B13530   5.066   2.176   6.246 -0.6192  0.0849  1.7431
  127OSM    C1113531   5.140   2.349   6.336 -0.1245  0.2623 -0.2185
  127OSM   H11A13532   5.122   2.307   6.438  0.4848  0.2091 -0.1299
  127OSM   H11B13533   5.045   2.405   6.325 -2.0377 -2.4435  1.3630
  127OSM      P13534   5.382   2.373   6.399 -0.3563  0.8272  0.1137
  127OSM    O1313535   5.424   2.277   6.295 -0.1443 -0.7110  0.5249
  127OSM    O1413536   5.476   2.478   6.447 -0.6193  0.4020  0.2529
  127OSM    O1113537   5.344   2.287   6.525 -0.4629  0.7737 -0.2502
  127OSM    O1213538   5.250   2.439   6.348  0.8568 -0.4829  0.2681
  127OSM    C1S13539   5.289   2.361   6.636 -0.8933  0.5185 -0.5486
  127OSM    H1S13540   5.180   2.372   6.616 -0.9254  0.5785 -0.3510
  127OSM    H1T13541   5.335   2.456   6.670 -0.1884  0.3170 -0.9403
  127OSM     NF13542   5.200   2.320   6.860 -0.2514  0.0610 -0.2194
  127OSM    HNF13543   5.252   2.384   6.917 -1.1079  1.6647 -1.1422
  127OSM    C2S13544   5.282   2.262   6.754 -0.1025  0.2452 -0.0708
  127OSM    H2S13545   5.240   2.167   6.715  0.0973  1.8289 -4.7442
  127OSM    C3S13546   5.429   2.219   6.791  0.7242  0.2916  0.0974
  127OSM    H3S13547   5.468   2.322   6.800 -0.3288  1.0193 -2.5693
  127OSM     O313548   5.511   2.160   6.681 -0.4707  0.2112 -0.8441
  127OSM    HO313549   5.458   2.162   6.602  0.5046  2.6461 -1.5444
  127OSM    C4S13550   5.433   2.135   6.914  0.2172  0.0574 -0.3680
  127OSM    H4S13551   5.401   2.032   6.893 -0.1914 -0.1559  1.1726
  127OSM    C5S13552   5.495   2.162   7.032 -0.4510 -0.5611  1.1646
  127OSM    H5S13553   5.541   2.262   7.029  1.0708 -1.2486  0.0068
  127OSM    C6S13554   5.517   2.089   7.158  0.5280  0.0187 -0.0972
  127OSM    H6S13555   5.622   2.056   7.162  0.2116 -1.0997 -0.6671
  127OSM    H6T13556   5.445   2.008   7.182  1.0927 -0.8239 -1.1879
  127OSM    C7S13557   5.502   2.194   7.273  0.0218  0.2111  0.0236
  127OSM    H7S13558   5.396   2.222   7.291 -0.5018 -0.3306 -1.9906
  127OSM    H7T13559   5.547   2.290   7.243 -1.2495  1.3830  1.6455
  127OSM    C8S13560   5.556   2.148   7.410  0.7692  0.0736  0.1184
  127OSM    H8S13561   5.588   2.239   7.467  0.8478  0.6256 -0.7925
  127OSM    H8T13562   5.654   2.105   7.380  0.9007 -0.5886  1.4215
  127OSM    C9S13563   5.468   2.040   7.482 -0.6307  0.6283  0.4096
  127OSM    H9S13564   5.442   1.953   7.417 -1.4788  0.8029  0.4966
  127OSM    H9T13565   5.369   2.089   7.499 -0.6612  0.7597 -0.1201
  127OSM   C10S13566   5.520   1.992   7.616 -0.1306  0.7069  0.2320
  127OSM   H10S13567   5.620   2.038   7.633  1.3962 -0.8777 -3.4814
  127OSM   H10T13568   5.536   1.883   7.607 -1.9493  0.5341 -1.3379
  127OSM   C11S13569   5.419   2.019   7.730 -0.8482 -0.2289 -0.3038
  127OSM   H11S13570   5.313   2.003   7.704 -0.7321 -1.3627 -0.1599
  127OSM   H11T13571   5.414   2.130   7.736  2.1072 -0.0463  0.4638
  127OSM   C12S13572   5.463   1.954   7.868  0.0454  0.1673 -0.2161
  127OSM   H12S13573   5.496   1.851   7.845 -1.2605 -0.7789  1.8241
  127OSM   H12T13574   5.379   1.949   7.941  0.0598  1.2331 -0.1084
  127OSM   C13S13575   5.570   2.039   7.936  0.4097  0.4523  0.7318
  127OSM   H13S13576   5.533   2.143   7.943  0.4414  0.4913  0.3413
  127OSM   H13T13577   5.662   2.037   7.873  1.0059 -1.4255  1.5846
  127OSM   C14S13578   5.607   1.997   8.074 -1.3978 -0.0041  0.2948
  127OSM   H14S13579   5.710   2.038   8.082 -1.1670 -0.7194  1.1569
  127OSM   H14T13580   5.617   1.886   8.072  0.1106  0.0569  1.6079
  127OSM   C15S13581   5.510   2.046   8.177 -0.7537 -0.0378 -1.1311
  127OSM   H15S13582   5.411   1.995   8.175 -1.4546  1.0667  1.0972
  127OSM   H15T13583   5.509   2.157   8.176 -2.2774 -0.0083 -0.3295
  127OSM   C16S13584   5.573   2.027   8.323  0.6762  0.4201  0.3947
  127OSM   H16S13585   5.683   2.034   8.318  0.6914 -0.5956 -3.0598
  127OSM   H16T13586   5.549   1.924   8.358  0.5381 -0.7228 -2.7455
  127OSM   C17S13587   5.517   2.120   8.430  0.3706  0.3508  0.2625
  127OSM   H17S13588   5.408   2.117   8.449  0.3552  1.0041  0.2932
  127OSM   H17T13589   5.521   2.223   8.389 -1.1353  0.0780 -0.6459
  127OSM   C18S13590   5.594   2.105   8.558  0.4538  0.1262  0.4742
  127OSM   H18S13591   5.561   2.178   8.636 -0.1323 -0.3945  0.7219
  127OSM   H18T13592   5.703   2.118   8.546  0.2449 -0.1752 -2.3961
  127OSM   H18U13593   5.569   2.002   8.592  0.7177 -0.9393 -2.2672
  127OSM    C1F13594   5.067   2.325   6.846  0.0047  0.0427  0.3261
  127OSM     OF13595   5.007   2.253   6.767  0.0163 -0.3235 -0.1322
  127OSM    C2F13596   4.984   2.416   6.921 -0.2522 -0.2160 -0.5084
  127OSM    H2F13597   4.918   2.464   6.845 -0.9738  0.3511  0.4499
  127OSM    H2G13598   5.040   2.492   6.979 -1.3089 -0.2286  0.5690
  127OSM    C3F13599   4.890   2.352   7.028 -0.0646  0.4461 -0.0780
  127OSM    H3F13600   4.961   2.302   7.097 -2.1154 -1.5350  0.7068
  127OSM    H3G13601   4.833   2.272   6.978 -0.4656  0.5003  0.2936
  127OSM    C4F13602   4.784   2.446   7.088 -0.2983 -0.2755 -0.2080
  127OSM    H4F13603   4.717   2.467   7.001  1.6079  0.7735 -1.4971
  127OSM    H4G13604   4.818   2.543   7.130  0.4079 -0.7959  0.4513
  127OSM    C5F13605   4.712   2.373   7.201  0.1765  0.9320  0.8864
  127OSM    H5F13606   4.668   2.278   7.162 -1.2896  1.3884  1.3467
  127OSM    H5G13607   4.619   2.431   7.220  1.3455  2.7450  1.2449
  127OSM    C6F13608   4.792   2.346   7.330  0.1341  0.3956  0.7303
  127OSM    H6F13609   4.844   2.437   7.367  1.1998 -0.0444  0.3624
  127OSM    H6G13610   4.867   2.270   7.298 -0.3579  0.6836 -1.2138
  127OSM    C7F13611   4.708   2.285   7.440 -0.4414  0.1579 -0.0329
  127OSM    H7F13612   4.774   2.234   7.513  2.2801  1.8383 -1.1583
  127OSM    H7G13613   4.659   2.197   7.394 -1.5583  0.6477  0.1764
  127OSM    C8F13614   4.608   2.374   7.501  0.0572 -0.2076 -0.2613
  127OSM    H8F13615   4.559   2.430   7.419 -0.2382 -0.8906 -0.5593
  127OSM    H8G13616   4.670   2.436   7.570 -0.1895 -1.8587  1.5322
  127OSM    C9F13617   4.512   2.288   7.581  0.1926  0.3649  0.5271
  127OSM    H9F13618   4.468   2.204   7.526  0.6988  1.1849 -1.2206
  127OSM   C10F13619   4.489   2.295   7.716 -0.1829  0.2468  0.0471
  127OSM   H10F13620   4.406   2.228   7.741  0.3853 -1.3948 -2.1478
  127OSM   C11F13621   4.550   2.394   7.817  0.0347 -0.0778  0.8543
  127OSM   H11F13622   4.572   2.488   7.762 -2.1219 -0.5628 -1.0217
  127OSM   H11G13623   4.651   2.362   7.848 -0.8525 -3.2223  0.8121
  127OSM   C12F13624   4.457   2.429   7.934  0.3839  0.8748 -0.9837
  127OSM   H12F13625   4.513   2.472   8.020 -0.0307 -0.0891 -0.2075
  127OSM   H12G13626   4.407   2.334   7.963  0.4254  1.1724  0.1276
  127OSM   C13F13627   4.348   2.528   7.891  0.5721  0.1651 -0.8463
  127OSM   H13F13628   4.327   2.497   7.786 -0.4662 -1.1146 -0.2920
  127OSM   H13G13629   4.407   2.622   7.890 -0.6358  1.0581  2.0007
  127OSM   C14F13630   4.219   2.534   7.975 -0.2412  0.6471  0.2110
  127OSM   H14F13631   4.163   2.441   7.954 -0.7316  1.2143 -1.0843
  127OSM   H14G13632   4.163   2.616   7.926 -1.5382 -0.2282  0.1787
  127OSM   C15F13633   4.235   2.562   8.123  0.0683  0.5893  0.1345
  127OSM   H15F13634   4.154   2.627   8.163  0.6356  1.2608  0.2164
  127OSM   H15G13635   4.334   2.608   8.142  1.5016 -0.2323 -4.2349
  127OSM   C16F13636   4.205   2.440   8.214  0.8271 -0.1624  0.9963
  127OSM   H16F13637   4.283   2.365   8.193  0.6523  0.0068 -0.3370
  127OSM   H16G13638   4.111   2.392   8.180  1.0099  1.3857 -2.0660
  127OSM   C17F13639   4.171   2.471   8.356  0.2090  0.3160 -0.5902
  127OSM   H17F13640   4.094   2.549   8.376 -0.1832  0.5313 -2.7525
  127OSM   H17G13641   4.269   2.511   8.392 -0.1412 -1.6338  3.0905
  127OSM   C18F13642   4.124   2.350   8.450 -0.4851 -0.4607  0.6174
  127OSM   H18F13643   4.043   2.298   8.395 -0.2866  0.3842 -0.5030
  127OSM   H18G13644   4.092   2.383   8.551 -0.9926  0.1165  0.2690
  127OSM   H18H13645   4.204   2.273   8.464 -0.8585 -1.0627 -0.4609
  128OSM      N13646   4.313   1.736   5.868  0.9962 -0.8437 -0.3723
  128OSM    C1513647   4.448   1.730   5.795 -0.0877  0.8991  0.1888
  128OSM   H15A13648   4.474   1.626   5.778  1.4841  1.2756  0.1645
  128OSM   H15B13649   4.527   1.771   5.855 -1.4448  1.3459  1.7298
  128OSM   H15C13650   4.449   1.780   5.699 -1.8315  0.8916  0.1365
  128OSM    C1413651   4.301   1.876   5.905 -0.2451 -0.2820 -0.2980
  128OSM   H14A13652   4.391   1.908   5.956  1.1586  0.6722 -3.1780
  128OSM   H14B13653   4.211   1.893   5.963 -0.1915  1.7703 -0.7160
  128OSM   H14C13654   4.301   1.945   5.822 -0.0620  2.6553  1.9928
  128OSM    C1313655   4.203   1.697   5.776 -0.0516  0.5339 -0.2389
  128OSM   H13A13656   4.221   1.593   5.754  2.6987  1.0962 -0.9406
  128OSM   H13B13657   4.210   1.752   5.683  0.3268  0.1882 -0.4173
  128OSM   H13C13658   4.109   1.721   5.825  0.9560  1.4121  1.3369
  128OSM    C1213659   4.318   1.647   5.986  0.5849  0.1457  0.2762
  128OSM   H12A13660   4.412   1.664   6.037  1.1003  2.0375 -1.1687
  128OSM   H12B13661   4.314   1.546   5.949 -1.1792 -0.2839  1.5144
  128OSM    C1113662   4.200   1.651   6.093  0.2306 -0.5595  0.3164
  128OSM   H11A13663   4.216   1.572   6.170 -2.0408 -1.3325  0.0910
  128OSM   H11B13664   4.110   1.610   6.042  0.7791 -3.3344  1.4045
  128OSM      P13665   4.041   1.833   6.203 -0.1882 -0.1081  0.2784
  128OSM    O1313666   4.052   1.942   6.304  0.1670 -0.3320 -0.2654
  128OSM    O1413667   3.967   1.867   6.080  0.5512 -0.5780  0.3006
  128OSM    O1113668   3.968   1.709   6.270 -0.3071  0.3250 -0.2144
  128OSM    O1213669   4.190   1.783   6.154  0.2668  0.5880 -0.1329
  128OSM    C1S13670   4.024   1.646   6.388 -0.4734  0.5550  0.1911
  128OSM    H1S13671   4.135   1.652   6.380 -0.2167 -2.4594  0.2707
  128OSM    H1T13672   3.995   1.539   6.375  1.4194  0.2128 -1.9391
  128OSM     NF13673   4.041   1.630   6.633 -0.2210 -0.2257 -0.2384
  128OSM    HNF13674   4.004   1.543   6.664  1.5185 -1.1643 -0.6642
  128OSM    C2S13675   3.972   1.702   6.526 -0.0019 -0.2186  0.0628
  128OSM    H2S13676   3.999   1.809   6.538 -0.0578 -0.2118  0.1262
  128OSM    C3S13677   3.818   1.693   6.526 -0.6779 -0.5162 -1.1753
  128OSM    H3S13678   3.786   1.586   6.523 -0.1752 -0.6972 -0.3627
  128OSM     O313679   3.748   1.738   6.417  0.1645  0.0582  0.3065
  128OSM    HO313680   3.812   1.754   6.347 -0.8309 -2.2108 -1.2327
  128OSM    C4S13681   3.769   1.768   6.648  0.2027 -0.0916  0.8010
  128OSM    H4S13682   3.758   1.698   6.733  2.5482 -2.2960 -0.5440
  128OSM    C5S13683   3.758   1.899   6.661  0.4240  0.2994  0.7844
  128OSM    H5S13684   3.787   1.968   6.580  0.0551  1.0156  1.2519
  128OSM    C6S13685   3.697   1.965   6.775  0.7232 -0.6611  0.1541
  128OSM    H6S13686   3.589   1.977   6.753  0.5015 -0.8626  1.0461
  128OSM    H6T13687   3.748   2.063   6.770  4.7531 -2.5765 -0.7391
  128OSM    C7S13688   3.717   1.914   6.919 -0.5271  0.1367 -0.0930
  128OSM    H7S13689   3.814   1.861   6.924 -1.4957 -1.8129 -0.9597
  128OSM    H7T13690   3.640   1.838   6.942 -2.0040  1.5289 -0.2485
  128OSM    C8S13691   3.716   2.012   7.041 -0.4116 -0.7541  0.8109
  128OSM    H8S13692   3.611   2.032   7.071 -0.6753  0.2891 -0.7069
  128OSM    H8T13693   3.750   2.112   7.008 -0.0894 -0.5341  1.7856
  128OSM    C9S13694   3.787   1.971   7.168  0.3626  1.0490 -0.3512
  128OSM    H9S13695   3.815   2.071   7.207 -3.0794  0.7788  3.4677
  128OSM    H9T13696   3.877   1.908   7.151 -0.0007  0.4855 -0.2094
  128OSM   C10S13697   3.698   1.902   7.265  0.0899 -0.0769 -0.5819
  128OSM   H10S13698   3.713   1.793   7.250  0.1449 -0.0939 -0.4080
  128OSM   H10T13699   3.588   1.916   7.258 -0.0555 -1.3237 -0.9834
  128OSM   C11S13700   3.730   1.949   7.408  0.4769  0.7327  0.0822
  128OSM   H11S13701   3.710   2.057   7.419  0.7834  0.6385  1.7374
  128OSM   H11T13702   3.837   1.924   7.423  0.4699 -1.0138 -2.2017
  128OSM   C12S13703   3.641   1.896   7.522  0.3482 -0.1039  0.1143
  128OSM   H12S13704   3.624   1.787   7.509  1.4735 -0.3983  0.9135
  128OSM   H12T13705   3.544   1.950   7.520  0.0105 -0.7107 -0.1100
  128OSM   C13S13706   3.711   1.913   7.657 -0.3893 -0.5205  0.1894
  128OSM   H13S13707   3.729   2.020   7.680  1.6580 -0.7985 -0.0087
  128OSM   H13T13708   3.806   1.856   7.653  0.5070  0.9788 -2.3548
  128OSM   C14S13709   3.623   1.851   7.766  0.2792  0.0614  0.6714
  128OSM   H14S13710   3.665   1.869   7.868  0.5394 -0.0716  0.5874
  128OSM   H14T13711   3.608   1.741   7.756  0.1450  0.2118 -0.8887
  128OSM   C15S13712   3.478   1.908   7.770  0.7375  0.9078 -0.2653
  128OSM   H15S13713   3.403   1.854   7.708  0.1006  2.5223 -0.9549
  128OSM   H15T13714   3.483   2.013   7.736  1.4581  0.9407 -0.0698
  128OSM   C16S13715   3.412   1.915   7.912 -0.2827 -0.7014  0.1796
  128OSM   H16S13716   3.416   1.812   7.954  0.8893 -0.8156 -0.1742
  128OSM   H16T13717   3.305   1.942   7.910 -0.3698 -0.4795  3.0996
  128OSM   C17S13718   3.485   2.023   8.001 -0.0179  0.4943  0.2532
  128OSM   H17S13719   3.595   2.016   7.991  0.0040 -0.4240  1.0084
  128OSM   H17T13720   3.450   2.011   8.105 -0.4792 -0.0821  0.0385
  128OSM   C18S13721   3.442   2.169   7.973  0.4253 -0.1468 -0.1965
  128OSM   H18S13722   3.496   2.247   8.030 -2.6225  0.6832  1.8034
  128OSM   H18T13723   3.337   2.174   8.009  1.0165 -0.8365  1.7703
  128OSM   H18U13724   3.463   2.190   7.866 -1.1435  1.4835 -0.2405
  128OSM    C1F13725   4.167   1.659   6.667 -0.1307  0.4101 -0.8413
  128OSM     OF13726   4.240   1.737   6.614 -0.2862 -0.0429 -0.0158
  128OSM    C2F13727   4.221   1.571   6.781 -0.1650  0.3965  0.3471
  128OSM    H2F13728   4.326   1.545   6.753 -0.6310 -1.9946  0.6087
  128OSM    H2G13729   4.166   1.478   6.804 -0.4771  0.5357  0.1657
  128OSM    C3F13730   4.229   1.659   6.909 -0.1176  0.4938  0.8745
  128OSM    H3F13731   4.256   1.764   6.884  0.0921  0.0154 -1.0789
  128OSM    H3G13732   4.315   1.623   6.970 -0.1386  0.2581  0.7628
  128OSM    C4F13733   4.104   1.644   6.989  0.6988 -0.8002  0.1537
  128OSM    H4F13734   4.072   1.540   7.007 -0.5330 -0.1393  2.1206
  128OSM    H4G13735   4.019   1.689   6.933  0.7078 -0.8412  0.1074
  128OSM    C5F13736   4.110   1.714   7.124  0.2679 -0.4099 -0.4113
  128OSM    H5F13737   4.095   1.824   7.122 -0.9193 -0.5731 -1.3494
  128OSM    H5G13738   4.214   1.688   7.154 -0.3002 -1.3090  0.8974
  128OSM    C6F13739   4.016   1.643   7.220 -0.1951 -0.1270  0.0213
  128OSM    H6F13740   4.038   1.534   7.224  1.2121  0.1549  2.0025
  128OSM    H6G13741   3.911   1.656   7.188  0.0224 -3.3155 -2.4976
  128OSM    C7F13742   4.029   1.693   7.370 -0.1511  0.1008  0.1857
  128OSM    H7F13743   4.030   1.804   7.376 -1.8624  0.1548 -0.1825
  128OSM    H7G13744   4.124   1.648   7.406 -0.3109 -1.1292 -0.8677
  128OSM    C8F13745   3.916   1.645   7.460  0.4567 -0.0043 -0.0966
  128OSM    H8F13746   3.817   1.669   7.415 -0.1112 -4.3788 -1.6203
  128OSM    H8G13747   3.932   1.690   7.560 -2.0131  1.4556 -0.2628
  128OSM    C9F13748   3.932   1.493   7.477 -0.2394  0.7830  0.7950
  128OSM    H9F13749   4.002   1.464   7.396  0.6948  3.4097  0.5820
  128OSM   C10F13750   3.871   1.399   7.559 -0.0431 -0.1867  0.2993
  128OSM   H10F13751   3.905   1.295   7.567 -2.1973 -0.8194  2.3179
  128OSM   C11F13752   3.768   1.431   7.661 -0.4575  0.9056 -0.3554
  128OSM   H11F13753   3.676   1.371   7.645 -0.3422 -0.8673  4.0772
  128OSM   H11G13754   3.737   1.537   7.663  0.8389  1.3185  1.6741
  128OSM   C12F13755   3.831   1.394   7.795  0.3754 -0.2797 -0.5450
  128OSM   H12F13756   3.906   1.467   7.831 -0.4884  0.8128 -0.9120
  128OSM   H12G13757   3.871   1.290   7.803  0.4155 -0.1380  1.8734
  128OSM   C13F13758   3.722   1.400   7.905  0.8469  0.5943 -0.3750
  128OSM   H13F13759   3.648   1.319   7.887  0.1807  1.3426 -1.0933
  128OSM   H13G13760   3.670   1.498   7.895  1.3658  0.8353 -0.7829
  128OSM   C14F13761   3.783   1.379   8.045  0.4249 -0.2517  0.3507
  128OSM   H14F13762   3.841   1.285   8.043  1.2025  0.2220  0.0267
  128OSM   H14G13763   3.698   1.360   8.115  1.2720 -1.9735  0.9655
  128OSM   C15F13764   3.850   1.506   8.092 -1.4961  0.0719  0.0524
  128OSM   H15F13765   3.800   1.597   8.052 -0.8306  1.1937  1.6687
  128OSM   H15G13766   3.953   1.516   8.053 -0.8577 -0.8159  1.4464
  128OSM   C16F13767   3.854   1.522   8.248 -0.2154 -0.3127 -0.3178
  128OSM   H16F13768   3.911   1.439   8.294  0.1505  0.3842  0.5190
  128OSM   H16G13769   3.754   1.532   8.294 -0.6712  0.9895 -1.4998
  128OSM   C17F13770   3.922   1.661   8.274 -0.0492  0.2879 -0.1211
  128OSM   H17F13771   3.904   1.736   8.194  1.4073 -1.6249 -2.4083
  128OSM   H17G13772   4.033   1.648   8.268  0.5421  4.1372 -0.0865
  128OSM   C18F13773   3.884   1.720   8.412 -0.3940  0.2778 -0.1331
  128OSM   H18F13774   3.968   1.686   8.476 -1.2972 -2.3401 -0.2451
  128OSM   H18G13775   3.792   1.682   8.462 -0.4716 -0.0319 -0.5140
  128OSM   H18H13776   3.887   1.831   8.416 -0.8180  0.2634  0.9455
  129OSM      N13777   1.012   5.888   5.571  0.4772  0.0558  0.3581
  129OSM    C1513778   1.044   6.001   5.472 -0.5307 -0.3694  0.0349
  129OSM   H15A13779   1.027   5.975   5.369 -1.2992  2.4517 -0.6457
  129OSM   H15B13780   1.145   6.036   5.490 -0.8902  1.8373 -1.7487
  129OSM   H15C13781   0.976   6.084   5.485  0.0956  0.2423 -0.4767
  129OSM    C1413782   0.868   5.841   5.530  0.1482 -0.9784  0.1452
  129OSM   H14A13783   0.830   5.764   5.595 -2.8658  0.0818 -0.1999
  129OSM   H14B13784   0.865   5.798   5.431  0.6754  2.0366 -1.3062
  129OSM   H14C13785   0.806   5.929   5.536  1.5731  0.0797 -0.2593
  129OSM    C1313786   1.114   5.784   5.545  0.2027  0.2843  0.2726
  129OSM   H13A13787   1.094   5.731   5.453 -1.3889  2.5889 -0.8230
  129OSM   H13B13788   1.108   5.711   5.624  1.3780  0.4226  0.5045
  129OSM   H13C13789   1.213   5.827   5.542 -0.1842  1.6345  3.2579
  129OSM    C1213790   1.025   5.921   5.720  0.3020 -0.8135 -0.0025
  129OSM   H12A13791   0.962   6.001   5.753  1.0751 -0.7198  1.2941
  129OSM   H12B13792   1.126   5.953   5.739 -0.0984  1.2682 -1.0564
  129OSM    C1113793   0.994   5.803   5.821 -0.3015  0.4546 -0.1549
  129OSM   H11A13794   1.011   5.846   5.923  0.2226 -0.0828 -0.0158
  129OSM   H11B13795   1.072   5.727   5.802 -0.8652  0.5447 -3.2051
  129OSM      P13796   0.737   5.798   5.870  0.5508 -0.0910 -0.1217
  129OSM    O1313797   0.700   5.920   5.794  0.3892  0.3348  0.3363
  129OSM    O1413798   0.644   5.689   5.865  0.0804  0.1857  0.0917
  129OSM    O1113799   0.765   5.829   6.025 -0.2592  0.3535 -0.1629
  129OSM    O1213800   0.867   5.740   5.807 -0.2769 -0.1852  0.0423
  129OSM    C1S13801   0.832   5.722   6.097  0.8873 -0.4535  0.6753
  129OSM    H1S13802   0.936   5.702   6.063  0.5467 -0.4979 -0.3859
  129OSM    H1T13803   0.772   5.629   6.090  0.4645 -0.1454  0.1386
  129OSM     NF13804   0.925   5.661   6.312  0.5451  0.0567 -0.0214
  129OSM    HNF13805   0.884   5.585   6.362  0.1996 -0.5621 -1.2013
  129OSM    C2S13806   0.831   5.747   6.244  0.5667  0.1808 -1.2902
  129OSM    H2S13807   0.877   5.847   6.260 -0.5904  1.2017 -3.8104
  129OSM    C3S13808   0.683   5.732   6.300 -0.1308  0.7908 -0.2278
  129OSM    H3S13809   0.640   5.634   6.269 -2.1988  0.8039  2.2286
  129OSM     O313810   0.601   5.826   6.234  0.0890  1.2264  0.6529
  129OSM    HO313811   0.654   5.833   6.155 -0.1093 -4.6480 -0.4165
  129OSM    C4S13812   0.669   5.761   6.441 -0.7049 -0.0784 -0.2740
  129OSM    H4S13813   0.641   5.866   6.456  1.2834  0.5842 -0.8862
  129OSM    C5S13814   0.684   5.687   6.549  0.1891 -0.6306 -0.7642
  129OSM    H5S13815   0.690   5.577   6.556  0.7796 -0.5161  1.1756
  129OSM    C6S13816   0.663   5.750   6.686 -0.1775  0.0212 -0.2292
  129OSM    H6S13817   0.753   5.809   6.713 -0.6490 -0.1736  1.9969
  129OSM    H6T13818   0.658   5.672   6.765  1.1191  1.3717  1.2427
  129OSM    C7S13819   0.536   5.835   6.688 -0.0125 -0.4014 -0.0624
  129OSM    H7S13820   0.443   5.776   6.671 -0.0655 -0.1928 -0.5236
  129OSM    H7T13821   0.536   5.923   6.620  1.1149 -0.6257 -0.3797
  129OSM    C8S13822   0.521   5.899   6.831  0.4615 -0.4817  0.2116
  129OSM    H8S13823   0.442   5.976   6.824  0.7550 -0.1053  0.8372
  129OSM    H8T13824   0.619   5.947   6.854  0.7074 -0.4321 -0.8891
  129OSM    C9S13825   0.477   5.803   6.947  0.3896 -0.3187  0.3224
  129OSM    H9S13826   0.563   5.743   6.983  0.0239  0.1245  2.0358
  129OSM    H9T13827   0.396   5.732   6.922  1.6099 -1.6391 -0.0125
  129OSM   C10S13828   0.422   5.876   7.068  0.0575  0.8354  0.7463
  129OSM   H10S13829   0.320   5.915   7.044 -0.2140 -0.6912 -0.8070
  129OSM   H10T13830   0.491   5.960   7.091 -0.8710  1.3946  1.5931
  129OSM   C11S13831   0.406   5.782   7.194 -0.0309  0.2568  0.1730
  129OSM   H11S13832   0.509   5.769   7.235  0.4087 -1.5395 -1.3904
  129OSM   H11T13833   0.374   5.678   7.177  0.6035  0.1769 -0.5718
  129OSM   C12S13834   0.323   5.837   7.302 -0.9092  0.3206 -0.0483
  129OSM   H12S13835   0.222   5.850   7.257 -1.7576 -1.9865  1.0137
  129OSM   H12T13836   0.365   5.937   7.326  0.9515 -0.5651  0.5399
  129OSM   C13S13837   0.296   5.750   7.426 -0.7866  0.3083 -0.3772
  129OSM   H13S13838   0.386   5.709   7.476 -0.6252 -0.0403 -0.9475
  129OSM   H13T13839   0.242   5.663   7.383  0.1083  1.1141 -3.3638
  129OSM   C14S13840   0.206   5.829   7.520 -0.6227  0.8644 -0.3689
  129OSM   H14S13841   0.117   5.855   7.457  0.1570  3.1090 -0.6318
  129OSM   H14T13842   0.244   5.934   7.520  0.6264  0.4952 -2.7944
  129OSM   C15S13843   0.159   5.788   7.660 -0.7059  0.6432  0.5096
  129OSM   H15S13844   0.120   5.686   7.638 -1.2490  1.3088 -1.9162
  129OSM   H15T13845   0.080   5.851   7.704 -0.6775  1.0158  0.0340
  129OSM   C16S13846   0.282   5.784   7.758  0.0718  0.0082 -0.3101
  129OSM   H16S13847   0.357   5.721   7.705 -0.6433 -1.2025  0.0617
  129OSM   H16T13848   0.267   5.718   7.846  2.5808  1.3772  1.2642
  129OSM   C17S13849   0.342   5.914   7.821  0.2078  0.5334  0.1831
  129OSM   H17S13850   0.260   5.954   7.884  1.4247 -1.0147  2.9219
  129OSM   H17T13851   0.367   5.980   7.735 -4.0763  0.2471 -1.5212
  129OSM   C18S13852   0.456   5.888   7.921 -0.3941  0.3895  0.5170
  129OSM   H18S13853   0.523   5.977   7.931 -0.5481  0.5333  0.2669
  129OSM   H18T13854   0.518   5.802   7.887  0.1881  1.1615 -0.4257
  129OSM   H18U13855   0.426   5.854   8.022  0.8056 -0.6927  0.5344
  129OSM    C1F13856   1.057   5.651   6.291 -0.2443 -0.0830  0.5860
  129OSM     OF13857   1.125   5.735   6.229 -0.0633 -0.1520  0.1581
  129OSM    C2F13858   1.122   5.523   6.338  0.6944  0.1829  0.0933
  129OSM    H2F13859   1.102   5.446   6.259  1.7338 -0.1070  0.1010
  129OSM    H2G13860   1.067   5.486   6.428  0.8283 -1.0284 -0.2961
  129OSM    C3F13861   1.273   5.518   6.375 -0.7555  0.4868  0.1268
  129OSM    H3F13862   1.310   5.605   6.434  0.5882 -1.2282  1.9094
  129OSM    H3G13863   1.337   5.520   6.283  0.1362 -1.7797  0.6440
  129OSM    C4F13864   1.323   5.392   6.441 -0.4899  0.1103 -0.1230
  129OSM    H4F13865   1.433   5.394   6.428 -0.3518  0.9563  1.0362
  129OSM    H4G13866   1.286   5.299   6.394 -0.1310  0.3719 -0.9472
  129OSM    C5F13867   1.284   5.398   6.588 -0.1906 -0.0450 -0.2054
  129OSM    H5F13868   1.174   5.390   6.594 -0.2800  0.3636 -1.0678
  129OSM    H5G13869   1.297   5.500   6.630  1.7480 -1.3396  2.6449
  129OSM    C6F13870   1.355   5.288   6.669 -0.4487 -0.4962  0.3167
  129OSM    H6F13871   1.464   5.285   6.650 -0.2386  1.6303  0.9454
  129OSM    H6G13872   1.306   5.189   6.657 -1.3089  0.1130 -1.5387
  129OSM    C7F13873   1.354   5.314   6.820  0.7087  0.0253  0.2365
  129OSM    H7F13874   1.250   5.348   6.839  0.3002 -0.3204 -1.2576
  129OSM    H7G13875   1.418   5.400   6.850 -0.7408  1.0523  0.4954
  129OSM    C8F13876   1.363   5.189   6.908  0.4133 -0.2591  0.1066
  129OSM    H8F13877   1.287   5.116   6.874  0.7236 -0.1788 -0.7976
  129OSM    H8G13878   1.360   5.224   7.013 -2.5255 -1.3884  0.4938
  129OSM    C9F13879   1.500   5.137   6.867  0.3709 -0.2362  0.1914
  129OSM    H9F13880   1.571   5.221   6.857  0.7137 -0.7433 -2.3289
  129OSM   C10F13881   1.533   5.008   6.839 -0.1418  0.4964 -0.1442
  129OSM   H10F13882   1.641   4.996   6.821 -0.1561  0.1903 -0.0359
  129OSM   C11F13883   1.454   4.881   6.833 -0.1831  0.0141 -0.6555
  129OSM   H11F13884   1.483   4.822   6.743 -0.0112  0.7833 -1.1118
  129OSM   H11G13885   1.344   4.889   6.831 -0.3149 -1.5228 -1.6050
  129OSM   C12F13886   1.504   4.801   6.955 -0.2121 -0.5074  0.1223
  129OSM   H12F13887   1.614   4.782   6.957 -0.0767  0.2535  1.9540
  129OSM   H12G13888   1.456   4.703   6.935 -1.6093  0.3040 -0.6541
  129OSM   C13F13889   1.470   4.838   7.104  0.0827 -0.0781  0.4022
  129OSM   H13F13890   1.360   4.839   7.120  0.1877 -0.9219  1.2435
  129OSM   H13G13891   1.508   4.942   7.119  0.0705  0.3508 -2.1918
  129OSM   C14F13892   1.535   4.738   7.207 -0.7597 -0.2425 -0.2930
  129OSM   H14F13893   1.645   4.750   7.202 -0.7128 -0.5565 -0.0278
  129OSM   H14G13894   1.509   4.636   7.169 -0.0936  0.3096 -2.3951
  129OSM   C15F13895   1.488   4.757   7.350  0.0433  0.0811  0.2198
  129OSM   H15F13896   1.556   4.713   7.426  0.4631  0.2006 -0.0834
  129OSM   H15G13897   1.382   4.726   7.360 -0.0073  0.5988  1.4939
  129OSM   C16F13898   1.482   4.906   7.381  1.2394  0.3770 -0.2029
  129OSM   H16F13899   1.420   4.964   7.308 -1.5343 -0.7527  1.1291
  129OSM   H16G13900   1.587   4.937   7.364  1.2446  1.1729  1.2029
  129OSM   C17F13901   1.440   4.933   7.526  0.5530  0.5246  0.3271
  129OSM   H17F13902   1.445   5.041   7.553 -2.4745  0.5539  1.0913
  129OSM   H17G13903   1.510   4.889   7.600 -2.2741  1.9187  4.1223
  129OSM   C18F13904   1.298   4.885   7.556  0.0499 -0.2127 -0.3098
  129OSM   H18F13905   1.276   4.917   7.660  2.7185  2.7162 -0.5050
  129OSM   H18G13906   1.284   4.775   7.554  0.1017 -0.2745  1.2906
  129OSM   H18H13907   1.233   4.926   7.476 -0.3074 -0.6878 -0.2698
  130OSM      N13908   4.132   0.529   5.836 -0.3241  0.0805  0.1023
  130OSM    C1513909   3.991   0.520   5.790  0.2509  0.2794  0.3552
  130OSM   H15A13910   3.944   0.616   5.782 -0.6113 -0.0528  1.2909
  130OSM   H15B13911   3.932   0.475   5.868 -0.9211  1.1645  0.0018
  130OSM   H15C13912   3.982   0.465   5.697 -2.2288 -0.2231  0.8453
  130OSM    C1413913   4.195   0.395   5.805  0.3338  0.2209 -0.3971
  130OSM   H14A13914   4.210   0.387   5.698 -1.9232  2.7187 -1.0106
  130OSM   H14B13915   4.134   0.309   5.830  2.4769 -0.2786  4.2906
  130OSM   H14C13916   4.291   0.386   5.854 -0.0080  1.9109  0.6214
  130OSM    C1313917   4.211   0.622   5.748 -1.2953  0.1768  0.1579
  130OSM   H13A13918   4.215   0.580   5.648  2.1274  0.7168 -0.0567
  130OSM   H13B13919   4.315   0.637   5.776 -0.4865 -3.0434 -0.7182
  130OSM   H13C13920   4.162   0.718   5.742 -1.4932  0.0211 -5.0930
  130OSM    C1213921   4.151   0.575   5.981 -0.2196  0.6173 -0.0216
  130OSM   H12A13922   4.117   0.676   5.999 -1.0073  0.5183 -0.8788
  130OSM   H12B13923   4.255   0.560   6.006 -0.5807  0.6468  1.5959
  130OSM    C1113924   4.056   0.507   6.090 -0.4590  0.2042 -0.0272
  130OSM   H11A13925   4.089   0.533   6.193 -1.5011 -1.4046  0.7514
  130OSM   H11B13926   4.072   0.398   6.074 -0.2800 -0.2253  2.5376
  130OSM      P13927   3.855   0.663   6.116 -0.0540 -0.3252  0.1763
  130OSM    O1313928   3.916   0.784   6.051 -0.3373 -0.0361 -0.4425
  130OSM    O1413929   3.710   0.655   6.115 -0.0868  0.5368  0.0143
  130OSM    O1113930   3.902   0.655   6.265  0.1153 -0.3648  0.4558
  130OSM    O1213931   3.917   0.529   6.065  0.1940 -0.1669  0.3833
  130OSM    C1S13932   3.856   0.549   6.348 -0.7033 -0.4014  0.0738
  130OSM    H1S13933   3.937   0.473   6.358 -1.3759 -1.8455 -3.6422
  130OSM    H1T13934   3.770   0.492   6.306 -0.4373 -0.8181  0.0849
  130OSM     NF13935   3.772   0.484   6.555  0.2285  0.3788  0.0294
  130OSM    HNF13936   3.676   0.457   6.549 -0.8400  2.7895  3.0394
  130OSM    C2S13937   3.809   0.599   6.485  0.3538 -0.0880  0.6234
  130OSM    H2S13938   3.892   0.651   6.537  0.2816  0.2162  0.4390
  130OSM    C3S13939   3.702   0.708   6.465 -0.0764 -0.1231  0.8012
  130OSM    H3S13940   3.611   0.679   6.407 -0.6644  0.8944  1.1990
  130OSM     O313941   3.757   0.832   6.421 -0.1591  0.1619 -0.1081
  130OSM    HO313942   3.845   0.812   6.388 -0.6870 -1.2995 -0.7283
  130OSM    C4S13943   3.630   0.718   6.601  0.1800  1.0803 -0.4652
  130OSM    H4S13944   3.542   0.653   6.589  1.7008 -1.1780  0.0206
  130OSM    C5S13945   3.664   0.785   6.713  0.2228  0.5228 -0.1810
  130OSM    H5S13946   3.754   0.849   6.713 -0.2378  1.2445 -2.4172
  130OSM    C6S13947   3.590   0.776   6.846 -0.3313 -0.6722 -0.2238
  130OSM    H6S13948   3.644   0.727   6.929 -1.0061 -0.5935  0.2668
  130OSM    H6T13949   3.496   0.720   6.825 -0.5126 -0.4049 -0.1437
  130OSM    C7S13950   3.538   0.917   6.893  0.1817  0.1125 -1.0264
  130OSM    H7S13951   3.489   0.960   6.803 -1.0027 -0.7901 -0.8247
  130OSM    H7T13952   3.622   0.983   6.924 -0.7567  0.9134 -0.1405
  130OSM    C8S13953   3.435   0.912   7.009 -0.7686  0.4345 -0.1174
  130OSM    H8S13954   3.352   0.842   6.982 -1.4737  1.0212  0.4780
  130OSM    H8T13955   3.383   1.009   7.025  0.8692  1.7958 -2.4509
  130OSM    C9S13956   3.488   0.863   7.147  0.0940  0.4414 -0.2796
  130OSM    H9S13957   3.563   0.784   7.125 -0.8196 -0.1026 -1.5888
  130OSM    H9T13958   3.413   0.824   7.220  0.4968 -1.2717 -0.7451
  130OSM   C10S13959   3.552   0.977   7.235 -0.3412 -0.1373  0.7995
  130OSM   H10S13960   3.486   1.067   7.231  0.9369  0.7976 -0.4429
  130OSM   H10T13961   3.651   0.989   7.187 -1.2718  0.0792 -1.2050
  130OSM   C11S13962   3.564   0.938   7.385  0.4339  0.0251 -0.2789
  130OSM   H11S13963   3.657   0.979   7.430  0.0797  1.3395 -0.7119
  130OSM   H11T13964   3.563   0.830   7.410  1.5123  0.1112  0.1816
  130OSM   C12S13965   3.456   1.004   7.474 -0.9134 -0.2850  0.0659
  130OSM   H12S13966   3.354   0.972   7.442 -0.0985 -2.5864 -0.4872
  130OSM   H12T13967   3.459   1.114   7.462 -1.0776 -0.2333  0.4912
  130OSM   C13S13968   3.462   0.969   7.621 -0.3490 -0.0345 -0.2257
  130OSM   H13S13969   3.569   0.973   7.650 -0.2223  1.2939 -0.7948
  130OSM   H13T13970   3.439   0.860   7.625 -1.5201  0.1457  4.8230
  130OSM   C14S13971   3.370   1.043   7.722 -0.4931 -0.3128  0.3772
  130OSM   H14S13972   3.265   1.040   7.685 -0.3528 -0.5664 -0.0126
  130OSM   H14T13973   3.395   1.149   7.742 -0.5090  0.3055 -2.4324
  130OSM   C15S13974   3.375   0.970   7.854  0.4845  0.0949 -0.1950
  130OSM   H15S13975   3.480   0.936   7.856  0.3321 -0.3342  1.3454
  130OSM   H15T13976   3.318   0.874   7.856 -0.1028  0.2497 -3.4827
  130OSM   C16S13977   3.343   1.065   7.978  0.6832 -1.1977 -0.4981
  130OSM   H16S13978   3.235   1.092   7.970  1.1768  0.8555 -0.7237
  130OSM   H16T13979   3.402   1.159   7.973 -1.8251  0.5693  0.7092
  130OSM   C17S13980   3.362   0.992   8.113 -0.7320  0.8971  0.2671
  130OSM   H17S13981   3.466   0.954   8.130 -0.9813 -0.1546 -0.4606
  130OSM   H17T13982   3.286   0.911   8.105 -0.0998  0.4396 -1.9232
  130OSM   C18S13983   3.333   1.080   8.242 -0.5372  0.2948  0.1394
  130OSM   H18S13984   3.352   1.019   8.332 -2.4833 -2.3746 -1.1379
  130OSM   H18T13985   3.230   1.120   8.252 -0.6588 -0.1668  0.7580
  130OSM   H18U13986   3.407   1.164   8.241  1.4132 -1.3336 -0.7172
  130OSM    C1F13987   3.862   0.409   6.618 -0.1224  0.2091  0.5529
  130OSM     OF13988   3.978   0.442   6.621  0.1013 -0.2829  0.2454
  130OSM    C2F13989   3.809   0.284   6.672  0.4798 -0.3815  0.0748
  130OSM    H2F13990   3.851   0.196   6.619  1.0815 -1.4846  2.2630
  130OSM    H2G13991   3.699   0.275   6.667  0.6878 -3.9982 -1.1027
  130OSM    C3F13992   3.849   0.260   6.825 -0.3519  0.2880 -0.1948
  130OSM    H3F13993   3.792   0.330   6.890  1.1751  1.4762 -0.0678
  130OSM    H3G13994   3.953   0.291   6.846 -0.6012 -0.7241  3.1148
  130OSM    C4F13995   3.839   0.116   6.862  0.8470  0.1889  0.0670
  130OSM    H4F13996   3.895   0.054   6.788  1.3373 -1.1221  1.4763
  130OSM    H4G13997   3.733   0.083   6.868  1.1853 -0.9229  0.2827
  130OSM    C5F13998   3.897   0.082   6.995 -0.0707 -0.4979 -0.6220
  130OSM    H5F13999   3.996   0.133   7.003 -1.3731  2.0029  0.5588
  130OSM    H5G14000   3.902  -0.029   7.004  1.2438 -0.3501  0.8184
  130OSM    C6F14001   3.825   0.129   7.120  0.1763  0.1367  0.7194
  130OSM    H6F14002   3.732   0.071   7.140 -1.2875  1.5105 -1.6227
  130OSM    H6G14003   3.794   0.236   7.113  1.3025  0.3660 -1.9014
  130OSM    C7F14004   3.913   0.106   7.238 -0.4826  0.7141 -0.3152
  130OSM    H7F14005   3.981   0.194   7.245  0.6014 -0.1951  1.0647
  130OSM    H7G14006   3.972   0.013   7.224  2.1830  2.1507  0.6164
  130OSM    C8F14007   3.836   0.104   7.372  0.8133 -0.0500 -0.9404
  130OSM    H8F14008   3.752   0.034   7.355 -0.2335  0.9984 -0.2211
  130OSM    H8G14009   3.811   0.211   7.385  1.3427 -0.0002 -0.2398
  130OSM    C9F14010   3.914   0.069   7.498  0.6644 -0.3813  0.5581
  130OSM    H9F14011   3.990  -0.010   7.491  0.9453 -0.1745  1.1515
  130OSM   C10F14012   3.891   0.128   7.617 -0.2976 -0.6665 -0.3279
  130OSM   H10F14013   3.946   0.091   7.705  0.3306 -0.4214 -0.6100
  130OSM   C11F14014   3.792   0.242   7.655  0.6366 -0.4781 -0.8977
  130OSM   H11F14015   3.715   0.212   7.730  2.0664 -2.6126 -0.1779
  130OSM   H11G14016   3.737   0.279   7.566 -0.0471 -0.3160 -0.4132
  130OSM   C12F14017   3.856   0.364   7.712 -0.0611 -0.3026  0.0120
  130OSM   H12F14018   3.788   0.451   7.703  1.3616  0.8702  0.3211
  130OSM   H12G14019   3.942   0.399   7.651 -0.5591  0.1938 -0.4134
  130OSM   C13F14020   3.892   0.350   7.863 -0.2212 -0.3849 -0.1255
  130OSM   H13F14021   3.959   0.432   7.896 -0.1781 -0.6854  0.5704
  130OSM   H13G14022   3.947   0.255   7.879 -1.1709 -0.5769  2.6229
  130OSM   C14F14023   3.767   0.345   7.946  0.3218 -0.3239 -0.3619
  130OSM   H14F14024   3.715   0.248   7.933  0.6859 -0.6860  0.6990
  130OSM   H14G14025   3.697   0.418   7.902  1.8842  1.1823 -0.4461
  130OSM   C15F14026   3.803   0.372   8.091  0.2523 -0.0014 -0.5286
  130OSM   H15F14027   3.864   0.464   8.099 -0.8863  0.7961 -0.6835
  130OSM   H15G14028   3.863   0.287   8.131  0.7015  0.8350  0.6147
  130OSM   C16F14029   3.683   0.394   8.180  0.1995 -0.4594 -0.6644
  130OSM   H16F14030   3.615   0.308   8.161 -1.5513  0.8565 -0.5679
  130OSM   H16G14031   3.635   0.491   8.156  0.0824  0.4659  2.7742
  130OSM   C17F14032   3.715   0.403   8.328  0.7694  0.7787 -1.1195
  130OSM   H17F14033   3.783   0.488   8.346  1.6543  0.2243 -1.7410
  130OSM   H17G14034   3.772   0.312   8.356 -1.0225 -0.4084 -1.1421
  130OSM   C18F14035   3.585   0.400   8.406 -0.2003  0.0025  0.3255
  130OSM   H18F14036   3.507   0.333   8.364 -0.5890  0.7331 -0.1429
  130OSM   H18G14037   3.545   0.503   8.412  2.6610  1.1890  0.4550
  130OSM   H18H14038   3.610   0.377   8.512  1.4943 -1.4554 -0.3371
  131OSM      N14039   0.657   4.382   6.056  0.0922  0.2622 -0.2756
  131OSM    C1514040   0.800   4.343   6.048 -0.7598  0.3623  0.1861
  131OSM   H15A14041   0.832   4.329   5.946  0.0703 -0.1986  0.5207
  131OSM   H15B14042   0.812   4.248   6.098 -2.6748 -0.2949 -0.5089
  131OSM   H15C14043   0.861   4.419   6.094  1.4684 -0.4523 -1.2568
  131OSM    C1414044   0.571   4.271   6.012 -0.1913 -0.1860 -0.4441
  131OSM   H14A14045   0.573   4.263   5.905  0.5026 -1.5838 -0.3519
  131OSM   H14B14046   0.466   4.287   6.030 -1.0818 -2.1615 -3.3606
  131OSM   H14C14047   0.596   4.181   6.067 -1.9415 -0.3383  0.1530
  131OSM    C1314048   0.614   4.411   6.201 -0.0637 -0.3172  0.5470
  131OSM   H13A14049   0.636   4.332   6.270  1.9094  1.0686  1.5959
  131OSM   H13B14050   0.509   4.434   6.192  0.1726  0.7587  0.3093
  131OSM   H13C14051   0.658   4.503   6.237 -1.1481 -0.2280  1.7303
  131OSM    C1214052   0.636   4.502   5.963  0.0150  0.3048  0.0707
  131OSM   H12A14053   0.687   4.472   5.873  0.2506 -0.8996  0.5843
  131OSM   H12B14054   0.689   4.585   6.007 -0.8439  0.9623 -0.1183
  131OSM    C1114055   0.493   4.547   5.938  0.9553  0.2669  0.0217
  131OSM   H11A14056   0.428   4.457   5.937  2.0638 -0.6138  1.8622
  131OSM   H11B14057   0.497   4.581   5.832  1.6529  0.7948  0.2162
  131OSM      P14058   0.523   4.785   6.021 -0.2593 -0.5162 -0.2823
  131OSM    O1314059   0.655   4.780   6.077 -0.7487 -0.1017  0.3140
  131OSM    O1414060   0.495   4.842   5.893  0.4704  0.2446 -0.0876
  131OSM    O1114061   0.436   4.867   6.124  0.2665 -0.1245 -0.0240
  131OSM    O1214062   0.450   4.642   6.036 -0.2491  0.6384  0.3209
  131OSM    C1S14063   0.418   4.819   6.264  0.5968  0.5508  0.0859
  131OSM    H1S14064   0.448   4.713   6.280 -1.7545 -0.1400  0.3487
  131OSM    H1T14065   0.311   4.822   6.296  0.8981 -1.1587  1.4015
  131OSM     NF14066   0.459   4.856   6.497  0.3651 -0.2157 -0.3427
  131OSM    HNF14067   0.381   4.897   6.544 -1.1227 -1.3095 -1.7464
  131OSM    C2S14068   0.492   4.903   6.366  0.1674 -0.4035 -0.5554
  131OSM    H2S14069   0.603   4.902   6.356  0.0088 -0.1963 -2.7959
  131OSM    C3S14070   0.461   5.052   6.358  0.7044 -0.0041  0.8085
  131OSM    H3S14071   0.353   5.074   6.373  0.8805  1.2694  0.3003
  131OSM     O314072   0.481   5.112   6.224  0.3086 -0.5184 -0.4488
  131OSM    HO314073   0.493   5.041   6.161  1.7272 -1.5282  0.8739
  131OSM    C4S14074   0.533   5.120   6.465 -0.2383  0.0720  0.5957
  131OSM    H4S14075   0.642   5.112   6.460 -0.1604  0.4868  1.4428
  131OSM    C5S14076   0.475   5.199   6.567  0.6165  0.8297  0.2018
  131OSM    H5S14077   0.366   5.195   6.582  0.8279 -1.6900  1.5700
  131OSM    C6S14078   0.557   5.262   6.674  0.1043  0.4608 -0.2467
  131OSM    H6S14079   0.500   5.351   6.710  1.3877  0.3732  2.2653
  131OSM    H6T14080   0.657   5.290   6.634  2.4873 -3.6086  2.1607
  131OSM    C7S14081   0.561   5.157   6.782  0.0914 -0.3125  0.7822
  131OSM    H7S14082   0.637   5.191   6.855 -0.3119  1.9627  0.2159
  131OSM    H7T14083   0.582   5.059   6.735 -0.0730  0.6378 -1.4293
  131OSM    C8S14084   0.434   5.132   6.868 -0.4085  0.6049 -0.0649
  131OSM    H8S14085   0.370   5.052   6.825  0.8976 -0.9000  0.6664
  131OSM    H8T14086   0.376   5.226   6.877 -1.7730 -0.1128 -1.0732
  131OSM    C9S14087   0.469   5.077   7.004  0.1958 -0.8102 -0.4709
  131OSM    H9S14088   0.571   5.118   7.024  1.1652 -2.7783 -1.0815
  131OSM    H9T14089   0.459   4.966   7.003  0.8521 -0.8751 -0.7443
  131OSM   C10S14090   0.376   5.146   7.105 -0.5904  0.1565 -0.3509
  131OSM   H10S14091   0.275   5.101   7.107 -1.8308  2.6693 -1.0603
  131OSM   H10T14092   0.358   5.256   7.096 -2.3081 -0.1462 -0.9445
  131OSM   C11S14093   0.440   5.124   7.247  0.2305 -0.3627 -0.2977
  131OSM   H11S14094   0.388   5.190   7.320  1.6844  1.1009 -0.5403
  131OSM   H11T14095   0.546   5.156   7.243  0.4815 -0.9852  0.9577
  131OSM   C12S14096   0.439   4.989   7.311  0.0866 -0.2367  0.6099
  131OSM   H12S14097   0.490   4.919   7.241 -0.2404 -0.0726  0.1978
  131OSM   H12T14098   0.334   4.952   7.299 -1.0304  2.0892  2.3585
  131OSM   C13S14099   0.478   4.985   7.456 -0.6565 -0.9657  0.5566
  131OSM   H13S14100   0.392   5.030   7.510 -1.9647 -0.2752 -1.9505
  131OSM   H13T14101   0.564   5.055   7.471 -1.7763  0.3277  1.1094
  131OSM   C14S14102   0.504   4.838   7.508 -0.7054 -1.2570  0.1579
  131OSM   H14S14103   0.586   4.808   7.440 -2.1823  1.2188 -2.9776
  131OSM   H14T14104   0.419   4.769   7.491  0.1506 -2.1712 -0.4888
  131OSM   C15S14105   0.546   4.832   7.653  0.9916  0.2737  0.3204
  131OSM   H15S14106   0.466   4.873   7.719 -1.1009 -0.3297 -1.7210
  131OSM   H15T14107   0.637   4.889   7.683  1.9330 -0.0711 -1.7634
  131OSM   C16S14108   0.576   4.687   7.691  0.6423 -0.5227 -0.1697
  131OSM   H16S14109   0.684   4.665   7.680  1.3506  2.1343  0.7400
  131OSM   H16T14110   0.506   4.631   7.625 -1.0950  2.0438 -0.6351
  131OSM   C17S14111   0.543   4.658   7.837 -0.4895 -0.1364  0.0269
  131OSM   H17S14112   0.434   4.660   7.854 -0.3558 -0.4937  0.9609
  131OSM   H17T14113   0.592   4.741   7.892 -0.0531 -0.2672 -0.1577
  131OSM   C18S14114   0.607   4.528   7.901 -0.1839 -0.4098 -0.0054
  131OSM   H18S14115   0.576   4.517   8.008  2.1800 -1.7515  0.5971
  131OSM   H18T14116   0.716   4.533   7.883 -0.2451 -0.7873 -0.4750
  131OSM   H18U14117   0.575   4.443   7.837  0.7322  0.5082 -1.7456
  131OSM    C1F14118   0.494   4.742   6.549  1.2218  0.3762  0.0117
  131OSM     OF14119   0.585   4.681   6.493  0.1105 -0.1141 -0.1861
  131OSM    C2F14120   0.419   4.693   6.670  0.2295 -0.7119 -0.1458
  131OSM    H2F14121   0.366   4.596   6.660 -0.5424 -0.2831 -0.3203
  131OSM    H2G14122   0.340   4.763   6.706 -0.4052 -1.5080  0.0378
  131OSM    C3F14123   0.521   4.674   6.785 -0.3024  0.5928 -0.4147
  131OSM    H3F14124   0.576   4.768   6.805  0.3531  0.1193  0.0796
  131OSM    H3G14125   0.596   4.598   6.751 -0.3028  1.3109 -2.0920
  131OSM    C4F14126   0.469   4.632   6.920  0.0717 -0.1916  0.7201
  131OSM    H4F14127   0.429   4.529   6.904 -1.9045  0.2379  2.5271
  131OSM    H4G14128   0.389   4.702   6.950  2.5697  2.1114  2.4316
  131OSM    C5F14129   0.575   4.624   7.029  0.0331 -0.0066 -0.5079
  131OSM    H5F14130   0.642   4.712   7.020  0.6897 -0.5045 -0.5026
  131OSM    H5G14131   0.626   4.527   7.012 -1.0742 -0.8313  0.6637
  131OSM    C6F14132   0.514   4.625   7.174 -0.6026 -0.5740  0.2440
  131OSM    H6F14133   0.459   4.720   7.186 -2.1671 -1.0533 -2.2865
  131OSM    H6G14134   0.604   4.635   7.238 -0.4904 -1.5861  0.2741
  131OSM    C7F14135   0.433   4.507   7.213  0.2885 -0.3623 -0.0648
  131OSM    H7F14136   0.340   4.503   7.153 -0.2375 -0.3485  0.7236
  131OSM    H7G14137   0.404   4.526   7.319  3.5689  1.1631  0.6853
  131OSM    C8F14138   0.500   4.366   7.224 -0.0371  0.2415 -0.1980
  131OSM    H8F14139   0.569   4.359   7.311 -1.7814 -0.5304  1.2101
  131OSM    H8G14140   0.554   4.336   7.132 -1.8725 -2.4395 -0.5212
  131OSM    C9F14141   0.398   4.253   7.253  0.3028 -0.2461  1.2760
  131OSM    H9F14142   0.368   4.206   7.158 -0.9753  3.1616 -0.1741
  131OSM   C10F14143   0.328   4.221   7.365 -0.5229 -0.1187 -0.1950
  131OSM   H10F14144   0.263   4.132   7.359 -0.0144 -0.4117 -1.7799
  131OSM   C11F14145   0.342   4.283   7.499 -0.0881 -0.9077  1.2175
  131OSM   H11F14146   0.247   4.313   7.548  0.8218  3.0265  0.9254
  131OSM   H11G14147   0.400   4.378   7.495  0.7191 -1.3841  1.4841
  131OSM   C12F14148   0.399   4.174   7.594  0.4052 -0.2362 -0.3285
  131OSM   H12F14149   0.425   4.236   7.683  0.3088 -1.3081  0.4687
  131OSM   H12G14150   0.495   4.135   7.555  0.2935 -0.5236 -0.3171
  131OSM   C13F14151   0.293   4.068   7.634  0.8700  0.0211 -0.6844
  131OSM   H13F14152   0.274   4.008   7.543 -0.2911 -0.2537 -0.2747
  131OSM   H13G14153   0.206   4.121   7.678  2.7933  2.6304  0.2433
  131OSM   C14F14154   0.331   3.967   7.738 -0.0341 -0.0360 -0.5979
  131OSM   H14F14155   0.415   3.911   7.693 -0.0249 -0.7246  0.2369
  131OSM   H14G14156   0.241   3.902   7.732 -0.5269  0.6106 -0.3540
  131OSM   C15F14157   0.355   4.024   7.883  0.3223  0.2876  0.7271
  131OSM   H15F14158   0.270   4.089   7.912 -2.9813 -3.5401  0.4205
  131OSM   H15G14159   0.453   4.077   7.890  1.5860 -1.6849 -0.8696
  131OSM   C16F14160   0.345   3.899   7.979  0.1655  0.0367 -0.1650
  131OSM   H16F14161   0.415   3.818   7.950  0.0624 -1.1597  2.6486
  131OSM   H16G14162   0.240   3.865   7.979  0.0181  0.4653  0.4967
  131OSM   C17F14163   0.407   3.938   8.115 -0.1285  1.1079 -0.3771
  131OSM   H17F14164   0.355   4.023   8.165 -1.4127 -0.5376  1.2251
  131OSM   H17G14165   0.513   3.967   8.099 -0.0326  1.1118  0.2232
  131OSM   C18F14166   0.424   3.809   8.208  0.4831 -1.5499  0.1009
  131OSM   H18F14167   0.332   3.761   8.250 -0.2559  0.8103  1.3666
  131OSM   H18G14168   0.486   3.843   8.294  2.3855 -0.6541 -1.5709
  131OSM   H18H14169   0.478   3.731   8.151 -0.2367 -1.0356 -1.3314
  132OSM      N14170   5.997   1.179   5.884 -0.5481  0.3327  0.1654
  132OSM    C1514171   6.064   1.053   5.837 -0.0926  0.5466 -0.1269
  132OSM   H15A14172   6.154   1.022   5.890 -0.5842  1.1955  1.1258
  132OSM   H15B14173   6.096   1.055   5.734  1.7093 -1.1733  0.3185
  132OSM   H15C14174   5.986   0.978   5.832 -0.1973  0.7325 -2.1576
  132OSM    C1414175   6.087   1.287   5.847 -0.0272 -0.4455  0.1855
  132OSM   H14A14176   6.185   1.262   5.886 -0.9546  1.2438  3.9978
  132OSM   H14B14177   6.065   1.385   5.886 -0.8241 -1.1236  1.4914
  132OSM   H14C14178   6.100   1.283   5.739 -1.1224 -0.8508  0.0623
  132OSM    C1314179   5.863   1.185   5.806  0.2133 -0.2353  0.1387
  132OSM   H13A14180   5.802   1.273   5.814 -1.2133 -1.0844 -0.8878
  132OSM   H13B14181   5.801   1.105   5.844 -0.2701 -0.0278 -0.1986
  132OSM   H13C14182   5.871   1.168   5.699  0.2801  0.0265  0.1015
  132OSM    C1214183   5.973   1.178   6.036  0.2861 -0.1617  0.4477
  132OSM   H12A14184   5.892   1.109   6.053  0.5375 -0.8072 -0.8668
  132OSM   H12B14185   5.937   1.269   6.081  0.8144  1.4443 -2.1695
  132OSM    C1114186   6.088   1.130   6.120  0.0092  0.1026 -0.7220
  132OSM   H11A14187   6.136   1.031   6.099  0.2788  0.3245 -1.1673
  132OSM   H11B14188   6.050   1.124   6.224  1.7077 -0.2077 -0.0926
  132OSM      P14189   6.219   1.325   6.234  0.1403  0.0181 -0.1896
  132OSM    O1314190   6.341   1.404   6.199 -0.3083  0.1440 -0.0129
  132OSM    O1414191   6.089   1.402   6.251 -0.2423 -0.0391  0.2839
  132OSM    O1114192   6.254   1.231   6.359 -0.0339  0.4911  0.8158
  132OSM    O1214193   6.191   1.227   6.122  0.2691  0.0564  0.3066
  132OSM    C1S14194   6.386   1.178   6.377  0.1297 -0.1230 -0.7906
  132OSM    H1S14195   6.474   1.242   6.352  1.1058 -1.2074 -0.2642
  132OSM    H1T14196   6.403   1.092   6.308 -2.7189 -0.5792 -1.0366
  132OSM     NF14197   6.546   1.094   6.550  0.2627 -0.0235 -0.2806
  132OSM    HNF14198   6.549   0.996   6.534  0.4085 -0.0504 -0.1012
  132OSM    C2S14199   6.406   1.145   6.529 -0.1196 -0.2187  0.5928
  132OSM    H2S14200   6.398   1.239   6.588  0.3513 -1.2485  2.3741
  132OSM    C3S14201   6.297   1.049   6.579  1.0457  0.2750 -1.1453
  132OSM    H3S14202   6.272   0.957   6.522 -2.1052  0.2178  0.1475
  132OSM     O314203   6.165   1.106   6.570 -0.0208  0.5706  0.6342
  132OSM    HO314204   6.173   1.162   6.493  0.1750  0.8940  0.8845
  132OSM    C4S14205   6.329   1.022   6.727 -0.5855 -0.1703 -0.1551
  132OSM    H4S14206   6.299   1.100   6.798 -1.5228  0.7326 -1.5276
  132OSM    C5S14207   6.404   0.912   6.758 -0.1353 -0.0198  0.2008
  132OSM    H5S14208   6.426   0.832   6.686 -0.8155 -0.3059  0.3034
  132OSM    C6S14209   6.456   0.893   6.900  0.0097 -0.5657  0.2876
  132OSM    H6S14210   6.534   0.969   6.920  0.8029 -0.4808 -2.7157
  132OSM    H6T14211   6.496   0.791   6.917  0.6730 -0.0161  2.2486
  132OSM    C7S14212   6.355   0.902   7.018  0.1740  0.3864  0.4353
  132OSM    H7S14213   6.277   0.824   7.008  1.3760 -0.7211 -0.7966
  132OSM    H7T14214   6.317   1.006   7.025 -0.6052  0.0629  1.0874
  132OSM    C8S14215   6.424   0.860   7.156  0.6436 -0.4548  0.1171
  132OSM    H8S14216   6.471   0.759   7.155  0.2429 -0.6592 -1.3112
  132OSM    H8T14217   6.347   0.855   7.236 -0.1007  3.0872 -0.2149
  132OSM    C9S14218   6.536   0.946   7.207 -0.0422  0.5255  0.4523
  132OSM    H9S14219   6.531   1.054   7.179  3.9538  1.3506  2.1917
  132OSM    H9T14220   6.629   0.903   7.165 -0.6670  1.1351 -1.7142
  132OSM   C10S14221   6.566   0.940   7.360  0.4747  0.0954  0.2359
  132OSM   H10S14222   6.488   1.006   7.405 -0.3674  1.7170 -3.2114
  132OSM   H10T14223   6.659   0.990   7.392  0.1297  2.1781 -1.7635
  132OSM   C11S14224   6.570   0.803   7.423 -0.9525 -0.3225 -0.3243
  132OSM   H11S14225   6.648   0.743   7.370  1.1164  1.7729  0.1820
  132OSM   H11T14226   6.478   0.746   7.397  0.7735 -2.5540 -1.9954
  132OSM   C12S14227   6.578   0.799   7.580 -0.3193  0.1349  0.4714
  132OSM   H12S14228   6.655   0.870   7.618 -0.8957  2.5391 -2.4523
  132OSM   H12T14229   6.609   0.697   7.610  0.9582  0.9029  1.9096
  132OSM   C13S14230   6.446   0.842   7.646  0.1626 -0.2437 -0.4183
  132OSM   H13S14231   6.361   0.779   7.614 -1.2601  1.4722 -0.2141
  132OSM   H13T14232   6.415   0.946   7.620 -1.6404 -0.7640 -0.4717
  132OSM   C14S14233   6.464   0.828   7.795 -0.2914 -0.1381 -0.4484
  132OSM   H14S14234   6.557   0.881   7.823 -0.3845 -1.0726  1.7836
  132OSM   H14T14235   6.462   0.721   7.826 -0.8257  0.7588  2.9994
  132OSM   C15S14236   6.335   0.892   7.863  0.1603 -0.3441  0.1471
  132OSM   H15S14237   6.249   0.822   7.875 -0.2774  0.0540 -0.6331
  132OSM   H15T14238   6.295   0.962   7.786 -1.4829 -2.3047 -0.8700
  132OSM   C16S14239   6.359   0.968   8.000  0.1517  0.1718  0.3137
  132OSM   H16S14240   6.434   1.050   7.996 -0.8975  1.1897  0.7713
  132OSM   H16T14241   6.391   0.893   8.075  1.4595  0.5909  0.1873
  132OSM   C17S14242   6.230   1.037   8.061  0.1181 -0.8199 -0.6986
  132OSM   H17S14243   6.250   1.101   8.149 -1.1056 -0.5867 -0.5723
  132OSM   H17T14244   6.157   0.958   8.089 -1.0532  0.4144 -0.1554
  132OSM   C18S14245   6.168   1.129   7.960  0.1384 -0.3532  0.3220
  132OSM   H18S14246   6.251   1.198   7.933  0.7108 -1.4831 -0.8505
  132OSM   H18T14247   6.073   1.178   7.991  0.1383 -2.0392  3.3890
  132OSM   H18U14248   6.134   1.077   7.869  0.3418  0.6332 -0.3370
  132OSM    C1F14249   6.650   1.175   6.552  0.1284 -0.4326 -0.9540
  132OSM     OF14250   6.632   1.298   6.575 -0.0229  0.6519 -0.0853
  132OSM    C2F14251   6.787   1.118   6.539  0.7273 -0.1507  0.6313
  132OSM    H2F14252   6.831   1.154   6.444 -1.2251  1.6382  0.3309
  132OSM    H2G14253   6.785   1.007   6.544 -1.6604 -0.2581 -0.7165
  132OSM    C3F14254   6.874   1.156   6.655  0.3468 -0.3346 -0.1379
  132OSM    H3F14255   6.906   1.263   6.649  1.3175 -0.4715  1.7696
  132OSM    H3G14256   6.971   1.102   6.653  0.0769 -0.9692  1.6779
  132OSM    C4F14257   6.806   1.133   6.794 -0.3134  0.5033  1.1486
  132OSM    H4F14258   6.767   1.030   6.804  0.8724  0.1483  2.4217
  132OSM    H4G14259   6.717   1.199   6.805 -0.8489 -0.5278  3.6088
  132OSM    C5F14260   6.897   1.153   6.907 -0.5704 -0.1127 -0.0271
  132OSM    H5F14261   6.952   1.249   6.900  0.7191 -0.9184 -1.1741
  132OSM    H5G14262   6.976   1.078   6.889 -0.0268 -0.0262  1.7750
  132OSM    C6F14263   6.846   1.126   7.050 -0.1056 -0.2146  0.1355
  132OSM    H6F14264   6.814   1.022   7.069 -0.4099 -0.0271  0.6570
  132OSM    H6G14265   6.755   1.185   7.073  1.1560  0.6061  3.6221
  132OSM    C7F14266   6.948   1.176   7.159  0.0816 -0.5955  0.0127
  132OSM    H7F14267   6.977   1.284   7.161  2.9236 -1.2942  0.0343
  132OSM    H7G14268   7.042   1.122   7.136 -0.0655 -0.9809  0.3065
  132OSM    C8F14269   6.903   1.127   7.294 -0.5070 -0.6843 -1.3588
  132OSM    H8F14270   6.924   1.018   7.286 -0.5857 -0.5772 -3.4287
  132OSM    H8G14271   6.792   1.133   7.298 -0.4401  0.2351 -0.4417
  132OSM    C9F14272   6.970   1.201   7.412  0.5470 -0.0235  0.1839
  132OSM    H9F14273   6.994   1.306   7.388  1.9491 -0.3596  0.0237
  132OSM   C10F14274   7.001   1.156   7.536  0.3342  0.3193 -0.4933
  132OSM   H10F14275   7.050   1.223   7.608 -3.0554  1.8949  0.5564
  132OSM   C11F14276   6.968   1.015   7.580  0.1589  0.7661 -0.3086
  132OSM   H11F14277   7.064   0.960   7.566  0.4556  1.6019 -1.8235
  132OSM   H11G14278   6.893   0.969   7.512 -0.8998  0.6203  0.9061
  132OSM   C12F14279   6.905   0.993   7.722  0.3053 -0.0488 -0.3910
  132OSM   H12F14280   6.893   0.884   7.736  1.4105  0.1378  2.7559
  132OSM   H12G14281   6.809   1.049   7.726  1.4788  2.0122  1.0592
  132OSM   C13F14282   7.003   1.018   7.838 -0.2283  0.0221 -0.4156
  132OSM   H13F14283   6.999   1.125   7.870  1.7363  0.9266 -2.8522
  132OSM   H13G14284   7.104   0.996   7.797  0.1068 -0.2160  0.4894
  132OSM   C14F14285   6.987   0.929   7.967  0.4195 -0.6080 -0.4377
  132OSM   H14F14286   7.080   0.940   8.027 -1.2931 -0.8475  2.4644
  132OSM   H14G14287   6.963   0.821   7.958  2.0153 -1.1676  1.3450
  132OSM   C15F14288   6.869   0.989   8.045  0.0030 -0.5289 -0.0460
  132OSM   H15F14289   6.771   0.986   7.993  0.4267  1.6764 -1.0483
  132OSM   H15G14290   6.886   1.098   8.050 -0.9307 -0.3279 -0.8831
  132OSM   C16F14291   6.854   0.912   8.178 -0.2142  0.4133  1.0455
  132OSM   H16F14292   6.950   0.920   8.234  0.7669  1.7725 -0.7061
  132OSM   H16G14293   6.847   0.805   8.150 -0.8226  0.7173 -0.0113
  132OSM   C17F14294   6.749   0.981   8.257  0.6064 -0.5520 -0.7909
  132OSM   H17F14295   6.646   0.956   8.224  0.3593  0.1320 -0.5740
  132OSM   H17G14296   6.774   1.089   8.245  2.0601 -0.5537  1.5345
  132OSM   C18F14297   6.757   0.950   8.406  0.1261 -0.1056  0.2017
  132OSM   H18F14298   6.677   1.008   8.459  1.1162  1.4818  0.0258
  132OSM   H18G14299   6.857   0.966   8.452  1.1652 -2.7298 -0.9874
  132OSM   H18H14300   6.726   0.846   8.429 -0.5757 -0.6602 -2.8667
  133SAPE     N14301   2.368   6.852  10.288 -0.1189  0.2820  0.4156
  133SAPE   HN114302   2.432   6.872  10.208  3.0051  0.0223  2.6906
  133SAPE   HN214303   2.351   6.750  10.270  0.4491  0.6154 -2.6615
  133SAPE   HN314304   2.279   6.904  10.273 -1.0302 -0.7727  1.9163
  133SAPE   C1214305   2.442   6.879  10.411 -0.7604  0.1317  0.5300
  133SAPE  H12A14306   2.517   6.799  10.429 -0.0876  0.4613 -0.6932
  133SAPE  H12B14307   2.359   6.877  10.484 -4.1956 -0.0635 -3.0796
  133SAPE   C1114308   2.505   7.018  10.420  0.0034  0.6247  0.2087
  133SAPE  H11A14309   2.587   7.025  10.345  0.6998  0.3621  0.9251
  133SAPE  H11B14310   2.549   7.032  10.521 -0.9926  3.7786  0.3094
  133SAPE     P14311   2.472   7.269  10.389 -0.0652  0.7059  0.2411
  133SAPE   O1314312   2.354   7.348  10.418 -0.0297  0.2312  0.0687
  133SAPE   O1414313   2.591   7.299  10.474  0.2544 -0.3712  0.1062
  133SAPE   O1214314   2.423   7.123  10.399 -0.6374  0.1481  0.1763
  133SAPE   O1114315   2.516   7.283  10.239  0.1070  0.3351 -0.3945
  133SAPE    C114316   2.637   7.339  10.205  0.4748  0.0388  0.0133
  133SAPE    HA14317   2.624   7.442  10.245  0.0866 -0.4907  1.3099
  133SAPE    HB14318   2.728   7.317  10.265  0.8356  0.1612 -0.4867
  133SAPE    C214319   2.666   7.347  10.058  0.4884 -0.3952  0.6662
  133SAPE    HS14320   2.710   7.445  10.031 -1.2063  0.0500 -0.6967
  133SAPE   O2114321   2.540   7.331   9.980 -0.2477 -0.7006 -0.1606
  133SAPE   C2114322   2.454   7.432   9.992 -0.1021  0.1342  0.6514
  133SAPE   O2214323   2.466   7.533  10.058 -0.3041 -0.7572  0.4047
  133SAPE   C2214324   2.344   7.408   9.879 -0.0910  0.4896  0.1120
  133SAPE   H2R14325   2.275   7.345   9.938  1.1118  0.7786  1.9118
  133SAPE   H2S14326   2.281   7.496   9.853 -0.0839  0.3153 -0.4946
  133SAPE    C314327   2.752   7.230  10.010 -0.6085 -0.1235  0.4009
  133SAPE    HX14328   2.723   7.141  10.070  0.9414 -1.3028 -0.5300
  133SAPE    HY14329   2.850   7.261  10.052  0.1416 -0.2753 -1.1510
  133SAPE   O3114330   2.759   7.218   9.865  0.1061 -0.4393 -0.1502
  133SAPE   C3114331   2.705   7.115   9.816  0.2933 -0.5634 -0.6235
  133SAPE   O3214332   2.638   7.033   9.873  0.8166 -0.1627 -0.1583
  133SAPE   C3214333   2.726   7.110   9.662 -0.0170  0.4100 -0.7151
  133SAPE   H2X14334   2.826   7.066   9.639  1.0767  2.7052 -0.6888
  133SAPE   H2Y14335   2.740   7.214   9.626 -3.0674  1.0278 -0.3394
  133SAPE   C2314336   2.394   7.355   9.742  0.2720 -0.5451  0.0574
  133SAPE   H3R14337   2.460   7.268   9.767 -0.6207 -1.2344  0.0478
  133SAPE   H3S14338   2.456   7.429   9.687 -1.4745  1.0766  0.1699
  133SAPE   C2414339   2.279   7.302   9.652  0.5521 -0.7497 -0.0826
  133SAPE   H4R14340   2.208   7.252   9.721  1.1562 -0.9531  0.4059
  133SAPE   H4S14341   2.310   7.225   9.577  0.4095 -0.8930  0.0044
  133SAPE   C2514342   2.195   7.417   9.587 -0.4306  1.1484  0.5529
  133SAPE   H5R14343   2.147   7.489   9.655  0.7491  2.3031  0.1917
  133SAPE   C2614344   2.167   7.430   9.458 -0.6735 -0.1605  0.3374
  133SAPE   H6R14345   2.101   7.510   9.425  1.1722  0.6682 -1.5920
  133SAPE   C2714346   2.204   7.345   9.332 -0.8919  0.1196 -0.6957
  133SAPE   H7R14347   2.295   7.283   9.347  1.1622  2.9479 -0.7897
  133SAPE   H7S14348   2.220   7.412   9.245 -1.5044  0.9388 -0.1857
  133SAPE   C2814349   2.077   7.263   9.309  0.4529 -0.6469  0.6302
  133SAPE   H8R14350   2.052   7.212   9.403  0.6101 -1.1288  0.4098
  133SAPE   C2914351   2.008   7.227   9.202  0.3303  0.0491  0.4021
  133SAPE   H9R14352   1.915   7.170   9.207  0.8986 -1.3141 -2.4026
  133SAPE  C21014353   2.049   7.270   9.061 -0.3139 -0.2495 -0.9139
  133SAPE  H10R14354   2.051   7.180   8.997  1.2831  0.8618 -2.5049
  133SAPE  H10S14355   2.156   7.298   9.059 -0.1712 -0.4585  1.1923
  133SAPE  C21114356   1.963   7.373   8.995 -0.3416 -0.3750  0.5606
  133SAPE  H11R14357   1.966   7.473   9.041 -1.3678 -1.3376  2.8405
  133SAPE  C21214358   1.894   7.355   8.886 -0.4744 -0.3298  0.4268
  133SAPE  H12R14359   1.836   7.441   8.851 -1.4353 -1.5396 -1.0921
  133SAPE  C21314360   1.886   7.232   8.796  0.4418  0.3364  0.1695
  133SAPE  H13R14361   1.803   7.245   8.724 -0.7322 -0.1274  1.3942
  133SAPE  H13S14362   1.881   7.137   8.853 -2.6716  0.2369 -0.1066
  133SAPE  C21414363   2.015   7.228   8.715 -0.2071 -0.3679 -0.2364
  133SAPE  H14R14364   2.097   7.160   8.742 -1.8329 -3.2072 -1.9115
  133SAPE  C21514365   2.047   7.288   8.599  0.2431  0.2842  0.3185
  133SAPE  H15R14366   2.143   7.263   8.551  0.6332 -0.0939  1.2740
  133SAPE  C21614367   1.964   7.383   8.506  0.2224 -0.0993 -0.1539
  133SAPE  H16R14368   1.856   7.371   8.528  0.0103  0.6094 -0.7566
  133SAPE  H16S14369   1.984   7.346   8.403  0.4497 -2.2160  0.5919
  133SAPE  C21714370   2.011   7.534   8.505  0.4439  0.1929 -0.1161
  133SAPE  H17R14371   1.969   7.581   8.414  2.0822 -0.1252 -1.0762
  133SAPE  H17S14372   2.119   7.547   8.483  0.7410  0.4913  1.3679
  133SAPE  C21814373   1.974   7.622   8.628  0.6140 -0.0994  1.0566
  133SAPE  H18R14374   2.029   7.590   8.719  0.4883 -0.3059  1.0602
  133SAPE  H18S14375   1.864   7.622   8.644  0.6831  0.1359  1.5699
  133SAPE  C21914376   2.031   7.762   8.605  0.1542 -0.2870 -0.8838
  133SAPE  H19R14377   2.000   7.799   8.505  1.6562 -1.5104 -1.8476
  133SAPE  H19S14378   2.142   7.767   8.610  0.0729  0.1335  2.2050
  133SAPE  C22014379   1.988   7.861   8.721 -0.3693  0.6896 -0.2342
  133SAPE  H20R14380   1.987   7.963   8.677 -1.7850  0.5515 -0.5877
  133SAPE  H20S14381   2.059   7.861   8.806 -0.2177 -0.2616 -0.3470
  133SAPE  H20T14382   1.883   7.843   8.753  0.0393 -0.5243  0.4973
  133SAPE   C3314383   2.615   7.031   9.597  0.9641 -0.7510  0.1480
  133SAPE   H3X14384   2.513   7.051   9.637  0.8388 -2.7413  0.9269
  133SAPE   H3Y14385   2.624   6.921   9.611  1.9700 -0.3788  2.8679
  133SAPE   C3414386   2.617   7.036   9.443 -0.8998 -0.0448  0.0893
  133SAPE   H4X14387   2.547   6.959   9.403  1.4024  0.1701 -5.1442
  133SAPE   H4Y14388   2.718   7.016   9.400 -0.7507 -0.8963  0.8086
  133SAPE   C3514389   2.570   7.175   9.387  0.5041 -0.1736 -0.6421
  133SAPE   H5X14390   2.633   7.253   9.435 -1.2673 -0.8360  3.1179
  133SAPE   H5Y14391   2.462   7.190   9.409  0.3236 -1.6998 -0.3529
  133SAPE   C3614392   2.573   7.186   9.234  0.4308 -0.6811 -0.3379
  133SAPE   H6X14393   2.680   7.187   9.202  1.1166  1.8203  1.6320
  133SAPE   H6Y14394   2.538   7.290   9.215 -1.2642 -1.6993 -3.6062
  133SAPE   C3714395   2.475   7.087   9.161  0.2499 -0.2739  0.4146
  133SAPE   H7X14396   2.373   7.085   9.206  0.1371 -0.2254  0.1624
  133SAPE   H7Y14397   2.516   6.985   9.174 -0.0857 -0.2938  1.3496
  133SAPE   C3814398   2.458   7.106   9.009 -0.1143 -0.0856  0.4362
  133SAPE   H8X14399   2.428   7.212   8.994  1.6211  0.1755 -1.8479
  133SAPE   H8Y14400   2.380   7.038   8.968  0.0928 -1.0356  1.5381
  133SAPE   C3914401   2.588   7.091   8.922  0.0033 -0.1199 -0.0896
  133SAPE   H9X14402   2.612   6.993   8.876  1.4099  0.3265 -0.3909
  133SAPE   H9Y14403   2.669   7.119   8.993  0.6784 -2.1186 -0.0101
  133SAPE  C31014404   2.578   7.189   8.805 -0.3147 -0.1892 -1.1279
  133SAPE  H10X14405   2.684   7.189   8.774 -0.2645  1.1990 -1.0163
  133SAPE  H10Y14406   2.559   7.288   8.853  0.4194  0.2991 -1.8359
  133SAPE  C31114407   2.493   7.148   8.680 -0.4878 -0.1713 -0.8328
  133SAPE  H11X14408   2.397   7.130   8.733  0.6569  1.2734  1.9697
  133SAPE  H11Y14409   2.528   7.061   8.622 -0.7346 -0.7763 -0.0955
  133SAPE  C31214410   2.468   7.250   8.569 -0.5775  0.2062 -0.0427
  133SAPE  H12X14411   2.565   7.292   8.535  0.3325 -1.4506  0.4031
  133SAPE  H12Y14412   2.409   7.329   8.620 -0.0949  1.0431 -0.7621
  133SAPE  C31314413   2.375   7.201   8.452  0.3540  0.0192 -0.8802
  133SAPE  H13X14414   2.315   7.278   8.400  0.0914  1.4694  1.4139
  133SAPE  H13Y14415   2.305   7.126   8.496 -1.6619  2.4511  0.3352
  133SAPE  C31414416   2.452   7.117   8.353  0.1285 -0.2662  0.8868
  133SAPE  H14X14417   2.499   7.025   8.394  1.8714 -0.0671 -0.5498
  133SAPE  H14Y14418   2.539   7.176   8.318 -0.3099  0.1580  0.4979
  133SAPE  C31514419   2.366   7.085   8.229  0.1386 -0.1248 -0.0040
  133SAPE  H15X14420   2.325   7.179   8.187 -2.7663 -1.2514  0.0587
  133SAPE  H15Y14421   2.266   7.043   8.256  0.4490  0.7186  2.6859
  133SAPE  C31614422   2.438   6.991   8.129  0.1289 -0.2578 -0.6137
  133SAPE  H16X14423   2.453   6.888   8.169 -1.6663  0.1767  1.3267
  133SAPE  H16Y14424   2.539   7.033   8.111 -0.7493  1.5190 -1.6514
  133SAPE  C31714425   2.372   6.978   7.994  0.0488 -0.3726 -1.1640
  133SAPE  H17X14426   2.363   7.081   7.954 -0.0313 -0.0438 -0.3248
  133SAPE  H17Y14427   2.269   6.937   8.009  0.9017 -2.1519  0.2220
  133SAPE  C31814428   2.454   6.897   7.891  0.0937  1.3129  0.0515
  133SAPE  H18X14429   2.450   6.792   7.926 -2.3890  0.1332 -3.2534
  133SAPE  H18Y14430   2.559   6.930   7.880  0.9099 -0.6404  1.4553
  133SAPE  H18Z14431   2.404   6.893   7.792 -3.3147  0.2345  1.6544
  134SAPE     N14432   0.757   5.674  10.674 -0.3952  0.5822 -0.7360
  134SAPE   HN114433   0.663   5.677  10.720 -0.5399 -0.9027 -0.8647
  134SAPE   HN214434   0.787   5.767  10.640  0.9251  0.5528  0.2942
  134SAPE   HN314435   0.748   5.603  10.599 -0.8795  0.7589 -0.8485
  134SAPE   C1214436   0.857   5.634  10.782 -0.3645  0.4240  0.9453
  134SAPE  H12A14437   0.821   5.540  10.829 -0.5087  1.0382  2.1054
  134SAPE  H12B14438   0.859   5.708  10.865  0.0399  0.9963  0.4316
  134SAPE   C1114439   0.992   5.601  10.712 -0.0514 -0.4196  0.7696
  134SAPE  H11A14440   0.979   5.498  10.672 -0.5013  1.0794 -3.3921
  134SAPE  H11B14441   1.074   5.619  10.785  0.5467 -1.1677  0.2902
  134SAPE     P14442   1.140   5.785  10.582 -0.0342  0.0462  0.0273
  134SAPE   O1314443   1.115   5.915  10.639  0.1573 -0.2607  0.5978
  134SAPE   O1414444   1.255   5.709  10.632 -0.1059  0.1425 -0.5795
  134SAPE   O1214445   1.013   5.694  10.604  0.4360 -0.0732  0.1035
  134SAPE   O1114446   1.149   5.797  10.425 -0.5458  0.3895 -0.1582
  134SAPE    C114447   1.134   5.682  10.336 -0.1696 -0.6896  0.6968
  134SAPE    HA14448   1.218   5.610  10.349  2.4163  2.0597  0.1704
  134SAPE    HB14449   1.032   5.639  10.352 -1.4389  1.4765 -1.0068
  134SAPE    C214450   1.134   5.737  10.188 -0.1306  0.4892  0.2863
  134SAPE    HS14451   1.058   5.678  10.132  0.1295  1.0626 -0.6970
  134SAPE   O2114452   1.267   5.727  10.131 -0.5532  0.5139  0.0758
  134SAPE   C2114453   1.302   5.603  10.090  0.2633  1.1446  0.0265
  134SAPE   O2214454   1.238   5.502  10.110  0.1950 -0.0941  0.0530
  134SAPE   C2214455   1.439   5.609  10.031 -1.2590  0.1961  0.4094
  134SAPE   H2R14456   1.500   5.670  10.101  0.6015  0.2339 -1.1420
  134SAPE   H2S14457   1.492   5.511  10.031 -1.9893 -0.2220  2.0979
  134SAPE    C314458   1.078   5.884  10.173 -0.0133  0.0422 -0.6462
  134SAPE    HX14459   1.155   5.959  10.200 -0.4783 -0.1736  1.4313
  134SAPE    HY14460   0.993   5.907  10.240 -2.9238 -0.9537 -3.7174
  134SAPE   O3114461   1.024   5.913  10.037  0.0933 -0.1304  0.7709
  134SAPE   C3114462   1.118   5.931   9.943  0.3793 -0.7447  0.3262
  134SAPE   O3214463   1.235   5.953   9.963 -0.3283  0.0998 -0.5607
  134SAPE   C3214464   1.063   5.895   9.806  0.0007  0.0242  0.3052
  134SAPE   H2X14465   0.971   5.955   9.789  1.5326  2.6239  0.5375
  134SAPE   H2Y14466   1.031   5.789   9.809 -1.2194  0.2074 -2.6344
  134SAPE   C2314467   1.442   5.668   9.883  0.8759  0.3578  0.4299
  134SAPE   H3R14468   1.532   5.731   9.866  0.6576  0.5510 -0.0094
  134SAPE   H3S14469   1.357   5.740   9.878  1.2014  0.7860  0.9288
  134SAPE   C2414470   1.423   5.560   9.763  0.2626  0.7973  0.0745
  134SAPE   H4R14471   1.524   5.514   9.763  0.1635  0.5810 -0.0936
  134SAPE   H4S14472   1.413   5.620   9.670 -2.3171  3.7015  2.0255
  134SAPE   C2514473   1.315   5.453   9.792 -0.8066 -0.0294 -0.8586
  134SAPE   H5R14474   1.345   5.374   9.863  1.8013  0.8508 -0.8646
  134SAPE   C2614475   1.196   5.441   9.737  0.0271 -0.3099 -0.5583
  134SAPE   H6R14476   1.142   5.358   9.785 -1.2261  0.3254 -0.8410
  134SAPE   C2714477   1.118   5.515   9.627 -0.1920  0.0965  0.0392
  134SAPE   H7R14478   1.188   5.577   9.568  1.9687  0.6233  2.9735
  134SAPE   H7S14479   1.054   5.592   9.674  0.2607  0.1390  0.5932
  134SAPE   C2814480   1.036   5.419   9.546 -0.1680 -0.3459 -0.4173
  134SAPE   H8R14481   0.947   5.377   9.596 -0.2222  0.2744  0.0140
  134SAPE   C2914482   1.057   5.391   9.412  0.4179 -0.7093  0.4280
  134SAPE   H9R14483   0.980   5.329   9.365 -1.2174  0.5486  1.3534
  134SAPE  C21014484   1.160   5.440   9.306  0.1136 -0.2714  0.0150
  134SAPE  H10R14485   1.243   5.492   9.359 -0.1029  0.6144 -0.4984
  134SAPE  H10S14486   1.113   5.519   9.244  0.1855 -1.5379 -1.7152
  134SAPE  C21114487   1.224   5.327   9.223 -0.1203  0.4691 -0.0988
  134SAPE  H11R14488   1.317   5.280   9.259 -0.9964 -1.5122 -0.2926
  134SAPE  C21214489   1.175   5.276   9.111  0.7473 -0.0677  0.9751
  134SAPE  H12R14490   1.220   5.185   9.067  1.5350  0.5370  0.5005
  134SAPE  C21314491   1.055   5.344   9.040 -0.1914  0.5690 -0.7708
  134SAPE  H13R14492   1.101   5.417   8.971 -1.2557 -0.5446 -2.7355
  134SAPE  H13S14493   0.995   5.402   9.113  1.4635  1.1057  0.2198
  134SAPE  C21414494   0.976   5.247   8.959  0.4616 -0.5842 -0.1818
  134SAPE  H14R14495   0.889   5.198   9.006  1.1321 -2.6696 -0.9840
  134SAPE  C21514496   1.018   5.204   8.844  0.0165 -0.4616 -0.4680
  134SAPE  H15R14497   0.969   5.127   8.783  0.8081  0.2014 -2.0111
  134SAPE  C21614498   1.150   5.268   8.780  1.2655  0.3118  0.2761
  134SAPE  H16R14499   1.241   5.273   8.844  0.7213 -0.1991  1.1077
  134SAPE  H16S14500   1.136   5.374   8.753  0.7170 -0.0715 -0.9995
  134SAPE  C21714501   1.201   5.203   8.650 -0.0686 -0.2826  0.4882
  134SAPE  H17R14502   1.271   5.273   8.601 -0.5901 -0.3302 -0.3450
  134SAPE  H17S14503   1.110   5.186   8.588 -0.6275 -3.1666  1.8995
  134SAPE  C21814504   1.265   5.064   8.666  0.9496 -0.2491  0.5391
  134SAPE  H18R14505   1.239   5.020   8.765 -1.3385 -0.6501 -0.1857
  134SAPE  H18S14506   1.374   5.062   8.643  1.0010 -0.4770  0.8013
  134SAPE  C21914507   1.210   4.962   8.553  0.1691 -0.5407 -0.2281
  134SAPE  H19R14508   1.099   4.959   8.556  0.1683 -0.7670 -0.5137
  134SAPE  H19S14509   1.254   4.864   8.579 -0.7351 -1.4009 -1.8148
  134SAPE  C22014510   1.266   4.994   8.408 -0.4138 -0.3714 -0.2116
  134SAPE  H20R14511   1.374   5.015   8.417 -0.5779 -0.4962  3.3244
  134SAPE  H20S14512   1.226   5.090   8.367 -0.8320 -1.5314 -2.7372
  134SAPE  H20T14513   1.251   4.915   8.331 -2.1879  0.5093 -0.8413
  134SAPE   C3314514   1.174   5.918   9.697 -0.3219 -0.2554 -0.4629
  134SAPE   H3X14515   1.220   5.818   9.681 -2.8850 -1.8514  1.3745
  134SAPE   H3Y14516   1.250   5.991   9.733  0.3978 -1.1853 -0.0429
  134SAPE   C3414517   1.122   5.959   9.559 -0.0842 -1.1129  0.6370
  134SAPE   H4X14518   1.195   6.009   9.492 -1.6918  0.2314 -0.1811
  134SAPE   H4Y14519   1.036   6.028   9.573 -2.2750 -3.5827 -0.0961
  134SAPE   C3514520   1.057   5.846   9.478 -0.7309  0.0888  0.5554
  134SAPE   H5X14521   0.986   5.795   9.546  0.2473 -1.9389  0.1218
  134SAPE   H5Y14522   1.133   5.766   9.464 -1.2773 -0.6688  1.7873
  134SAPE   C3614523   1.004   5.894   9.344  0.3495 -0.3292  0.2635
  134SAPE   H6X14524   1.077   5.959   9.290  1.3265 -0.1207  1.7467
  134SAPE   H6Y14525   0.920   5.960   9.374  0.2467  0.5163 -1.7347
  134SAPE   C3714526   0.976   5.775   9.266 -0.0458  0.0221  0.0527
  134SAPE   H7X14527   0.903   5.711   9.319  0.5897 -0.5858  0.2080
  134SAPE   H7Y14528   1.053   5.700   9.237 -1.8513 -1.2572 -1.6511
  134SAPE   C3814529   0.914   5.809   9.131 -0.0711  0.6033 -0.4101
  134SAPE   H8X14530   0.992   5.865   9.075  0.5260 -1.2155 -1.4892
  134SAPE   H8Y14531   0.825   5.873   9.142 -0.9336 -0.6465  0.0790
  134SAPE   C3914532   0.868   5.689   9.053  0.6282 -0.4155  0.5074
  134SAPE   H9X14533   0.781   5.648   9.108  0.3923  0.6523  0.9647
  134SAPE   H9Y14534   0.956   5.622   9.040 -1.0705 -2.7256  0.2776
  134SAPE  C31014535   0.808   5.729   8.910  0.5074  0.4241 -0.7744
  134SAPE  H10X14536   0.883   5.805   8.878 -0.1634  0.6792 -1.8022
  134SAPE  H10Y14537   0.716   5.786   8.932  0.2491 -0.2847  0.0084
  134SAPE  C31114538   0.808   5.625   8.798  0.0380  0.4978 -0.0061
  134SAPE  H11X14539   0.911   5.601   8.767 -0.7928 -1.0413 -1.7937
  134SAPE  H11Y14540   0.760   5.656   8.703 -0.4016 -3.5572 -1.3052
  134SAPE  C31214541   0.731   5.493   8.835 -0.5176  1.2694 -0.0305
  134SAPE  H12X14542   0.631   5.534   8.861  0.4651  1.6224  3.9739
  134SAPE  H12Y14543   0.785   5.469   8.930 -1.3126  2.3886  0.7264
  134SAPE  C31314544   0.742   5.383   8.734 -0.0104 -0.5316 -0.4234
  134SAPE  H13X14545   0.700   5.291   8.781 -0.8982  0.1308  0.1254
  134SAPE  H13Y14546   0.851   5.364   8.723  0.2942 -0.5502  1.9530
  134SAPE  C31414547   0.689   5.402   8.597  0.2936 -0.6188  0.3496
  134SAPE  H14X14548   0.747   5.469   8.531 -0.6250  0.5537  0.6901
  134SAPE  H14Y14549   0.585   5.442   8.601  0.3642 -0.2958 -0.8180
  134SAPE  C31514550   0.680   5.272   8.515 -0.0812 -0.5014  0.1305
  134SAPE  H15X14551   0.635   5.277   8.414  2.5938  1.8798 -1.0975
  134SAPE  H15Y14552   0.615   5.215   8.585  0.6541  1.0854  2.2194
  134SAPE  C31614553   0.812   5.199   8.495 -0.0141 -0.4642 -0.0902
  134SAPE  H16X14554   0.876   5.186   8.585 -0.2832 -0.7177  0.0683
  134SAPE  H16Y14555   0.875   5.268   8.435 -1.5866 -0.4314 -1.8015
  134SAPE  C31714556   0.794   5.068   8.429  0.3205 -0.1115 -0.5118
  134SAPE  H17X14557   0.895   5.025   8.413  0.2583  0.5844 -3.1480
  134SAPE  H17Y14558   0.750   5.089   8.330 -2.1000 -0.8374  0.3488
  134SAPE  C31814559   0.704   4.976   8.514  0.2069 -0.4958 -0.1965
  134SAPE  H18X14560   0.607   5.027   8.534  0.7885  0.4801  0.2054
  134SAPE  H18Y14561   0.750   4.979   8.615 -1.7418  1.1567  0.7125
  134SAPE  H18Z14562   0.703   4.875   8.466  2.1081  0.4343 -2.3503
  135SAPE     N14563   3.371   4.986  10.419 -0.1633  0.2036  0.6747
  135SAPE   HN114564   3.358   4.947  10.324 -0.1244  0.6936  0.4611
  135SAPE   HN214565   3.351   4.908  10.484  2.1748 -0.5820  0.5298
  135SAPE   HN314566   3.298   5.060  10.428 -0.6797  0.1815 -2.3665
  135SAPE   C1214567   3.506   5.044  10.440  0.1524 -0.2167 -0.7433
  135SAPE  H12A14568   3.574   4.981  10.379 -1.4953  0.4411 -3.4319
  135SAPE  H12B14569   3.523   5.041  10.550 -1.4321 -1.7321 -0.4933
  135SAPE   C1114570   3.506   5.191  10.393 -0.8757 -0.1183  0.7202
  135SAPE  H11A14571   3.484   5.191  10.284 -0.8164 -0.0515  0.7076
  135SAPE  H11B14572   3.611   5.225  10.406 -0.9678  0.7307 -0.6348
  135SAPE     P14573   3.266   5.299  10.439 -0.6228 -0.2659  0.0752
  135SAPE   O1314574   3.183   5.185  10.482 -0.0989  0.1710  0.3387
  135SAPE   O1414575   3.220   5.422  10.503 -0.8572 -0.0321  0.3530
  135SAPE   O1214576   3.417   5.279  10.467  0.0270  0.1518 -0.5424
  135SAPE   O1114577   3.268   5.305  10.285 -0.3109 -0.2638 -0.0342
  135SAPE    C114578   3.149   5.250  10.215 -0.0047 -0.0403 -0.6452
  135SAPE    HA14579   3.118   5.148  10.247 -0.2559  0.5502  1.1333
  135SAPE    HB14580   3.060   5.317  10.222 -0.1943 -0.4116  0.9570
  135SAPE    C214581   3.179   5.246  10.057  1.1221  0.2238  0.0209
  135SAPE    HS14582   3.118   5.172  10.001  0.3145 -0.0726  1.2455
  135SAPE   O2114583   3.318   5.205  10.032  0.6149 -0.3733 -0.7210
  135SAPE   C2114584   3.344   5.078  10.067  0.1975  0.2925 -0.6642
  135SAPE   O2214585   3.259   5.003  10.114  0.3522 -0.0110  0.7150
  135SAPE   C2214586   3.494   5.050  10.048  0.3590  0.0534 -0.3617
  135SAPE   H2R14587   3.551   5.145  10.054  1.8539 -0.8899  1.3177
  135SAPE   H2S14588   3.526   4.981  10.129  1.3860 -0.7489 -1.4211
  135SAPE    C314589   3.139   5.377   9.988 -0.2976 -0.2125 -0.0375
  135SAPE    HX14590   3.178   5.468  10.040 -2.2883  0.5755  0.1649
  135SAPE    HY14591   3.032   5.393  10.013 -0.7679 -2.6351 -0.2871
  135SAPE   O3114592   3.180   5.369   9.847 -0.1197  0.2206 -0.0042
  135SAPE   C3114593   3.076   5.371   9.768  0.2728  0.4814  0.3938
  135SAPE   O3214594   2.962   5.386   9.799  0.3613  0.1799  0.4189
  135SAPE   C3214595   3.133   5.343   9.628  0.4248  0.0967 -0.3991
  135SAPE   H2X14596   3.147   5.234   9.616  1.9754  0.2424 -0.1487
  135SAPE   H2Y14597   3.237   5.382   9.616  0.2518  1.6034  2.0818
  135SAPE   C2314598   3.525   4.986   9.901  0.3942 -0.3018 -0.1946
  135SAPE   H3R14599   3.509   5.071   9.831 -0.4557  0.2420  0.6327
  135SAPE   H3S14600   3.452   4.909   9.867 -1.7157  0.5180  2.1611
  135SAPE   C2414601   3.667   4.923   9.897  0.3642 -0.4254 -0.7586
  135SAPE   H4R14602   3.687   4.878   9.996 -1.6548 -2.2417 -1.0857
  135SAPE   H4S14603   3.734   5.007   9.868 -1.2685  0.7527 -1.2362
  135SAPE   C2514604   3.690   4.822   9.787  0.4824  0.1179 -0.0573
  135SAPE   H5R14605   3.704   4.718   9.821  1.5022  1.0082  2.5118
  135SAPE   C2614606   3.682   4.850   9.655  0.4056  0.5113  0.2349
  135SAPE   H6R14607   3.699   4.771   9.580  1.4902 -0.1073  1.1168
  135SAPE   C2714608   3.651   4.980   9.591  0.7334 -0.2923 -0.0151
  135SAPE   H7R14609   3.687   4.976   9.486 -1.3598 -1.8078 -0.7485
  135SAPE   H7S14610   3.710   5.061   9.637 -0.8892  1.4425 -0.8260
  135SAPE   C2814611   3.500   5.004   9.579 -0.1356 -0.1388 -0.5267
  135SAPE   H8R14612   3.434   4.955   9.652 -1.3426  1.8710 -0.1701
  135SAPE   C2914613   3.431   5.081   9.484  0.6168  0.0683 -0.0858
  135SAPE   H9R14614   3.321   5.087   9.485  0.6419  1.1815  2.0929
  135SAPE  C21014615   3.479   5.157   9.365  0.6080  0.2914 -0.5099
  135SAPE  H10R14616   3.590   5.154   9.367  0.6004  0.0230 -0.4573
  135SAPE  H10S14617   3.453   5.265   9.371 -0.9876 -0.1127  0.3430
  135SAPE  C21114618   3.427   5.095   9.240  0.2232 -0.4292  0.0818
  135SAPE  H11R14619   3.360   5.009   9.252  2.6281 -2.2881  1.0386
  135SAPE  C21214620   3.442   5.149   9.118  0.5672 -0.4624  0.1142
  135SAPE  H12R14621   3.402   5.093   9.032  1.4856 -0.5243 -0.2812
  135SAPE  C21314622   3.524   5.275   9.092  0.2183 -1.0558 -0.4541
  135SAPE  H13R14623   3.572   5.324   9.180 -1.2452  1.4536 -0.9593
  135SAPE  H13S14624   3.451   5.348   9.050 -0.9977 -2.3476 -0.6758
  135SAPE  C21414625   3.640   5.238   9.004 -0.7368  0.4336 -0.6858
  135SAPE  H14R14626   3.719   5.172   9.044  0.1654  2.0566  0.3170
  135SAPE  C21514627   3.665   5.287   8.881 -0.0833 -0.9081  0.4790
  135SAPE  H15R14628   3.752   5.257   8.820  0.2223  0.7311  0.0601
  135SAPE  C21614629   3.588   5.394   8.804 -0.1298 -0.0248  0.1399
  135SAPE  H16R14630   3.654   5.473   8.762  0.1422 -1.5115 -2.4224
  135SAPE  H16S14631   3.521   5.450   8.872  2.1442  1.4270  1.3238
  135SAPE  C21714632   3.503   5.338   8.696 -0.1932 -0.6147 -0.0730
  135SAPE  H17R14633   3.437   5.263   8.746 -0.8197 -0.5801 -0.8418
  135SAPE  H17S14634   3.567   5.292   8.618  0.7519 -0.1240  0.4019
  135SAPE  C21814635   3.418   5.444   8.634  0.3649 -0.3816  0.2710
  135SAPE  H18R14636   3.476   5.526   8.587  0.1778 -0.3406  0.1080
  135SAPE  H18S14637   3.368   5.498   8.717  0.5923  2.2849 -1.2235
  135SAPE  C21914638   3.327   5.384   8.531  0.1237 -0.2131 -0.3235
  135SAPE  H19R14639   3.253   5.316   8.576  1.1054 -1.5624 -0.6868
  135SAPE  H19S14640   3.397   5.319   8.473 -0.7622  1.2955 -3.3308
  135SAPE  C22014641   3.248   5.469   8.426 -0.7953  0.0312 -0.0672
  135SAPE  H20R14642   3.311   5.484   8.336  0.8920  2.1311  1.3669
  135SAPE  H20S14643   3.225   5.572   8.460 -0.4088  0.2971 -0.5994
  135SAPE  H20T14644   3.156   5.414   8.395  0.1025 -0.5352 -1.8427
  135SAPE   C3314645   3.045   5.409   9.522 -0.5001 -0.4881 -0.5187
  135SAPE   H3X14646   3.046   5.520   9.523  0.1332 -0.4678 -1.4383
  135SAPE   H3Y14647   2.938   5.382   9.531 -1.0130  1.2593 -1.0811
  135SAPE   C3414648   3.101   5.354   9.391 -0.2502  0.1461 -0.6393
  135SAPE   H4X14649   3.067   5.249   9.378  1.1436 -0.2660 -1.1325
  135SAPE   H4Y14650   3.211   5.340   9.398 -0.3735 -0.3935  0.5028
  135SAPE   C3514651   3.053   5.429   9.263  0.3148 -0.2393  0.3982
  135SAPE   H5X14652   3.091   5.533   9.271 -0.7679  0.0327  3.1149
  135SAPE   H5Y14653   2.942   5.422   9.259  0.3065  0.2795 -1.1443
  135SAPE   C3614654   3.096   5.368   9.132  0.2936  0.1074  0.0940
  135SAPE   H6X14655   3.023   5.284   9.124  0.5073 -0.4046  2.7060
  135SAPE   H6Y14656   3.192   5.316   9.151  0.6915  1.4135  1.8312
  135SAPE   C3714657   3.117   5.449   9.007 -0.1213 -0.3768  0.1886
  135SAPE   H7X14658   3.209   5.510   9.016  0.4282 -0.9832 -1.0071
  135SAPE   H7Y14659   3.036   5.523   8.992 -0.6303 -1.1417 -1.0365
  135SAPE   C3814660   3.148   5.359   8.883 -0.1432 -0.5864 -0.4121
  135SAPE   H8X14661   3.237   5.296   8.907 -0.7729 -1.2457  0.2328
  135SAPE   H8Y14662   3.182   5.420   8.797 -1.2457 -0.6455 -0.9040
  135SAPE   C3914663   3.021   5.290   8.838  0.5453  0.0264 -0.0928
  135SAPE   H9X14664   2.949   5.368   8.808 -2.1530 -2.4532 -0.4642
  135SAPE   H9Y14665   2.974   5.237   8.923  0.9148  1.4295  1.0235
  135SAPE  C31014666   3.037   5.204   8.712  0.5441 -0.0440 -0.3054
  135SAPE  H10X14667   3.070   5.264   8.625  0.6874  0.4407  0.0810
  135SAPE  H10Y14668   2.936   5.164   8.691  0.2897  0.1875  0.4296
  135SAPE  C31114669   3.129   5.087   8.730  0.0206  0.6159  0.4947
  135SAPE  H11X14670   3.231   5.121   8.757 -0.0516  2.1092 -0.9622
  135SAPE  H11Y14671   3.138   5.032   8.634 -2.1172  0.0187  0.5782
  135SAPE  C31214672   3.071   4.979   8.825  0.5294  0.3735 -0.3797
  135SAPE  H12X14673   3.010   4.913   8.759 -1.8518 -0.5125  2.4843
  135SAPE  H12Y14674   2.994   5.024   8.891 -1.4604 -3.3469  0.1300
  135SAPE  C31314675   3.169   4.904   8.914  0.2476  0.2419  0.0424
  135SAPE  H13X14676   3.106   4.823   8.957  1.0186  0.2031  1.1271
  135SAPE  H13Y14677   3.208   4.970   8.994 -2.1289  1.6550  0.1255
  135SAPE  C31414678   3.284   4.822   8.840  0.1673  0.6595  0.1195
  135SAPE  H14X14679   3.343   4.892   8.778  1.5139 -0.1428  0.4635
  135SAPE  H14Y14680   3.232   4.750   8.773 -1.5659  0.3156  1.7369
  135SAPE  C31514681   3.384   4.737   8.923 -0.5809  0.2528  0.1138
  135SAPE  H15X14682   3.461   4.700   8.852 -0.9582 -0.7575  0.2259
  135SAPE  H15Y14683   3.330   4.650   8.965 -0.2209 -0.0544 -0.0591
  135SAPE  C31614684   3.439   4.799   9.053 -0.0868  0.8740  0.2974
  135SAPE  H16X14685   3.362   4.814   9.132 -2.6447  1.0498 -2.0576
  135SAPE  H16Y14686   3.494   4.886   9.013  2.8422 -0.0344  2.0088
  135SAPE  C31714687   3.547   4.708   9.114 -0.2792 -0.3893  0.4943
  135SAPE  H17X14688   3.625   4.682   9.040 -0.2720 -1.2263  0.7863
  135SAPE  H17Y14689   3.489   4.614   9.124 -1.8294  0.3975 -0.5866
  135SAPE  C31814690   3.614   4.775   9.239  0.4024  0.7046  0.9123
  135SAPE  H18X14691   3.544   4.787   9.324  0.2484  0.3373  0.8418
  135SAPE  H18Y14692   3.648   4.873   9.200  2.4632 -0.6606 -1.0085
  135SAPE  H18Z14693   3.706   4.717   9.263  1.7260  1.4104 -1.9416
  136SAPE     N14694   4.618   6.348  10.967  0.3415 -0.6746 -0.2000
  136SAPE   HN114695   4.535   6.318  10.912  0.5765 -1.6815 -0.0208
  136SAPE   HN214696   4.617   6.450  10.989 -1.8996 -0.8426  0.8544
  136SAPE   HN314697   4.705   6.327  10.916 -0.4612 -2.6263 -0.8842
  136SAPE   C1214698   4.645   6.265  11.085  1.0500  1.3920 -0.2177
  136SAPE  H12A14699   4.556   6.274  11.151  3.4786  2.9278  3.1424
  136SAPE  H12B14700   4.723   6.317  11.144  1.2918  0.7081  0.0730
  136SAPE   C1114701   4.690   6.122  11.054 -0.2163  0.9755 -0.0021
  136SAPE  H11A14702   4.661   6.070  11.148  0.0455  1.7438  0.5177
  136SAPE  H11B14703   4.800   6.110  11.046 -0.3868  0.6604 -3.7022
  136SAPE     P14704   4.592   5.943  10.887  0.1009  0.2780 -0.4912
  136SAPE   O1314705   4.685   5.846  10.946  0.4869  0.1066  0.4469
  136SAPE   O1414706   4.447   5.921  10.901  0.4512  0.4860  0.0684
  136SAPE   O1214707   4.621   6.086  10.934  0.0261  0.4523  0.0756
  136SAPE   O1114708   4.618   5.940  10.725  0.3885 -0.4526  0.0114
  136SAPE    C114709   4.595   6.056  10.641  0.1573  0.5589 -0.0420
  136SAPE    HA14710   4.492   6.096  10.639 -1.6590 -3.5801  0.4104
  136SAPE    HB14711   4.660   6.139  10.677 -2.6411  1.8055  2.4773
  136SAPE    C214712   4.648   6.017  10.503  0.4477  0.4391 -0.3505
  136SAPE    HS14713   4.666   6.112  10.447  2.0531 -0.2227 -1.0307
  136SAPE   O2114714   4.558   5.936  10.427  0.2788  0.0466 -0.0880
  136SAPE   C2114715   4.457   5.992  10.365 -0.3553 -0.7133 -0.4008
  136SAPE   O2214716   4.434   6.112  10.370 -0.0383 -0.3874 -0.2640
  136SAPE   C2214717   4.380   5.892  10.286  0.1703  0.4756  0.1244
  136SAPE   H2R14718   4.465   5.846  10.231  1.8118  1.2131  1.9464
  136SAPE   H2S14719   4.339   5.807  10.344 -0.5874 -0.9453 -2.3622
  136SAPE    C314720   4.782   5.943  10.503  0.3203 -0.0197  0.4981
  136SAPE    HX14721   4.745   5.845  10.538  0.5520 -1.1575 -2.2187
  136SAPE    HY14722   4.854   5.994  10.572 -0.8072  2.2383  0.0869
  136SAPE   O3114723   4.822   5.946  10.364  0.0464 -0.4433  0.4183
  136SAPE   C3114724   4.901   6.038  10.322 -0.4185  0.3319  0.1737
  136SAPE   O3214725   4.952   6.130  10.387 -0.7489  0.5293 -0.2376
  136SAPE   C3214726   4.926   6.005  10.169 -0.1068  0.3791  0.0098
  136SAPE   H2X14727   4.829   6.019  10.117 -0.2883 -0.6382  0.0535
  136SAPE   H2Y14728   4.961   5.899  10.171  0.0708  0.4455  1.0660
  136SAPE   C2314729   4.272   5.958  10.197  0.2726 -1.1768 -0.3312
  136SAPE   H3R14730   4.311   6.004  10.104 -2.0093  0.3325 -0.6171
  136SAPE   H3S14731   4.223   6.039  10.254  2.0107  0.2785 -0.8247
  136SAPE   C2414732   4.164   5.860  10.158 -0.4684  0.3440  1.0759
  136SAPE   H4R14733   4.083   5.904  10.095  0.9066 -0.4447 -1.4093
  136SAPE   H4S14734   4.129   5.834  10.260 -0.6490 -0.2191  0.8733
  136SAPE   C2514735   4.219   5.739  10.085 -0.1728  1.0694 -0.2262
  136SAPE   H5R14736   4.260   5.662  10.153 -2.6624  2.7196  3.4805
  136SAPE   C2614737   4.232   5.726   9.951  0.7218 -0.0624  0.2619
  136SAPE   H6R14738   4.270   5.630   9.912  0.2333  0.2462 -1.0163
  136SAPE   C2714739   4.189   5.821   9.846  0.0807 -0.3574 -0.1239
  136SAPE   H7R14740   4.269   5.816   9.769 -1.9033  1.3145 -2.4728
  136SAPE   H7S14741   4.184   5.923   9.890  0.3205 -0.6411  0.5807
  136SAPE   C2814742   4.050   5.778   9.792 -0.8013  0.6002  0.2827
  136SAPE   H8R14743   3.974   5.747   9.865  0.3377  0.0419  1.2714
  136SAPE   C2914744   4.019   5.765   9.661  0.2305 -0.4434 -0.4954
  136SAPE   H9R14745   3.914   5.740   9.637  0.6620 -0.3458 -2.6500
  136SAPE  C21014746   4.103   5.813   9.543 -0.0198 -0.4490  0.6527
  136SAPE  H10R14747   4.180   5.886   9.577 -0.9704 -0.1725  2.2820
  136SAPE  H10S14748   4.038   5.875   9.478 -0.0088 -0.3612  0.7260
  136SAPE  C21114749   4.170   5.709   9.466 -0.5592  0.1770 -0.0512
  136SAPE  H11R14750   4.194   5.613   9.516  0.5756 -0.7805 -2.2808
  136SAPE  C21214751   4.197   5.708   9.337  0.9736 -0.0213  0.8173
  136SAPE  H12R14752   4.232   5.620   9.281  2.4146  1.9365 -1.5811
  136SAPE  C21314753   4.166   5.821   9.243 -0.3012  0.2584  0.6316
  136SAPE  H13R14754   4.242   5.820   9.162 -1.5767  0.9725 -0.6331
  136SAPE  H13S14755   4.181   5.919   9.293  0.9065 -0.1885  1.1837
  136SAPE  C21414756   4.029   5.810   9.176 -0.8290 -0.0812 -0.1638
  136SAPE  H14R14757   3.954   5.770   9.246 -1.5756 -0.6872 -1.2897
  136SAPE  C21514758   3.995   5.851   9.051 -0.6233 -0.0678 -0.3461
  136SAPE  H15R14759   3.888   5.846   9.025 -1.7168  0.8975  3.2494
  136SAPE  C21614760   4.077   5.910   8.939 -1.0287 -0.7535 -0.0851
  136SAPE  H16R14761   4.184   5.919   8.969 -1.1083 -2.5598  0.9046
  136SAPE  H16S14762   4.036   6.010   8.917  0.7467 -0.0808 -0.5248
  136SAPE  C21714763   4.080   5.827   8.808 -0.6961  0.2357  0.1611
  136SAPE  H17R14764   4.116   5.884   8.719  1.0130 -0.8107  0.1249
  136SAPE  H17S14765   3.973   5.807   8.790 -0.0860 -0.8450 -2.9820
  136SAPE  C21814766   4.166   5.704   8.798 -0.0035 -0.3376  0.5592
  136SAPE  H18R14767   4.179   5.649   8.893  0.3143 -1.0653  0.1103
  136SAPE  H18S14768   4.269   5.740   8.774 -1.3179  1.5016 -3.3336
  136SAPE  C21914769   4.128   5.595   8.697  0.1885 -0.1401  0.3338
  136SAPE  H19R14770   4.021   5.570   8.713  0.2541  0.5898  2.1821
  136SAPE  H19S14771   4.203   5.515   8.715  3.1191  2.5758  1.1360
  136SAPE  C22014772   4.155   5.639   8.544  0.2009  0.3361  0.2065
  136SAPE  H20R14773   4.262   5.670   8.540  0.3121  0.0533  0.8116
  136SAPE  H20S14774   4.090   5.728   8.526  0.3461  0.2605 -0.7418
  136SAPE  H20T14775   4.131   5.562   8.468 -2.4727  0.0180  1.2589
  136SAPE   C3314776   5.022   6.112  10.115  0.1502 -0.1208 -0.5934
  136SAPE   H3X14777   5.121   6.110  10.166 -0.1426  0.0205 -0.0059
  136SAPE   H3Y14778   4.976   6.213  10.128  1.0865  0.3633 -0.9362
  136SAPE   C3414779   5.054   6.087   9.967  0.1032 -0.7056 -0.2816
  136SAPE   H4X14780   5.039   5.981   9.939 -0.7001 -0.4641 -0.8000
  136SAPE   H4Y14781   5.163   6.106   9.952  0.4064 -0.4984  1.8988
  136SAPE   C3514782   4.962   6.169   9.879 -0.0925 -0.1685 -0.2655
  136SAPE   H5X14783   4.958   6.273   9.919  3.0952 -0.5006  1.2174
  136SAPE   H5Y14784   4.861   6.123   9.889  0.0632 -0.7250 -1.1428
  136SAPE   C3614785   5.005   6.160   9.728  0.3171 -0.5756 -0.3131
  136SAPE   H6X14786   5.026   6.053   9.707 -1.0601 -0.5395 -2.0849
  136SAPE   H6Y14787   5.105   6.206   9.717 -0.4083  0.9207 -0.8659
  136SAPE   C3714788   4.909   6.206   9.622  0.6625  0.1028  0.4572
  136SAPE   H7X14789   4.807   6.176   9.654  1.1898  1.2786  3.5966
  136SAPE   H7Y14790   4.935   6.165   9.522  1.2801  0.3150  0.5259
  136SAPE   C3814791   4.902   6.356   9.602  0.0353 -0.8947 -0.0262
  136SAPE   H8X14792   4.998   6.386   9.556  0.6452  0.3184  1.9217
  136SAPE   H8Y14793   4.881   6.387   9.707  1.0431 -2.7515  0.7639
  136SAPE   C3914794   4.785   6.399   9.513 -0.1189  0.4646 -0.3392
  136SAPE   H9X14795   4.772   6.506   9.538  4.0527  0.8591  0.9036
  136SAPE   H9Y14796   4.695   6.336   9.531  1.7960 -2.4010 -0.0783
  136SAPE  C31014797   4.835   6.405   9.370  0.9060  0.5350  0.0676
  136SAPE  H10X14798   4.860   6.299   9.348 -3.0761 -0.6729  0.6148
  136SAPE  H10Y14799   4.925   6.469   9.373  1.8947 -0.8030 -0.1397
  136SAPE  C31114800   4.720   6.448   9.282 -0.7564 -0.1773 -0.0416
  136SAPE  H11X14801   4.695   6.549   9.321 -1.6633 -1.3764  2.7218
  136SAPE  H11Y14802   4.633   6.379   9.291  0.5686 -2.0021 -0.7757
  136SAPE  C31214803   4.767   6.460   9.138 -0.1827  0.4933  0.5145
  136SAPE  H12X14804   4.865   6.512   9.136 -1.0822  2.2314 -0.7905
  136SAPE  H12Y14805   4.684   6.511   9.085  0.1501  1.6848  1.0915
  136SAPE  C31314806   4.780   6.328   9.076 -0.7568 -0.3228  0.2574
  136SAPE  H13X14807   4.682   6.279   9.093 -1.3522  0.7893  0.0754
  136SAPE  H13Y14808   4.849   6.262   9.133 -1.2259 -1.8697 -0.8975
  136SAPE  C31414809   4.822   6.329   8.924  0.2278 -0.3476  0.1619
  136SAPE  H14X14810   4.856   6.229   8.889 -0.0460 -0.0761 -0.9064
  136SAPE  H14Y14811   4.916   6.388   8.926 -0.3620  0.6174  1.3041
  136SAPE  C31514812   4.727   6.383   8.820  0.7664 -0.8034 -0.0830
  136SAPE  H15X14813   4.696   6.486   8.845 -1.0766 -1.0102 -1.3219
  136SAPE  H15Y14814   4.631   6.328   8.836 -0.6410  1.8246  1.0642
  136SAPE  C31614815   4.775   6.382   8.674  0.0561 -0.4998  0.1282
  136SAPE  H16X14816   4.765   6.276   8.641 -1.8846 -1.3525  3.0390
  136SAPE  H16Y14817   4.881   6.410   8.663 -0.1092  1.0030  1.8347
  136SAPE  C31714818   4.686   6.476   8.591  0.0993  0.1297  0.0729
  136SAPE  H17X14819   4.682   6.575   8.640 -1.6516  1.5867 -2.7461
  136SAPE  H17Y14820   4.587   6.433   8.565 -0.9905  2.1737  0.6793
  136SAPE  C31814821   4.759   6.502   8.458 -0.5004 -0.4762 -0.2584
  136SAPE  H18X14822   4.849   6.566   8.474  0.3168 -1.2822 -1.5064
  136SAPE  H18Y14823   4.690   6.552   8.388  0.7909 -1.2826 -2.1901
  136SAPE  H18Z14824   4.804   6.410   8.416  1.4942  0.8124 -1.1576
  137SAPE     N14825   2.323   2.205  10.747 -0.1486 -0.0075 -0.3790
  137SAPE   HN114826   2.275   2.250  10.667 -0.8990 -1.0710 -0.5544
  137SAPE   HN214827   2.420   2.240  10.756 -0.6827  1.8233 -1.2754
  137SAPE   HN314828   2.335   2.105  10.722  1.5501  0.1447 -0.2966
  137SAPE   C1214829   2.231   2.243  10.866  0.7669 -0.3395  0.1499
  137SAPE  H12A14830   2.288   2.298  10.944  0.6168 -0.7137  0.5287
  137SAPE  H12B14831   2.190   2.148  10.905 -0.2291 -0.3098 -0.7935
  137SAPE   C1114832   2.114   2.328  10.807 -0.4325  0.1248  0.0654
  137SAPE  H11A14833   2.157   2.425  10.775  0.1945 -0.3220 -0.4818
  137SAPE  H11B14834   2.049   2.336  10.897  2.1977  0.8211  2.0164
  137SAPE     P14835   1.901   2.236  10.681  0.2266  0.0717  0.2170
  137SAPE   O1314836   1.880   2.089  10.685 -0.0452 -0.0140 -0.3886
  137SAPE   O1414837   1.827   2.316  10.782  0.0305 -0.0757 -0.3012
  137SAPE   O1214838   2.050   2.267  10.698  0.0976  0.2839  0.3254
  137SAPE   O1114839   1.862   2.292  10.531 -0.4522 -0.5378 -0.5767
  137SAPE    C114840   1.973   2.354  10.457  1.0972  0.1983 -0.4448
  137SAPE    HA14841   1.988   2.453  10.505 -0.0656 -0.7802  2.1521
  137SAPE    HB14842   2.072   2.303  10.466  1.3821  0.5631 -1.3900
  137SAPE    C214843   1.942   2.368  10.309  0.2953  0.2537 -0.0075
  137SAPE    HS14844   2.036   2.372  10.250  0.8023  0.3943  0.8047
  137SAPE   O2114845   1.857   2.491  10.287 -0.4167 -0.1803 -0.1765
  137SAPE   C2114846   1.889   2.553  10.170 -0.0149  0.4092  0.1846
  137SAPE   O2214847   1.970   2.514  10.089  0.0513 -0.8745 -0.1280
  137SAPE   C2214848   1.795   2.673  10.157 -0.1555 -0.0159  0.6484
  137SAPE   H2R14849   1.695   2.632  10.182 -0.4072  0.3056  0.1979
  137SAPE   H2S14850   1.829   2.756  10.223 -0.0779  2.0572 -1.8194
  137SAPE    C314851   1.863   2.242  10.254 -0.4577  0.1044  0.1040
  137SAPE    HX14852   1.763   2.256  10.302  0.2445  1.0415  1.3497
  137SAPE    HY14853   1.905   2.146  10.291  1.2829  0.8383  0.0907
  137SAPE   O3114854   1.844   2.259  10.110  0.2671  0.0080 -0.2748
  137SAPE   C3114855   1.948   2.224  10.036  0.0203 -0.3349  0.1659
  137SAPE   O3214856   2.049   2.172  10.083 -0.4970 -0.0289 -0.3066
  137SAPE   C3214857   1.929   2.250   9.887  0.1140  0.5044  0.0804
  137SAPE   H2X14858   2.021   2.295   9.843  0.2046 -0.1650 -0.4386
  137SAPE   H2Y14859   1.853   2.330   9.875 -1.6702 -1.1302  0.1320
  137SAPE   C2314860   1.781   2.719  10.015 -0.5895  0.2650  0.1325
  137SAPE   H3R14861   1.700   2.795  10.009 -0.3900  0.3937 -1.1038
  137SAPE   H3S14862   1.756   2.630   9.954  3.4449 -1.9532  1.3658
  137SAPE   C2414863   1.903   2.801   9.960  0.3077  0.5837  0.5539
  137SAPE   H4R14864   2.000   2.748   9.976  0.6987  0.2313 -2.3994
  137SAPE   H4S14865   1.915   2.894  10.018 -0.7272  0.1757  1.4519
  137SAPE   C2514866   1.885   2.839   9.814 -0.0269 -0.2608 -0.2162
  137SAPE   H5R14867   1.829   2.932   9.795  1.1046  0.1807 -1.5558
  137SAPE   C2614868   1.957   2.789   9.709  0.1822 -0.2889 -0.4386
  137SAPE   H6R14869   1.926   2.840   9.616 -0.6192  3.5957  1.7529
  137SAPE   C2714870   2.052   2.670   9.708 -0.6240 -0.2353 -0.0647
  137SAPE   H7R14871   2.005   2.586   9.765 -2.6134  0.3968 -0.7106
  137SAPE   H7S14872   2.145   2.710   9.754 -0.9263 -0.0723  0.4108
  137SAPE   C2814873   2.108   2.617   9.571  0.0848 -0.5348 -0.4394
  137SAPE   H8R14874   2.218   2.615   9.568  0.2534 -0.0109  2.4047
  137SAPE   C2914875   2.057   2.593   9.449  0.7348  0.1272 -0.2337
  137SAPE   H9R14876   2.114   2.536   9.375 -0.6162 -0.1807 -1.0727
  137SAPE  C21014877   1.912   2.619   9.414  0.1983 -0.7654  0.4513
  137SAPE  H10R14878   1.913   2.667   9.314  1.9145 -2.7631 -0.5554
  137SAPE  H10S14879   1.866   2.696   9.480 -1.1666 -0.2718 -1.0062
  137SAPE  C21114880   1.822   2.495   9.418  0.5301 -0.2043 -0.3995
  137SAPE  H11R14881   1.779   2.475   9.517  0.4460  0.6664 -0.2497
  137SAPE  C21214882   1.792   2.414   9.318 -0.3287 -0.5966 -0.1168
  137SAPE  H12R14883   1.716   2.335   9.321 -0.8087 -0.1305  0.0222
  137SAPE  C21314884   1.859   2.431   9.180  0.0152  0.3170 -0.2617
  137SAPE  H13R14885   1.858   2.328   9.139  2.6647  0.2986 -0.4283
  137SAPE  H13S14886   1.968   2.446   9.195  0.2084 -1.1569 -0.0321
  137SAPE  C21414887   1.811   2.529   9.077  0.7016 -0.2531 -0.0281
  137SAPE  H14R14888   1.781   2.630   9.112  0.1574 -1.0064  1.8217
  137SAPE  C21514889   1.786   2.509   8.949 -0.3325 -0.2395  0.2156
  137SAPE  H15R14890   1.756   2.599   8.893 -1.4898 -0.8163 -0.1316
  137SAPE  C21614891   1.812   2.382   8.871  0.8031  0.8515 -0.0925
  137SAPE  H16R14892   1.722   2.326   8.838  0.8111  1.0592 -0.4755
  137SAPE  H16S14893   1.873   2.317   8.937  0.4127  0.5539 -0.0246
  137SAPE  C21714894   1.905   2.405   8.756 -0.0902 -0.6872 -0.5213
  137SAPE  H17R14895   1.948   2.307   8.726  0.2883 -1.0614  1.1456
  137SAPE  H17S14896   1.978   2.481   8.791 -1.0521 -0.2145  0.5094
  137SAPE  C21814897   1.822   2.469   8.645  0.2902  0.0845  0.1718
  137SAPE  H18R14898   1.742   2.539   8.677  0.6076  1.4356 -1.7725
  137SAPE  H18S14899   1.761   2.384   8.606  0.2455 -0.6003  1.6815
  137SAPE  C21914900   1.893   2.542   8.532 -0.6634 -0.4891 -0.5781
  137SAPE  H19R14901   1.973   2.476   8.494 -0.8414 -0.2838 -1.3327
  137SAPE  H19S14902   1.950   2.625   8.579  2.2366 -1.0123 -2.8859
  137SAPE  C22014903   1.799   2.594   8.424  0.1176 -0.0605 -0.0056
  137SAPE  H20R14904   1.853   2.637   8.337 -2.4009  0.0677 -1.6205
  137SAPE  H20S14905   1.728   2.668   8.465 -0.5494 -0.0692 -1.0998
  137SAPE  H20T14906   1.739   2.510   8.380 -1.3948  0.4969  0.9231
  137SAPE   C3314907   1.899   2.119   9.813  0.4430  0.5225  0.1764
  137SAPE   H3X14908   1.804   2.080   9.856  0.1179  0.5432 -0.5192
  137SAPE   H3Y14909   1.978   2.044   9.835  0.6615  0.4261 -0.8726
  137SAPE   C3414910   1.881   2.131   9.664 -0.9359 -0.0934  0.0219
  137SAPE   H4X14911   1.979   2.151   9.615 -0.0856  1.9731  2.3256
  137SAPE   H4Y14912   1.825   2.224   9.637  0.0356  0.0494 -1.6483
  137SAPE   C3514913   1.802   2.008   9.621  0.8181  0.0515 -0.0066
  137SAPE   H5X14914   1.721   1.987   9.694 -1.1238  0.3137 -1.9954
  137SAPE   H5Y14915   1.865   1.918   9.607 -1.2457 -1.5044  0.2013
  137SAPE   C3614916   1.723   2.032   9.493 -0.2060  0.4023 -0.1116
  137SAPE   H6X14917   1.671   2.129   9.481 -0.8911 -0.1464 -1.8054
  137SAPE   H6Y14918   1.654   1.945   9.491 -0.4648  0.5696  0.9438
  137SAPE   C3714919   1.801   2.017   9.365 -0.1232  0.0440 -0.8954
  137SAPE   H7X14920   1.852   1.918   9.356 -1.7389 -0.8884 -0.2683
  137SAPE   H7Y14921   1.877   2.097   9.357 -1.1460  0.9541 -1.8622
  137SAPE   C3814922   1.714   2.020   9.240 -0.5231 -0.0088  0.2726
  137SAPE   H8X14923   1.686   2.120   9.203 -1.9329 -0.7091 -0.6471
  137SAPE   H8Y14924   1.625   1.956   9.257  1.5050 -3.5215 -1.2026
  137SAPE   C3914925   1.788   1.960   9.111  0.4499  0.1021 -0.6141
  137SAPE   H9X14926   1.835   1.862   9.130 -1.4412 -0.6944  0.2201
  137SAPE   H9Y14927   1.869   2.033   9.087  0.2105  0.2475 -0.9884
  137SAPE  C31014928   1.694   1.935   8.996  0.2775 -0.1117  0.2621
  137SAPE  H10X14929   1.640   2.030   8.975  1.6960  0.6464 -0.0579
  137SAPE  H10Y14930   1.621   1.856   9.024 -0.1250 -0.0665 -0.6048
  137SAPE  C31114931   1.771   1.894   8.866  0.0655 -0.3507  0.1722
  137SAPE  H11X14932   1.818   1.794   8.883 -2.5736 -1.7033 -0.0481
  137SAPE  H11Y14933   1.856   1.965   8.853 -0.7278  0.5887  0.0142
  137SAPE  C31214934   1.683   1.880   8.744 -0.2673 -0.7713 -0.3263
  137SAPE  H12X14935   1.752   1.823   8.679  0.3546 -2.0478  1.3775
  137SAPE  H12Y14936   1.656   1.981   8.707 -0.6579 -0.5943  0.4199
  137SAPE  C31314937   1.551   1.811   8.764 -0.0055  0.3157 -0.1231
  137SAPE  H13X14938   1.504   1.883   8.834  3.0035  2.2996  0.0264
  137SAPE  H13Y14939   1.562   1.719   8.825  0.5270  1.1431  1.0757
  137SAPE  C31414940   1.465   1.793   8.644 -0.0757 -0.2602 -0.0029
  137SAPE  H14X14941   1.526   1.734   8.572  0.1232 -0.8057  0.6130
  137SAPE  H14Y14942   1.452   1.895   8.600  1.6774  0.6399  1.4547
  137SAPE  C31514943   1.328   1.734   8.672  0.5229 -0.1347 -0.3661
  137SAPE  H15X14944   1.272   1.797   8.744  0.9039 -2.5106  2.1958
  137SAPE  H15Y14945   1.338   1.631   8.711  0.8593  0.3854  0.9633
  137SAPE  C31614946   1.251   1.717   8.538  0.1967 -0.7039  0.3565
  137SAPE  H16X14947   1.159   1.658   8.556  0.2473 -0.7368  0.5155
  137SAPE  H16Y14948   1.314   1.670   8.460  2.7355  2.5638  0.1914
  137SAPE  C31714949   1.210   1.862   8.485  0.2855  0.8114  0.6513
  137SAPE  H17X14950   1.296   1.923   8.450  0.7274  1.4683  2.7434
  137SAPE  H17Y14951   1.147   1.910   8.563 -1.4296  0.4793 -0.4774
  137SAPE  C31814952   1.124   1.854   8.359  0.2539  0.2687 -0.2791
  137SAPE  H18X14953   1.151   1.776   8.285 -2.2877  0.2115 -1.2629
  137SAPE  H18Y14954   1.117   1.956   8.315 -1.0528  0.0968 -0.5150
  137SAPE  H18Z14955   1.021   1.829   8.395  0.1932 -0.8957 -1.2120
  138SAPE     N14956   6.052   2.670  10.765 -0.2804 -0.3372 -0.6973
  138SAPE   HN114957   6.104   2.751  10.803 -2.8448  0.8250  0.6257
  138SAPE   HN214958   5.966   2.668  10.823  0.9375 -3.9319  1.2630
  138SAPE   HN314959   6.108   2.587  10.794  0.6250  0.1395 -1.0670
  138SAPE   C1214960   6.040   2.687  10.616 -0.1517 -0.7814  0.0442
  138SAPE  H12A14961   5.955   2.620  10.589  0.1144 -0.4475 -1.7067
  138SAPE  H12B14962   6.130   2.655  10.560  0.1244  0.5793 -0.3263
  138SAPE   C1114963   5.996   2.831  10.570  0.2604 -0.1610 -1.0970
  138SAPE  H11A14964   5.991   2.830  10.459  0.3453 -3.7789 -1.1735
  138SAPE  H11B14965   6.080   2.902  10.586 -0.2464  0.2312 -0.0577
  138SAPE     P14966   5.727   2.858  10.581  0.0641 -0.0493 -0.3269
  138SAPE   O1314967   5.675   2.742  10.651 -0.2601 -0.3892 -0.3260
  138SAPE   O1414968   5.656   2.986  10.598  0.0439 -0.3717  0.6168
  138SAPE   O1214969   5.875   2.877  10.634 -0.1698 -0.4506 -0.7232
  138SAPE   O1114970   5.754   2.823  10.425  0.6553 -0.1549 -0.6338
  138SAPE    C114971   5.693   2.700  10.376  0.1049 -0.0952  0.6420
  138SAPE    HA14972   5.734   2.606  10.419 -0.3106  1.1488  4.0738
  138SAPE    HB14973   5.583   2.698  10.394  0.1015 -2.7359  0.7259
  138SAPE    C214974   5.727   2.691  10.231  0.1585  0.3960  0.3367
  138SAPE    HS14975   5.703   2.591  10.188  1.8014  0.7291 -1.4901
  138SAPE   O2114976   5.861   2.737  10.197  1.4626  0.1084  0.1828
  138SAPE   C2114977   5.947   2.640  10.226 -0.4881  0.2310  0.2080
  138SAPE   O2214978   5.923   2.538  10.283  0.7167 -0.8690 -0.4483
  138SAPE   C2214979   6.085   2.679  10.173  0.3986 -0.7969 -0.2720
  138SAPE   H2R14980   6.120   2.766  10.233 -2.4976 -0.7405  1.5450
  138SAPE   H2S14981   6.155   2.599  10.204  0.4216 -0.2812  1.0802
  138SAPE    C314982   5.635   2.789  10.151 -0.4935 -0.0524 -0.2851
  138SAPE    HX14983   5.662   2.891  10.184 -1.7248  0.5420 -1.0513
  138SAPE    HY14984   5.526   2.771  10.167  0.0027 -1.9414  1.4843
  138SAPE   O3114985   5.669   2.773  10.013  0.0492  0.6653  0.3359
  138SAPE   C3114986   5.621   2.664   9.960 -0.2997  0.7005 -0.0957
  138SAPE   O3214987   5.547   2.583  10.014 -0.0958 -0.0446 -0.2031
  138SAPE   C3214988   5.652   2.654   9.808 -0.0490 -0.1353  0.2638
  138SAPE   H2X14989   5.717   2.568   9.778  1.1088  1.4792 -2.3070
  138SAPE   H2Y14990   5.716   2.740   9.777 -0.7524 -0.3411 -1.9518
  138SAPE   C2314991   6.084   2.695  10.019  0.1146  1.0072  0.3851
  138SAPE   H3R14992   6.006   2.763   9.978  0.4303  0.0305 -2.0514
  138SAPE   H3S14993   6.060   2.594   9.979  1.6304  1.0299 -0.6762
  138SAPE   C2414994   6.217   2.726   9.956  0.1086  0.7771  0.1076
  138SAPE   H4R14995   6.244   2.827   9.992  0.8054  0.9751 -0.9504
  138SAPE   H4S14996   6.201   2.729   9.846  1.2155  0.9576 -0.0551
  138SAPE   C2514997   6.322   2.623  10.005 -0.1673 -0.3886  0.2518
  138SAPE   H5R14998   6.350   2.625  10.111  0.4810 -1.1408  0.1092
  138SAPE   C2614999   6.385   2.536   9.922  1.2066  0.7752  0.1493
  138SAPE   H6R15000   6.479   2.495   9.963  0.4367 -1.5387 -0.2551
  138SAPE   C2715001   6.374   2.519   9.779 -0.0432 -0.3781 -0.4552
  138SAPE   H7R15002   6.267   2.532   9.752  0.0538 -0.3868 -0.8511
  138SAPE   H7S15003   6.405   2.417   9.747  0.0501 -1.1410  1.8752
  138SAPE   C2815004   6.453   2.618   9.700  0.6904  0.3573 -0.3597
  138SAPE   H8R15005   6.539   2.663   9.753 -1.1937  3.6302  0.2305
  138SAPE   C2915006   6.418   2.657   9.574 -0.9302  0.5244  0.2151
  138SAPE   H9R15007   6.477   2.732   9.519 -3.1551  0.8582 -1.8801
  138SAPE  C21015008   6.298   2.597   9.502  0.0947 -0.2836 -0.3301
  138SAPE  H10R15009   6.255   2.682   9.445  0.1740  0.1487  0.2547
  138SAPE  H10S15010   6.216   2.571   9.572  0.3055 -1.5372 -0.5255
  138SAPE  C21115011   6.328   2.469   9.427  0.0718 -0.3240  0.3061
  138SAPE  H11R15012   6.330   2.384   9.497  2.1134 -1.3424 -0.9282
  138SAPE  C21215013   6.336   2.447   9.291  0.0173 -0.1985  0.4175
  138SAPE  H12R15014   6.376   2.352   9.253 -0.4785 -0.4337  0.4816
  138SAPE  C21315015   6.324   2.557   9.186 -0.3081  0.1628 -0.2071
  138SAPE  H13R15016   6.392   2.530   9.103 -0.4980  1.5280 -0.8441
  138SAPE  H13S15017   6.362   2.658   9.213  0.7061  0.4381 -2.4178
  138SAPE  C21415018   6.186   2.568   9.133  0.0236  0.3178 -0.3852
  138SAPE  H14R15019   6.110   2.511   9.189  0.2280  0.0063 -0.4246
  138SAPE  C21515020   6.154   2.631   9.018  0.5857  0.2594  0.1350
  138SAPE  H15R15021   6.047   2.643   8.998 -0.6344 -3.4596  3.2724
  138SAPE  C21615022   6.237   2.710   8.927 -0.0434  0.0621 -0.1843
  138SAPE  H16R15023   6.339   2.673   8.947 -0.9370 -1.4654  1.9040
  138SAPE  H16S15024   6.228   2.818   8.953 -2.0757  0.0095 -0.4823
  138SAPE  C21715025   6.213   2.682   8.781  0.1369 -0.4553 -0.0432
  138SAPE  H17R15026   6.271   2.756   8.722 -3.2349  1.0703 -1.7280
  138SAPE  H17S15027   6.108   2.698   8.748  0.4098  0.3787 -0.5221
  138SAPE  C21815028   6.253   2.541   8.739 -0.2351 -0.2092  0.0756
  138SAPE  H18R15029   6.189   2.462   8.784 -1.7598 -0.0620 -1.7091
  138SAPE  H18S15030   6.361   2.526   8.759 -0.0196  0.3097 -0.6750
  138SAPE  C21915031   6.243   2.529   8.589  0.4953  0.2428  0.3973
  138SAPE  H19R15032   6.312   2.603   8.543 -0.8444 -0.0134 -2.2098
  138SAPE  H19S15033   6.142   2.548   8.545  1.6346  0.7882 -2.1780
  138SAPE  C22015034   6.285   2.388   8.533 -0.4622 -0.3715 -0.3674
  138SAPE  H20R15035   6.305   2.407   8.425 -0.7723 -0.1021 -0.3788
  138SAPE  H20S15036   6.195   2.324   8.546  0.1758 -0.9648  1.2959
  138SAPE  H20T15037   6.379   2.352   8.580  0.5603  2.5373 -0.0065
  138SAPE   C3315038   5.528   2.648   9.724 -0.1186  0.0023  0.0751
  138SAPE   H3X15039   5.470   2.742   9.722 -0.3687 -0.0244  2.3878
  138SAPE   H3Y15040   5.465   2.569   9.772  0.5291 -1.0346 -0.7526
  138SAPE   C3415041   5.562   2.599   9.580  0.2801  0.2540 -0.1032
  138SAPE   H4X15042   5.578   2.489   9.584  0.1092  0.1841 -1.1237
  138SAPE   H4Y15043   5.661   2.642   9.556  3.3538 -3.3822  4.2990
  138SAPE   C3515044   5.445   2.632   9.486  0.4279 -0.3996 -0.0882
  138SAPE   H5X15045   5.409   2.737   9.480 -1.2586 -1.0611 -3.2731
  138SAPE   H5Y15046   5.354   2.575   9.514 -0.3747  0.3391 -1.1512
  138SAPE   C3615047   5.481   2.592   9.342 -0.7532  0.4065 -0.1348
  138SAPE   H6X15048   5.503   2.483   9.350 -3.1430 -0.1901 -0.8043
  138SAPE   H6Y15049   5.564   2.655   9.303  0.1486 -0.9187 -0.4214
  138SAPE   C3715050   5.369   2.597   9.250  0.1311  0.3048  0.2577
  138SAPE   H7X15051   5.340   2.704   9.242  1.1303  0.4962 -1.1396
  138SAPE   H7Y15052   5.290   2.536   9.299  1.8783 -0.9915  1.6116
  138SAPE   C3815053   5.398   2.541   9.110 -0.4592  0.1008 -0.4138
  138SAPE   H8X15054   5.463   2.451   9.120  0.1364  0.4481 -1.0131
  138SAPE   H8Y15055   5.455   2.615   9.050 -2.2415 -0.2799 -2.7438
  138SAPE   C3915056   5.269   2.497   9.037  0.4353 -0.9855 -0.0855
  138SAPE   H9X15057   5.196   2.449   9.107 -0.9541  0.1166 -0.7335
  138SAPE   H9Y15058   5.293   2.440   8.945 -0.9818 -0.0173 -1.0959
  138SAPE  C31015059   5.196   2.628   8.989  0.3518 -0.1532  0.2606
  138SAPE  H10X15060   5.271   2.686   8.930  1.0562 -0.6436  0.6472
  138SAPE  H10Y15061   5.179   2.689   9.080 -0.0224  0.2824 -0.0983
  138SAPE  C31115062   5.059   2.613   8.923 -1.3581 -0.4844 -0.5784
  138SAPE  H11X15063   4.975   2.580   8.987  1.4855  1.0565  4.5486
  138SAPE  H11Y15064   5.069   2.567   8.823 -2.2897  0.7241 -1.2549
  138SAPE  C31215065   5.023   2.752   8.871  0.6516  1.0522  0.7737
  138SAPE  H12X15066   5.106   2.811   8.826  1.9250 -0.4723  1.0408
  138SAPE  H12Y15067   5.001   2.824   8.953  0.7763  0.3057  1.4684
  138SAPE  C31315068   4.912   2.758   8.763  0.3338  0.4003 -0.1008
  138SAPE  H13X15069   4.963   2.717   8.673 -1.0863  1.4826 -1.4560
  138SAPE  H13Y15070   4.877   2.861   8.744  0.0280  0.7621  2.2030
  138SAPE  C31415071   4.789   2.673   8.796  0.6858  0.1298  0.2712
  138SAPE  H14X15072   4.733   2.729   8.873  1.0426 -1.8053  2.0144
  138SAPE  H14Y15073   4.816   2.576   8.842 -2.5613 -0.4441  1.1731
  138SAPE  C31515074   4.688   2.641   8.684  0.1060 -0.1299 -0.5147
  138SAPE  H15X15075   4.655   2.740   8.648  0.5498  0.1990 -0.0232
  138SAPE  H15Y15076   4.606   2.590   8.741  2.2410 -1.3102  1.6860
  138SAPE  C31615077   4.711   2.550   8.564 -0.8726 -0.2021 -0.4908
  138SAPE  H16X15078   4.712   2.443   8.593 -1.9997 -0.1815 -0.3165
  138SAPE  H16Y15079   4.812   2.583   8.531  0.3897 -1.2470  2.0417
  138SAPE  C31715080   4.616   2.571   8.454  0.5645  0.2071  0.2090
  138SAPE  H17X15081   4.625   2.669   8.403  2.2064 -1.4582 -3.1165
  138SAPE  H17Y15082   4.512   2.560   8.489 -0.5060  1.7024 -2.2834
  138SAPE  C31815083   4.641   2.482   8.329  0.4328 -0.2722 -0.2416
  138SAPE  H18X15084   4.618   2.374   8.344 -0.7314 -0.0858 -0.5710
  138SAPE  H18Y15085   4.746   2.496   8.295  0.5977 -0.2453  0.2632
  138SAPE  H18Z15086   4.562   2.513   8.258 -2.2391 -0.3582  2.4619
  139SAPE     N15087   3.174   1.618  10.722  0.0006 -0.5408  0.4098
  139SAPE   HN115088   3.247   1.609  10.796 -0.9724  1.3295  1.6685
  139SAPE   HN215089   3.109   1.689  10.761  1.8179  0.6279  1.4829
  139SAPE   HN315090   3.132   1.527  10.695  0.7298 -0.1809 -2.2733
  139SAPE   C1215091   3.245   1.668  10.598 -0.1558 -0.3581  0.3287
  139SAPE  H12A15092   3.302   1.761  10.621 -3.3086  1.6677  0.6598
  139SAPE  H12B15093   3.168   1.697  10.523  0.8106 -1.3611 -1.0869
  139SAPE   C1115094   3.335   1.559  10.537 -0.2426 -0.0346 -0.1237
  139SAPE  H11A15095   3.362   1.594  10.435 -0.6949 -2.8027 -1.2842
  139SAPE  H11B15096   3.280   1.463  10.529  0.3326 -0.3486 -0.3782
  139SAPE     P15097   3.588   1.577  10.579 -0.2144  0.4706 -0.2233
  139SAPE   O1315098   3.598   1.726  10.567 -0.0346 -0.3570 -0.5022
  139SAPE   O1415099   3.686   1.510  10.669  0.8107  0.6498  0.7587
  139SAPE   O1215100   3.447   1.537  10.613  0.2609  0.4237 -0.3891
  139SAPE   O1115101   3.602   1.506  10.439  0.1929 -0.0209 -0.6046
  139SAPE    C115102   3.669   1.376  10.427  0.3625 -0.3809  0.1472
  139SAPE    HA15103   3.764   1.392  10.482 -0.3521  2.4217  0.7242
  139SAPE    HB15104   3.617   1.291  10.476  0.1927 -0.4043 -0.0683
  139SAPE    C215105   3.693   1.350  10.274  0.4476 -0.0915 -0.5255
  139SAPE    HS15106   3.762   1.265  10.256  0.3607 -0.4388  0.6761
  139SAPE   O2115107   3.748   1.473  10.223  0.0846 -0.1666 -0.3190
  139SAPE   C2115108   3.882   1.489  10.242  0.4322 -0.3258  0.0860
  139SAPE   O2215109   3.961   1.414  10.292  0.1403  0.8949  0.0441
  139SAPE   C2215110   3.915   1.622  10.177 -0.3253  0.6233 -0.2255
  139SAPE   H2R15111   3.822   1.684  10.173 -2.2636 -2.1450 -0.5725
  139SAPE   H2S15112   3.981   1.680  10.246 -0.4268 -0.4316  0.7858
  139SAPE    C315113   3.561   1.314  10.195  0.5627 -0.3794  0.3832
  139SAPE    HX15114   3.484   1.393  10.203  1.0486  0.2386 -0.7255
  139SAPE    HY15115   3.521   1.224  10.247 -1.0526  0.1614  0.1200
  139SAPE   O3115116   3.596   1.283  10.052 -0.0626 -0.0481 -0.5462
  139SAPE   C3115117   3.570   1.383   9.968  0.0113  0.3799 -0.5518
  139SAPE   O3215118   3.531   1.496   9.987  0.3250 -0.3458  0.3764
  139SAPE   C3215119   3.585   1.321   9.825  0.3253 -0.1298 -0.4396
  139SAPE   H2X15120   3.492   1.351   9.772  0.5121 -0.8767 -1.2028
  139SAPE   H2Y15121   3.579   1.211   9.840 -0.5827 -0.1493 -0.8789
  139SAPE   C2315122   3.985   1.598  10.041 -0.1195 -0.3879  0.5694
  139SAPE   H3R15123   3.941   1.508   9.994 -0.4688  0.8441 -1.6010
  139SAPE   H3S15124   4.095   1.583  10.047 -0.1907 -1.1036  0.1169
  139SAPE   C2415125   3.951   1.708   9.933  0.8340 -0.1552 -0.2067
  139SAPE   H4R15126   4.033   1.710   9.859  1.6429 -1.0917  0.6337
  139SAPE   H4S15127   3.961   1.803   9.990  0.6395  0.2719 -0.8705
  139SAPE   C2515128   3.809   1.710   9.878  0.7857  0.5006 -0.3629
  139SAPE   H5R15129   3.729   1.688   9.950  3.0753 -1.6293  1.7350
  139SAPE   C2615130   3.776   1.744   9.748 -0.4267  0.1873 -0.1092
  139SAPE   H6R15131   3.671   1.725   9.720 -0.8307 -0.7818  1.8878
  139SAPE   C2715132   3.869   1.790   9.640  0.2543 -0.4662  0.1956
  139SAPE   H7R15133   3.851   1.713   9.562 -3.0500  0.5871 -0.2217
  139SAPE   H7S15134   3.977   1.792   9.668  0.4029  2.2048 -0.3164
  139SAPE   C2815135   3.834   1.920   9.567 -0.3686  1.2009 -0.4416
  139SAPE   H8R15136   3.877   2.006   9.621  0.1356  1.0218 -0.5526
  139SAPE   C2915137   3.737   1.944   9.476  0.3859 -0.3428 -0.0350
  139SAPE   H9R15138   3.723   2.043   9.431 -1.9775 -0.7164 -0.2570
  139SAPE  C21015139   3.656   1.833   9.418  0.0001  0.0261 -0.0847
  139SAPE  H10R15140   3.645   1.764   9.504  3.0907  0.8298  1.0727
  139SAPE  H10S15141   3.720   1.783   9.343  0.7630  0.0474  0.5427
  139SAPE  C21115142   3.522   1.871   9.355 -0.8814  0.3558 -0.2469
  139SAPE  H11R15143   3.444   1.918   9.417 -1.6417 -0.4867 -0.5356
  139SAPE  C21215144   3.499   1.846   9.224  0.1725  0.7040  0.0777
  139SAPE  H12R15145   3.404   1.885   9.185  0.3207  1.3903  0.3728
  139SAPE  C21315146   3.592   1.780   9.121 -0.7103 -0.0192 -0.1788
  139SAPE  H13R15147   3.549   1.682   9.092  1.4519 -0.9978 -0.2974
  139SAPE  H13S15148   3.698   1.767   9.151 -0.7279 -0.2718 -0.2286
  139SAPE  C21415149   3.591   1.864   8.991 -0.4354 -0.0504  0.4840
  139SAPE  H14R15150   3.551   1.966   8.993  0.4696  0.3171  0.3267
  139SAPE  C21515151   3.643   1.825   8.872  0.5409 -0.3162 -0.2485
  139SAPE  H15R15152   3.619   1.885   8.783 -3.1967 -1.4234 -0.1481
  139SAPE  C21615153   3.718   1.701   8.846  0.6618  0.7564  0.9131
  139SAPE  H16R15154   3.720   1.637   8.937  4.0350  1.6776  1.6229
  139SAPE  H16S15155   3.823   1.731   8.826  0.4212  1.0607  0.0357
  139SAPE  C21715156   3.666   1.609   8.732 -0.6091  0.1881 -0.2265
  139SAPE  H17R15157   3.651   1.679   8.647  1.0629  1.3522  0.3757
  139SAPE  H17S15158   3.569   1.561   8.760 -0.7907  1.3422  1.2604
  139SAPE  C21815159   3.761   1.492   8.721  0.0953 -0.4390  0.2658
  139SAPE  H18R15160   3.756   1.419   8.806  2.9038 -3.9461 -2.2567
  139SAPE  H18S15161   3.863   1.537   8.719 -0.7659  1.8129  1.9534
  139SAPE  C21915162   3.733   1.412   8.593 -0.2662 -0.3263 -0.7796
  139SAPE  H19R15163   3.810   1.332   8.593  1.7677  1.4121  2.3884
  139SAPE  H19S15164   3.740   1.483   8.508 -3.1930  0.0447 -0.8062
  139SAPE  C22015165   3.586   1.355   8.601 -0.7074 -0.0158  0.2361
  139SAPE  H20R15166   3.582   1.273   8.676 -0.7053 -0.1793  0.0596
  139SAPE  H20S15167   3.558   1.300   8.508 -1.8303 -0.4065  0.7843
  139SAPE  H20T15168   3.508   1.431   8.622 -0.0004  0.7343  0.1790
  139SAPE   C3315169   3.722   1.363   9.759  0.1632 -0.5981  0.7447
  139SAPE   H3X15170   3.808   1.331   9.822  1.2838  1.4354  0.3439
  139SAPE   H3Y15171   3.719   1.474   9.753 -2.6431 -0.6748 -1.1642
  139SAPE   C3415172   3.739   1.321   9.617  0.3231  0.2530 -0.4590
  139SAPE   H4X15173   3.741   1.211   9.604 -1.5288  0.0407  0.6906
  139SAPE   H4Y15174   3.841   1.347   9.582  0.9791 -1.4740  0.0723
  139SAPE   C3515175   3.627   1.379   9.529 -0.4591 -0.4563 -0.7885
  139SAPE   H5X15176   3.613   1.489   9.525 -1.0070 -0.4736  0.2227
  139SAPE   H5Y15177   3.525   1.344   9.556 -1.0438  1.3504 -0.5471
  139SAPE   C3615178   3.643   1.333   9.383  0.5078  0.2267 -0.4529
  139SAPE   H6X15179   3.634   1.223   9.375 -2.5324  0.3739 -0.1188
  139SAPE   H6Y15180   3.743   1.366   9.348  0.5603 -0.2455 -0.7541
  139SAPE   C3715181   3.528   1.383   9.294 -0.0816 -0.1531  0.1887
  139SAPE   H7X15182   3.546   1.491   9.272 -1.4812  0.5538  2.2066
  139SAPE   H7Y15183   3.426   1.370   9.337 -1.0607 -0.6653 -2.1183
  139SAPE   C3815184   3.533   1.318   9.155  0.2227  0.1706  0.0105
  139SAPE   H8X15185   3.501   1.212   9.159  0.2744  0.1892  1.5875
  139SAPE   H8Y15186   3.637   1.333   9.118 -0.5355 -1.0683 -2.8156
  139SAPE   C3915187   3.442   1.400   9.058  0.6296 -0.2596  0.4361
  139SAPE   H9X15188   3.499   1.494   9.041 -0.7128  0.1640 -2.4236
  139SAPE   H9Y15189   3.342   1.425   9.100  0.7597  1.1318 -0.0483
  139SAPE  C31015190   3.424   1.328   8.919  0.2470  0.0193  0.0582
  139SAPE  H10X15191   3.525   1.303   8.881  0.5849  0.5071  0.6076
  139SAPE  H10Y15192   3.377   1.402   8.851  3.4567  2.1267 -0.1137
  139SAPE  C31115193   3.344   1.200   8.920  0.8497 -0.2657 -0.2968
  139SAPE  H11X15194   3.242   1.212   8.963  0.2419  0.2153 -1.8147
  139SAPE  H11Y15195   3.398   1.137   8.995  1.4335  2.4707  1.7410
  139SAPE  C31215196   3.317   1.145   8.779  0.0829  0.1147  0.1002
  139SAPE  H12X15197   3.291   1.037   8.782 -3.0390  0.7928  0.2043
  139SAPE  H12Y15198   3.416   1.153   8.730  0.3521  1.0408  0.7647
  139SAPE  C31315199   3.198   1.216   8.699 -0.8281 -0.3305  0.3416
  139SAPE  H13X15200   3.211   1.326   8.686  0.9679 -0.7760 -2.1824
  139SAPE  H13Y15201   3.104   1.208   8.758 -0.0569  0.3519  1.7234
  139SAPE  C31415202   3.185   1.166   8.558 -0.8804 -0.6559 -0.3170
  139SAPE  H14X15203   3.170   1.056   8.546  0.7209 -0.8102 -1.2449
  139SAPE  H14Y15204   3.277   1.194   8.501 -1.0685  0.7089  0.0163
  139SAPE  C31515205   3.062   1.235   8.492 -0.7904 -0.5538  0.4463
  139SAPE  H15X15206   3.080   1.214   8.384  1.8430  1.1670  0.4784
  139SAPE  H15Y15207   3.065   1.345   8.501 -2.6508 -0.4991  0.8958
  139SAPE  C31615208   2.925   1.180   8.525 -0.5292 -0.2346 -0.5268
  139SAPE  H16X15209   2.872   1.161   8.429 -1.4449  1.4806 -0.3857
  139SAPE  H16Y15210   2.941   1.077   8.564 -1.8808  0.3742  1.8320
  139SAPE  C31715211   2.837   1.268   8.611  0.3249 -0.6816 -0.2744
  139SAPE  H17X15212   2.875   1.372   8.625 -2.9980  0.6955 -0.5061
  139SAPE  H17Y15213   2.832   1.218   8.710 -2.0983  0.5253  0.3067
  139SAPE  C31815214   2.697   1.273   8.551  0.1571  0.2705 -0.1995
  139SAPE  H18X15215   2.624   1.314   8.625  2.0835 -0.3264  2.1278
  139SAPE  H18Y15216   2.676   1.168   8.524  0.0651 -0.2362  1.7123
  139SAPE  H18Z15217   2.681   1.344   8.467 -4.2896 -0.4048 -0.1879
  140SAPE     N15218   2.614   2.586  11.032  0.3354  0.3593 -0.5747
  140SAPE   HN115219   2.658   2.621  11.119 -2.6547 -0.2448  1.3293
  140SAPE   HN215220   2.511   2.574  11.043 -0.0450 -0.2649 -3.8863
  140SAPE   HN315221   2.657   2.495  11.007 -3.0031 -1.6469  0.3749
  140SAPE   C1215222   2.648   2.697  10.935 -0.0335 -0.4115 -0.2099
  140SAPE  H12A15223   2.671   2.646  10.839 -2.5149 -0.2889 -0.9223
  140SAPE  H12B15224   2.742   2.739  10.978  0.3365 -2.4656  1.1575
  140SAPE   C1115225   2.537   2.802  10.926 -0.6889  0.3354  0.0136
  140SAPE  H11A15226   2.562   2.869  10.841 -0.3322 -0.7405 -0.7554
  140SAPE  H11B15227   2.533   2.857  11.022 -0.6260  1.0685 -0.3953
  140SAPE     P15228   2.289   2.783  10.813 -0.0338 -0.1102  0.2220
  140SAPE   O1315229   2.176   2.691  10.841 -0.8746 -0.2153 -0.3235
  140SAPE   O1415230   2.259   2.922  10.834 -0.0668 -0.4301  1.0090
  140SAPE   O1215231   2.413   2.737  10.900 -0.5178  0.0596 -0.4141
  140SAPE   O1115232   2.343   2.759  10.664 -0.8442  0.5339 -0.2583
  140SAPE    C115233   2.427   2.646  10.619 -0.4029 -0.1556  0.6927
  140SAPE    HA15234   2.533   2.674  10.637 -0.4380  1.0122 -0.7044
  140SAPE    HB15235   2.419   2.549  10.671 -2.1519 -1.3104 -1.5465
  140SAPE    C215236   2.409   2.623  10.469 -0.4009 -0.7277 -0.1901
  140SAPE    HS15237   2.473   2.534  10.447 -0.7146 -0.5102 -2.1534
  140SAPE   O2115238   2.459   2.732  10.389  0.4080  0.1118 -0.3360
  140SAPE   C2115239   2.582   2.761  10.390  0.2152 -0.2548  0.4549
  140SAPE   O2215240   2.675   2.701  10.430 -0.0099  1.0602 -0.8346
  140SAPE   C2215241   2.600   2.880  10.292 -0.1241 -0.4007 -0.2220
  140SAPE   H2R15242   2.510   2.945  10.296  0.9192  1.0186  0.7616
  140SAPE   H2S15243   2.697   2.926  10.320  0.3630 -1.6212  0.1744
  140SAPE    C315244   2.262   2.579  10.425  0.1185  0.0550 -0.2478
  140SAPE    HX15245   2.192   2.641  10.485  1.2448 -0.8040  2.0571
  140SAPE    HY15246   2.237   2.474  10.452  1.0353 -0.7993 -2.5074
  140SAPE   O3115247   2.252   2.593  10.283 -0.2132  0.4110 -0.5098
  140SAPE   C3115248   2.320   2.503  10.217  0.0637 -0.0423  0.3052
  140SAPE   O3215249   2.355   2.399  10.263 -0.3533  0.5624  0.5128
  140SAPE   C3215250   2.324   2.536  10.066  0.4319 -0.3307  0.3051
  140SAPE   H2X15251   2.413   2.602  10.059 -0.4859  1.0103  0.9014
  140SAPE   H2Y15252   2.235   2.598  10.044  1.3307  0.4005 -1.5252
  140SAPE   C2315253   2.593   2.839  10.140  0.1175  0.7792  0.2480
  140SAPE   H3R15254   2.494   2.797  10.115  1.1423 -2.2575  0.9239
  140SAPE   H3S15255   2.672   2.763  10.122  0.2852  0.5281  1.8831
  140SAPE   C2415256   2.623   2.963  10.055  0.5853 -0.2199 -0.2474
  140SAPE   H4R15257   2.662   2.926   9.958  0.2743 -1.6735  0.1598
  140SAPE   H4S15258   2.712   3.008  10.106 -0.5120 -0.1285  1.7014
  140SAPE   C2515259   2.509   3.056  10.047 -0.1910 -0.9157  0.7127
  140SAPE   H5R15260   2.489   3.096  10.147  0.2922 -3.3330  1.8481
  140SAPE   C2615261   2.426   3.070   9.940  0.4647 -0.6846  0.1034
  140SAPE   H6R15262   2.342   3.139   9.958  1.5111  0.0570  2.4287
  140SAPE   C2715263   2.408   2.985   9.818 -0.5937  0.4116 -0.0316
  140SAPE   H7R15264   2.308   3.010   9.776 -1.2032 -1.6210  0.1255
  140SAPE   H7S15265   2.406   2.881   9.856  0.4235  0.8313  1.2359
  140SAPE   C2815266   2.527   2.993   9.720 -0.1227  0.2976 -0.1134
  140SAPE   H8R15267   2.591   3.081   9.735 -0.8476  0.8056  0.0761
  140SAPE   C2915268   2.531   2.913   9.614 -0.4660 -0.2355 -0.2295
  140SAPE   H9R15269   2.608   2.936   9.540 -1.1711 -0.5970 -1.1012
  140SAPE  C21015270   2.438   2.799   9.578  0.2669  0.1096 -0.6716
  140SAPE  H10R15271   2.338   2.832   9.545 -0.5650 -0.6830  0.9538
  140SAPE  H10S15272   2.427   2.748   9.676 -0.1671  1.0844 -0.2012
  140SAPE  C21115273   2.494   2.713   9.465  0.3933 -0.6040  0.4259
  140SAPE  H11R15274   2.560   2.628   9.487  0.0160 -1.0473 -0.1402
  140SAPE  C21215275   2.463   2.738   9.332 -0.0958  0.9781 -0.4573
  140SAPE  H12R15276   2.502   2.670   9.255 -2.2932 -1.4810  0.4082
  140SAPE  C21315277   2.383   2.851   9.275 -0.1679 -0.2263 -0.2279
  140SAPE  H13R15278   2.442   2.886   9.188  2.6973 -2.7922  0.4718
  140SAPE  H13S15279   2.365   2.918   9.362 -1.4143 -2.0122  0.9609
  140SAPE  C21415280   2.247   2.806   9.228 -0.2990  0.0460  1.0347
  140SAPE  H14R15281   2.160   2.836   9.287 -0.7723  0.8959 -0.0439
  140SAPE  C21515282   2.231   2.732   9.117  0.5201  0.0948 -0.2594
  140SAPE  H15R15283   2.129   2.700   9.091  1.1943 -2.1263 -0.3024
  140SAPE  C21615284   2.338   2.676   9.028 -0.3059  0.8779  0.1106
  140SAPE  H16R15285   2.367   2.580   9.074  0.2671  0.4581 -1.1017
  140SAPE  H16S15286   2.430   2.737   9.016  0.8661 -0.3530  2.2513
  140SAPE  C21715287   2.293   2.653   8.884  0.3005 -0.3192 -0.1014
  140SAPE  H17R15288   2.213   2.576   8.890  1.2347 -1.2500  0.6905
  140SAPE  H17S15289   2.376   2.608   8.825  0.6247 -0.2302  0.2845
  140SAPE  C21815290   2.249   2.784   8.829  0.1592  0.3874 -0.3376
  140SAPE  H18R15291   2.311   2.868   8.870  0.2260  0.0626  0.2345
  140SAPE  H18S15292   2.145   2.793   8.867  0.5876 -0.7747  1.1946
  140SAPE  C21915293   2.247   2.784   8.675  0.3791  0.9573  0.0537
  140SAPE  H19R15294   2.211   2.679   8.665  1.3402  0.6155  0.0494
  140SAPE  H19S15295   2.345   2.808   8.628 -0.0880 -0.4850 -1.7538
  140SAPE  C22015296   2.142   2.886   8.613  0.0415  0.1572  0.2696
  140SAPE  H20R15297   2.129   2.865   8.505  0.9242 -0.1666  0.2142
  140SAPE  H20S15298   2.180   2.989   8.628  3.1354 -0.8925  0.5001
  140SAPE  H20T15299   2.047   2.861   8.665 -0.8544  0.0996 -1.3477
  140SAPE   C3315300   2.322   2.406   9.979  0.1721 -0.7441  0.1676
  140SAPE   H3X15301   2.225   2.363  10.011 -0.4956  1.0805  0.6759
  140SAPE   H3Y15302   2.405   2.338  10.007 -0.8741 -1.9886  0.3464
  140SAPE   C3415303   2.317   2.430   9.830  0.6262  0.5348  0.3079
  140SAPE   H4X15304   2.395   2.509   9.824  0.7268  0.6235  2.1341
  140SAPE   H4Y15305   2.222   2.477   9.796  0.2252  1.8740  2.9525
  140SAPE   C3515306   2.352   2.302   9.743 -0.3093 -0.1696  0.2076
  140SAPE   H5X15307   2.262   2.240   9.721 -0.0248 -0.3756 -0.4085
  140SAPE   H5Y15308   2.432   2.245   9.794 -0.7526 -0.8581  0.1453
  140SAPE   C3615309   2.411   2.353   9.609 -0.0627  0.2403  0.2890
  140SAPE   H6X15310   2.481   2.437   9.629 -2.1153  2.5359 -1.5694
  140SAPE   H6Y15311   2.325   2.398   9.555  2.3653  1.6530 -2.6538
  140SAPE   C3715312   2.482   2.246   9.530  0.5407 -0.2814  0.0514
  140SAPE   H7X15313   2.409   2.168   9.500 -0.6168 -0.5055  3.1652
  140SAPE   H7Y15314   2.557   2.190   9.589 -0.3995 -0.4220  1.1534
  140SAPE   C3815315   2.543   2.299   9.396  1.1457  0.2223 -0.1968
  140SAPE   H8X15316   2.617   2.375   9.429  1.3378 -1.5935  4.0259
  140SAPE   H8Y15317   2.475   2.353   9.326  2.3022  1.7413 -0.2183
  140SAPE   C3915318   2.613   2.189   9.321 -0.4521 -0.6414  1.2211
  140SAPE   H9X15319   2.551   2.101   9.293  0.8681 -1.2330  0.0833
  140SAPE   H9Y15320   2.696   2.150   9.383  0.5933  0.1246  0.3352
  140SAPE  C31015321   2.691   2.238   9.197  0.0792  0.5623 -0.0637
  140SAPE  H10X15322   2.755   2.321   9.235  0.1715  0.0816  0.8548
  140SAPE  H10Y15323   2.621   2.267   9.116 -0.0189 -2.5533 -1.2030
  140SAPE  C31115324   2.776   2.126   9.142 -0.4868  0.5397 -0.7551
  140SAPE  H11X15325   2.716   2.033   9.139  1.5417 -0.8490 -0.5091
  140SAPE  H11Y15326   2.857   2.094   9.212  0.5610 -0.8277 -2.5202
  140SAPE  C31215327   2.844   2.154   9.014 -0.3844  0.1988 -0.3333
  140SAPE  H12X15328   2.921   2.234   9.019  0.3439 -0.5229  0.3028
  140SAPE  H12Y15329   2.765   2.197   8.949  0.4389 -0.0981 -1.5713
  140SAPE  C31315330   2.896   2.034   8.948 -0.0933  0.3550 -0.7626
  140SAPE  H13X15331   2.816   1.958   8.940  0.4565 -0.6639  2.2498
  140SAPE  H13Y15332   2.971   1.987   9.015 -0.3375 -0.8079 -1.2768
  140SAPE  C31415333   2.950   2.066   8.804 -0.2750  0.2936 -0.4274
  140SAPE  H14X15334   3.045   2.121   8.823 -0.8926  0.5815  2.0674
  140SAPE  H14Y15335   2.883   2.130   8.743 -0.0536 -0.1798 -1.1921
  140SAPE  C31515336   2.975   1.938   8.723  0.6854 -0.2420 -0.0577
  140SAPE  H15X15337   3.024   1.968   8.628 -0.5299  0.9198 -0.3471
  140SAPE  H15Y15338   2.874   1.905   8.691  0.4382  2.0935 -1.9742
  140SAPE  C31615339   3.066   1.837   8.790  0.5477  0.6714  0.0212
  140SAPE  H16X15340   3.005   1.788   8.869 -1.5598 -0.4314 -2.1990
  140SAPE  H16Y15341   3.149   1.893   8.839  1.3744  0.3000 -0.9252
  140SAPE  C31715342   3.106   1.726   8.694 -0.0555  0.8676  0.1478
  140SAPE  H17X15343   3.160   1.760   8.602 -0.3963 -0.2988 -0.4992
  140SAPE  H17Y15344   3.022   1.658   8.667  0.8048  0.6169 -2.1708
  140SAPE  C31815345   3.208   1.635   8.767 -0.2871 -0.5907  0.6176
  140SAPE  H18X15346   3.274   1.581   8.696  0.8736  4.2633 -2.4816
  140SAPE  H18Y15347   3.153   1.570   8.838  0.5222 -1.3146  0.5905
  140SAPE  H18Z15348   3.277   1.696   8.830  0.0776 -0.9372  0.5514
  141SAPE     N15349   4.372   4.850  10.491 -0.5374 -0.5454 -0.3320
  141SAPE   HN115350   4.382   4.772  10.423 -0.8892  0.0785 -1.1141
  141SAPE   HN215351   4.355   4.935  10.433 -1.1338  0.6132  1.4341
  141SAPE   HN315352   4.467   4.859  10.534  0.0165 -1.7331 -1.2580
  141SAPE   C1215353   4.258   4.824  10.586  0.0967 -0.2742  0.0282
  141SAPE  H12A15354   4.174   4.769  10.540 -1.1420  0.8193  0.8807
  141SAPE  H12B15355   4.222   4.929  10.597  0.0968 -0.1092 -1.3789
  141SAPE   C1115356   4.307   4.770  10.722 -0.6647  0.0508 -0.0227
  141SAPE  H11A15357   4.354   4.670  10.711  1.1539  1.0630 -2.4918
  141SAPE  H11B15358   4.222   4.765  10.793  0.3833 -0.6514  1.2375
  141SAPE     P15359   4.547   4.827  10.809 -0.1732  0.0667 -0.4067
  141SAPE   O1315360   4.621   4.952  10.844 -0.3679 -0.5083 -0.4660
  141SAPE   O1415361   4.560   4.716  10.906 -0.1963  0.6361  0.1166
  141SAPE   O1215362   4.401   4.859  10.772 -0.4372  0.2915 -0.1046
  141SAPE   O1115363   4.598   4.774  10.672  0.4879 -0.1337 -0.2856
  141SAPE    C115364   4.734   4.734  10.649 -0.5595 -0.3694 -0.4652
  141SAPE    HA15365   4.800   4.823  10.640  0.9021 -0.8598  3.5151
  141SAPE    HB15366   4.779   4.664  10.723 -1.5316  1.2728  1.7836
  141SAPE    C215367   4.737   4.654  10.513  0.0067  0.2763 -0.6035
  141SAPE    HS15368   4.840   4.636  10.476  0.5608 -1.6727  1.6186
  141SAPE   O2115369   4.670   4.730  10.412 -0.1454 -0.3991  0.4910
  141SAPE   C2115370   4.751   4.796  10.324  0.4898  0.1255  0.6045
  141SAPE   O2215371   4.873   4.814  10.333  0.5313 -0.3009  0.5551
  141SAPE   C2215372   4.668   4.851  10.200  0.6182 -0.6162  0.1895
  141SAPE   H2R15373   4.607   4.760  10.179 -0.8310  0.3270  0.1226
  141SAPE   H2S15374   4.595   4.932  10.223  0.2750 -0.8779  0.0409
  141SAPE    C315375   4.663   4.517  10.522 -0.5361 -0.5695  0.3124
  141SAPE    HX15376   4.560   4.537  10.559 -0.7855 -0.2487 -0.5319
  141SAPE    HY15377   4.722   4.456  10.594  2.6865 -0.5555 -2.0978
  141SAPE   O3115378   4.652   4.465  10.388  0.1662 -0.3003 -0.3452
  141SAPE   C3115379   4.750   4.390  10.346  0.2896  0.4320  0.3509
  141SAPE   O3215380   4.852   4.369  10.405  0.4642  0.5920  0.2165
  141SAPE   C3215381   4.711   4.347  10.199 -0.1237  0.0153 -0.3685
  141SAPE   H2X15382   4.698   4.443  10.144  2.6569  0.9242  0.4000
  141SAPE   H2Y15383   4.618   4.292  10.224 -1.1171  1.0220 -1.6827
  141SAPE   C2315384   4.739   4.880  10.066 -0.3531 -0.0338 -0.2962
  141SAPE   H3R15385   4.798   4.788  10.047  0.4517 -0.0273  1.9119
  141SAPE   H3S15386   4.819   4.953  10.091 -1.3819  1.2581 -0.6463
  141SAPE   C2415387   4.634   4.901   9.957 -1.1376 -0.3128  0.0660
  141SAPE   H4R15388   4.665   4.963   9.870 -1.7307  0.0729  0.1265
  141SAPE   H4S15389   4.545   4.950  10.001 -0.0423  0.8638  1.0614
  141SAPE   C2515390   4.588   4.781   9.889  0.5594  0.3260  0.7926
  141SAPE   H5R15391   4.540   4.710   9.958 -0.9404 -0.3567 -0.8898
  141SAPE   C2615392   4.597   4.742   9.763 -0.3056  0.0280  0.0020
  141SAPE   H6R15393   4.541   4.654   9.728  2.1808 -1.9055  0.5636
  141SAPE   C2715394   4.662   4.811   9.648  0.3475  0.7876 -0.1899
  141SAPE   H7R15395   4.726   4.900   9.668  2.0441 -0.7394  1.6258
  141SAPE   H7S15396   4.575   4.851   9.591 -0.2173 -0.5856 -0.3302
  141SAPE   C2815397   4.733   4.720   9.558  0.2298  0.7124 -0.6663
  141SAPE   H8R15398   4.839   4.704   9.581 -0.0320  1.3239  1.1359
  141SAPE   C2915399   4.673   4.652   9.448 -0.0624 -0.6330 -0.3640
  141SAPE   H9R15400   4.741   4.590   9.389 -2.3704 -2.9588 -0.7409
  141SAPE  C21015401   4.534   4.668   9.397 -0.5546  0.4642 -0.7920
  141SAPE  H10R15402   4.536   4.738   9.311 -0.6620  0.3433 -0.8927
  141SAPE  H10S15403   4.467   4.701   9.480 -1.5513 -0.7802 -1.0702
  141SAPE  C21115404   4.485   4.531   9.346 -0.5988 -0.4797  0.8926
  141SAPE  H11R15405   4.495   4.441   9.407  2.9565 -2.0048 -1.6081
  141SAPE  C21215406   4.401   4.518   9.237 -0.4376  0.1887  0.5155
  141SAPE  H12R15407   4.358   4.418   9.222  2.4438 -1.1010  0.2133
  141SAPE  C21315408   4.353   4.623   9.141  0.2025 -0.3406  0.3975
  141SAPE  H13R15409   4.350   4.717   9.200  1.1832  1.4335 -2.2193
  141SAPE  H13S15410   4.250   4.593   9.113 -0.2342  0.5565  0.9824
  141SAPE  C21415411   4.421   4.634   9.011 -0.8291  0.3895  0.7579
  141SAPE  H14R15412   4.476   4.729   9.000 -2.8828  1.5158 -0.2739
  141SAPE  C21515413   4.413   4.555   8.899  0.6274 -0.1911 -0.7569
  141SAPE  H15R15414   4.472   4.571   8.808  0.6626  1.6516 -0.4628
  141SAPE  C21615415   4.334   4.427   8.892 -0.1602  0.0497 -0.4329
  141SAPE  H16R15416   4.235   4.441   8.845 -0.2403  1.0219 -0.0073
  141SAPE  H16S15417   4.311   4.370   8.984 -0.9124 -1.8565 -1.7315
  141SAPE  C21715418   4.406   4.325   8.799 -0.0422  0.0701  0.3088
  141SAPE  H17R15419   4.399   4.373   8.699 -0.4295  0.5426  0.5613
  141SAPE  H17S15420   4.353   4.227   8.790  2.9709 -1.7754  1.1429
  141SAPE  C21815421   4.549   4.294   8.841 -0.3065  0.5995  0.1506
  141SAPE  H18R15422   4.547   4.284   8.952 -2.9646  1.6793  0.2840
  141SAPE  H18S15423   4.605   4.387   8.816 -0.7036  0.5523 -0.9362
  141SAPE  C21915424   4.615   4.168   8.783 -0.2347  0.7335 -0.3243
  141SAPE  H19R15425   4.622   4.168   8.672  0.3652 -1.2912 -0.3369
  141SAPE  H19S15426   4.537   4.089   8.798  0.8209  0.1109  2.5689
  141SAPE  C22015427   4.747   4.129   8.836  0.0604 -0.2980 -0.4778
  141SAPE  H20R15428   4.811   4.219   8.830 -1.6635  1.0208 -0.0076
  141SAPE  H20S15429   4.798   4.049   8.779 -0.1962 -0.4208 -0.5371
  141SAPE  H20T15430   4.747   4.105   8.945  0.7295  1.8040  0.0301
  141SAPE   C3315431   4.818   4.267  10.121  0.1245  0.6941 -0.5539
  141SAPE   H3X15432   4.811   4.158  10.142 -2.1678  0.4155 -2.4132
  141SAPE   H3Y15433   4.918   4.304  10.152 -0.0797  0.6034  0.2530
  141SAPE   C3415434   4.803   4.283   9.974  0.2133 -0.2605 -0.7055
  141SAPE   H4X15435   4.869   4.214   9.917 -0.4295 -0.8920 -0.7034
  141SAPE   H4Y15436   4.844   4.380   9.937  2.4390 -0.5338  0.8590
  141SAPE   C3515437   4.664   4.260   9.920 -0.1766  0.7735 -0.1299
  141SAPE   H5X15438   4.612   4.358   9.918 -0.9653  0.4208  1.4739
  141SAPE   H5Y15439   4.606   4.195   9.988 -1.1769  2.4414  0.6697
  141SAPE   C3615440   4.660   4.191   9.778  0.0517  0.0219 -0.7063
  141SAPE   H6X15441   4.553   4.171   9.753  0.0854 -1.6205  0.3461
  141SAPE   H6Y15442   4.706   4.091   9.784  0.1323  0.1611  1.4640
  141SAPE   C3715443   4.724   4.273   9.672 -0.1640 -0.2694 -0.1343
  141SAPE   H7X15444   4.832   4.297   9.682 -0.2723 -0.2151  1.1153
  141SAPE   H7Y15445   4.686   4.377   9.664 -1.0189 -0.5617 -0.0076
  141SAPE   C3815446   4.713   4.212   9.532  0.3296  0.3128 -0.0090
  141SAPE   H8X15447   4.606   4.216   9.503  0.2261  0.7654  0.4214
  141SAPE   H8Y15448   4.735   4.104   9.519 -1.0653  0.2545 -2.5556
  141SAPE   C3915449   4.797   4.286   9.434  0.3282 -0.8163  1.0971
  141SAPE   H9X15450   4.904   4.265   9.453  0.7106 -2.0447 -1.7661
  141SAPE   H9Y15451   4.779   4.396   9.431  0.1228 -0.8306  1.7595
  141SAPE  C31015452   4.772   4.231   9.286  0.6736 -0.3400 -0.5777
  141SAPE  H10X15453   4.670   4.189   9.279 -0.3329  1.6901  0.8555
  141SAPE  H10Y15454   4.829   4.139   9.263  1.2898  0.2599 -1.5541
  141SAPE  C31115455   4.787   4.332   9.174 -0.3572  0.2422  0.6530
  141SAPE  H11X15456   4.713   4.413   9.192  1.2695  1.9787 -0.1045
  141SAPE  H11Y15457   4.753   4.278   9.083 -0.2636 -2.6643  2.2114
  141SAPE  C31215458   4.932   4.380   9.161  0.3046 -0.0628  0.5782
  141SAPE  H12X15459   4.997   4.290   9.162  0.7931  0.2858  0.4884
  141SAPE  H12Y15460   4.964   4.435   9.252  1.1939 -0.2833  0.4058
  141SAPE  C31315461   4.938   4.455   9.026 -0.1710 -0.1746 -0.1116
  141SAPE  H13X15462   4.884   4.394   8.949 -0.2357 -0.4161  0.1230
  141SAPE  H13Y15463   5.044   4.455   8.994 -0.6047  0.9459 -1.6355
  141SAPE  C31415464   4.872   4.595   9.022 -0.3848 -0.3526 -0.6863
  141SAPE  H14X15465   4.888   4.623   9.129  2.6202 -1.6235 -0.6982
  141SAPE  H14Y15466   4.762   4.602   9.012 -0.5786  1.0939  1.5800
  141SAPE  C31515467   4.954   4.700   8.936  0.0867  0.4470 -0.1010
  141SAPE  H15X15468   4.991   4.644   8.848 -0.9014  3.0863 -2.3628
  141SAPE  H15Y15469   5.039   4.734   8.997 -0.7573  2.3802  0.0864
  141SAPE  C31615470   4.866   4.820   8.888 -0.8394 -0.5578  0.2873
  141SAPE  H16X15471   4.810   4.862   8.974  0.1855 -1.8336  1.6067
  141SAPE  H16Y15472   4.783   4.785   8.821 -0.3433  0.2730 -0.7932
  141SAPE  C31715473   4.956   4.928   8.821  0.0685 -0.6449 -0.0883
  141SAPE  H17X15474   5.022   4.970   8.902 -1.5483  0.9090  0.4964
  141SAPE  H17Y15475   4.885   5.006   8.788  1.5513  0.4224 -0.8820
  141SAPE  C31815476   5.053   4.888   8.706 -0.5266 -0.0524 -0.1755
  141SAPE  H18X15477   5.004   4.836   8.621 -0.7383  0.1590 -0.1847
  141SAPE  H18Y15478   5.141   4.831   8.743  0.1680  0.8934 -0.3109
  141SAPE  H18Z15479   5.100   4.983   8.671  0.2132  0.0200  0.9473
  142SAPE     N15480   3.000   3.762  11.334  0.4475 -0.6453  0.0912
  142SAPE   HN115481   2.965   3.747  11.430  0.9752 -2.2414  0.0602
  142SAPE   HN215482   3.088   3.708  11.344 -0.1418 -1.3244  1.8903
  142SAPE   HN315483   3.020   3.862  11.314  2.0093 -0.9676 -0.0328
  142SAPE   C1215484   2.910   3.708  11.226  0.0829  0.6193  0.0619
  142SAPE  H12A15485   2.810   3.753  11.239  0.2321  0.8723  0.3468
  142SAPE  H12B15486   2.910   3.599  11.245  0.9580  0.6725  0.4259
  142SAPE   C1115487   2.955   3.727  11.085  0.7948  0.5553  0.2101
  142SAPE  H11A15488   2.942   3.834  11.057 -0.6422  0.8698  1.8535
  142SAPE  H11B15489   2.888   3.673  11.016  1.4975 -0.2928  0.1866
  142SAPE     P15490   3.182   3.736  10.961 -0.0915 -0.5432 -0.2708
  142SAPE   O1315491   3.245   3.845  11.033 -0.2816 -0.3435  0.3937
  142SAPE   O1415492   3.265   3.631  10.904  0.2355  0.2439 -0.1787
  142SAPE   O1215493   3.082   3.672  11.063  0.0581 -0.2903 -0.0732
  142SAPE   O1115494   3.081   3.787  10.853 -0.3247 -0.6194 -0.1871
  142SAPE    C115495   3.012   3.701  10.764  0.4021 -0.5511  0.1523
  142SAPE    HA15496   2.989   3.599  10.801 -1.8967 -0.6043 -1.2304
  142SAPE    HB15497   2.912   3.747  10.750  1.9593  3.2571  0.4111
  142SAPE    C215498   3.067   3.693  10.620  0.2100 -0.4499 -0.6133
  142SAPE    HS15499   3.172   3.658  10.633 -0.2306 -2.9092 -2.8293
  142SAPE   O2115500   3.059   3.818  10.559  0.0341  0.6985  0.3525
  142SAPE   C2115501   3.166   3.892  10.548 -0.0495 -0.2262  0.2754
  142SAPE   O2215502   3.274   3.871  10.603  0.5529  0.4257  0.4331
  142SAPE   C2215503   3.150   4.011  10.443 -0.0165 -0.2173 -0.0409
  142SAPE   H2R15504   3.047   4.017  10.402  0.2672  2.0143 -0.5716
  142SAPE   H2S15505   3.159   4.108  10.496 -0.0327  0.2096 -0.8145
  142SAPE    C315506   3.003   3.581  10.541 -0.0040 -0.5801 -0.0539
  142SAPE    HX15507   2.899   3.615  10.523  1.4595  4.1275 -1.1107
  142SAPE    HY15508   3.000   3.486  10.598 -1.7120  0.0129  0.9246
  142SAPE   O3115509   3.077   3.547  10.423  0.3262  0.3556  0.7210
  142SAPE   C3115510   3.021   3.577  10.300 -0.0970 -0.1963 -0.8925
  142SAPE   O3215511   2.926   3.651  10.280 -0.1795 -0.2219  0.0752
  142SAPE   C3215512   3.082   3.484  10.195  0.2940  0.2399 -0.8758
  142SAPE   H2X15513   3.082   3.378  10.229 -2.9745  0.2721 -0.4719
  142SAPE   H2Y15514   3.188   3.513  10.180 -0.0256  2.4525  0.6459
  142SAPE   C2315515   3.254   3.999  10.332  0.3275 -0.1322  0.5499
  142SAPE   H3R15516   3.357   3.988  10.372  0.5762 -0.2006 -0.0973
  142SAPE   H3S15517   3.253   4.092  10.271 -1.6613 -0.3771  0.1256
  142SAPE   C2415518   3.219   3.875  10.234  0.1383 -0.4156  0.6275
  142SAPE   H4R15519   3.130   3.895  10.171  2.2128  2.3038 -1.6840
  142SAPE   H4S15520   3.198   3.783  10.292 -2.7191  0.0847  0.5187
  142SAPE   C2515521   3.326   3.850  10.132  0.2506 -0.2877 -0.2723
  142SAPE   H5R15522   3.429   3.853  10.169  0.2194  3.1794 -0.1622
  142SAPE   C2615523   3.311   3.819  10.004 -0.1644 -0.0755 -0.0833
  142SAPE   H6R15524   3.405   3.783   9.959  1.9172  1.5628  2.6267
  142SAPE   C2715525   3.190   3.797   9.914  0.3797  0.3679  0.8612
  142SAPE   H7R15526   3.152   3.900   9.896  0.9834  0.1705 -2.1712
  142SAPE   H7S15527   3.110   3.747   9.973  1.2207 -0.5392  1.2434
  142SAPE   C2815528   3.202   3.732   9.774 -0.4627  0.3051  0.5880
  142SAPE   H8R15529   3.210   3.622   9.772 -0.4372  0.3028 -1.0813
  142SAPE   C2915530   3.227   3.789   9.654  0.1635 -0.3186 -0.1030
  142SAPE   H9R15531   3.223   3.725   9.564 -2.0703 -0.3167 -0.0561
  142SAPE  C21015532   3.238   3.939   9.627  0.5904  0.4313  0.1037
  142SAPE  H10R15533   3.184   3.998   9.704 -1.0048 -1.1881  0.2973
  142SAPE  H10S15534   3.182   3.959   9.533  0.4735  1.1562  0.3201
  142SAPE  C21115535   3.379   3.992   9.619 -0.4640 -0.7631 -0.0516
  142SAPE  H11R15536   3.424   4.011   9.718 -1.3051  2.4464 -0.1639
  142SAPE  C21215537   3.455   4.022   9.517  0.0034  0.2015  0.5406
  142SAPE  H12R15538   3.555   4.063   9.539 -0.4162  1.0724  0.8407
  142SAPE  C21315539   3.406   4.007   9.373 -0.0651 -0.6718 -0.3631
  142SAPE  H13R15540   3.306   3.959   9.368 -0.8011  0.6393  0.9098
  142SAPE  H13S15541   3.476   3.939   9.319  1.2049 -0.1711  0.5755
  142SAPE  C21415542   3.403   4.151   9.323  0.2520 -0.3273  0.8443
  142SAPE  H14R15543   3.355   4.226   9.388 -1.0621 -1.0439  0.7377
  142SAPE  C21515544   3.450   4.191   9.205 -0.0735  0.5636  0.1016
  142SAPE  H15R15545   3.451   4.298   9.178  1.7549  0.3660 -0.7450
  142SAPE  C21615546   3.505   4.107   9.093 -0.3455 -0.0753  0.2551
  142SAPE  H16R15547   3.498   3.998   9.114 -1.6688 -0.0033  0.2446
  142SAPE  H16S15548   3.613   4.131   9.082  0.1684 -2.4214 -0.3146
  142SAPE  C21715549   3.434   4.134   8.960  0.5757  0.1634  0.8550
  142SAPE  H17R15550   3.409   4.242   8.952 -2.2992 -0.5231 -1.0293
  142SAPE  H17S15551   3.335   4.084   8.971  0.2527  0.4373 -0.6593
  142SAPE  C21815552   3.515   4.086   8.834 -0.5767  0.2976 -0.3393
  142SAPE  H18R15553   3.620   4.123   8.839 -0.5358  0.6307 -2.5361
  142SAPE  H18S15554   3.467   4.136   8.748  0.7875 -1.3121 -2.1359
  142SAPE  C21915555   3.520   3.928   8.814 -0.0205 -0.3378 -0.4106
  142SAPE  H19R15556   3.428   3.884   8.772  0.3441 -0.6634 -0.8752
  142SAPE  H19S15557   3.543   3.886   8.914  2.2926 -0.5703 -0.9881
  142SAPE  C22015558   3.630   3.885   8.722  0.5726  0.1957  0.6316
  142SAPE  H20R15559   3.627   3.774   8.725 -1.5070  0.1781 -0.0319
  142SAPE  H20S15560   3.734   3.906   8.754  1.3024 -2.0592 -0.1133
  142SAPE  H20T15561   3.614   3.920   8.617  3.0630 -0.5277 -0.0476
  142SAPE   C3315562   3.001   3.470  10.063  0.4471  0.0486  0.1859
  142SAPE   H3X15563   3.024   3.554   9.993  2.4641  0.2633  1.0488
  142SAPE   H3Y15564   2.892   3.481  10.082  0.1731 -0.9127 -0.7538
  142SAPE   C3415565   3.038   3.341   9.988 -0.3629  0.2953 -0.3472
  142SAPE   H4X15566   2.977   3.352   9.896 -0.5980  0.1160 -0.2182
  142SAPE   H4Y15567   3.006   3.246  10.036 -0.3768 -0.3470 -1.6089
  142SAPE   C3515568   3.188   3.337   9.960  0.0585 -0.0695  0.7252
  142SAPE   H5X15569   3.231   3.282  10.046  1.4326  0.8210  0.6449
  142SAPE   H5Y15570   3.226   3.441   9.951  1.7510 -0.8515 -3.4721
  142SAPE   C3615571   3.217   3.273   9.825 -0.0600  0.1995 -0.4035
  142SAPE   H6X15572   3.155   3.180   9.819 -0.4249  0.4551 -0.6113
  142SAPE   H6Y15573   3.321   3.237   9.837 -0.5414 -0.9906  0.4365
  142SAPE   C3715574   3.192   3.366   9.707 -0.0518 -0.4428 -0.1076
  142SAPE   H7X15575   3.271   3.443   9.697 -1.7957  1.3508 -0.7956
  142SAPE   H7Y15576   3.098   3.421   9.728  0.3750  0.4891 -0.5556
  142SAPE   C3815577   3.200   3.286   9.577 -0.0018  0.3199  0.0368
  142SAPE   H8X15578   3.171   3.352   9.492 -2.4746  0.3528  0.8478
  142SAPE   H8Y15579   3.123   3.207   9.583 -1.6364  1.9477  2.1714
  142SAPE   C3915580   3.337   3.222   9.545 -0.3688  0.9894 -0.0615
  142SAPE   H9X15581   3.366   3.149   9.623  2.3398  0.4230 -1.4575
  142SAPE   H9Y15582   3.415   3.301   9.533  0.2637  0.1757 -1.5395
  142SAPE  C31015583   3.345   3.138   9.421 -0.2048 -0.4166 -0.4084
  142SAPE  H10X15584   3.444   3.088   9.428 -1.1642 -2.1695  3.8413
  142SAPE  H10Y15585   3.334   3.212   9.339  2.3095  3.6727  2.5894
  142SAPE  C31115586   3.241   3.023   9.413 -0.5737 -0.3819 -0.7741
  142SAPE  H11X15587   3.142   3.068   9.436  0.2923  0.9033  0.7299
  142SAPE  H11Y15588   3.255   2.945   9.491 -1.7779 -1.1963 -1.3402
  142SAPE  C31215589   3.247   2.962   9.271  0.3481  0.0145 -0.1761
  142SAPE  H12X15590   3.192   2.866   9.258  1.6068 -0.9997  1.6037
  142SAPE  H12Y15591   3.350   2.922   9.270 -0.4195 -2.1589  0.6970
  142SAPE  C31315592   3.187   3.044   9.162  0.6215 -0.2329  0.7514
  142SAPE  H13X15593   3.177   3.148   9.200 -1.0746 -0.9290  2.3672
  142SAPE  H13Y15594   3.080   3.017   9.149  0.6258 -0.9380  2.0311
  142SAPE  C31415595   3.261   3.032   9.028  1.1784  0.9584 -0.1591
  142SAPE  H14X15596   3.368   3.057   9.046  2.7316 -4.2743 -0.6054
  142SAPE  H14Y15597   3.217   3.102   8.953 -3.0500 -0.3180  0.8345
  142SAPE  C31515598   3.269   2.890   8.957  0.4928  0.0629  0.1256
  142SAPE  H15X15599   3.176   2.830   8.965 -0.6054  1.3830 -1.8168
  142SAPE  H15Y15600   3.353   2.834   9.003  0.4344 -0.2831 -0.1879
  142SAPE  C31615601   3.318   2.900   8.808  0.0840 -0.0774 -0.3051
  142SAPE  H16X15602   3.370   2.801   8.802 -2.6105 -1.6743  0.9699
  142SAPE  H16Y15603   3.385   2.987   8.793 -3.2696  2.3551 -2.6442
  142SAPE  C31715604   3.201   2.900   8.714 -0.1257  0.5090 -0.3949
  142SAPE  H17X15605   3.127   2.981   8.731  0.0364  0.1446  2.5958
  142SAPE  H17Y15606   3.152   2.801   8.702 -2.5971  1.8460 -2.4429
  142SAPE  C31815607   3.258   2.921   8.573 -0.0489  0.9027 -0.9824
  142SAPE  H18X15608   3.308   3.019   8.557  0.2439  0.5332 -2.4648
  142SAPE  H18Y15609   3.168   2.918   8.509  0.3919  0.3931 -1.5949
  142SAPE  H18Z15610   3.325   2.845   8.526 -1.4355  0.0664 -1.6569
  143SAPE     N15611   5.668   3.470  11.001 -0.2484  0.6169  0.7821
  143SAPE   HN115612   5.596   3.529  11.048  0.0717  2.6027 -1.0244
  143SAPE   HN215613   5.681   3.518  10.909  0.0159  0.8834  0.9548
  143SAPE   HN315614   5.635   3.372  10.995 -4.0177  1.6836  1.7105
  143SAPE   C1215615   5.800   3.478  11.070 -0.3721 -0.1869 -0.0423
  143SAPE  H12A15616   5.880   3.427  11.012  1.0683  1.3110  0.5330
  143SAPE  H12B15617   5.793   3.423  11.166  2.3434  0.6933  0.7542
  143SAPE   C1115618   5.842   3.618  11.102  0.5068 -1.1307  0.2751
  143SAPE  H11A15619   5.942   3.613  11.151  0.0899 -0.9859  1.1548
  143SAPE  H11B15620   5.764   3.651  11.173 -1.4536 -1.5233 -1.5911
  143SAPE     P15621   5.826   3.866  11.026  0.2778  0.0390  0.3554
  143SAPE   O1315622   5.688   3.887  11.062 -0.1536 -0.8278 -0.3866
  143SAPE   O1415623   5.942   3.903  11.107 -0.8732 -0.2191  0.0895
  143SAPE   O1215624   5.838   3.711  10.996  0.0856 -0.1681  0.1392
  143SAPE   O1115625   5.854   3.944  10.895  0.1960  0.0693 -0.6271
  143SAPE    C115626   5.853   3.882  10.763  0.0674  0.2678 -0.6528
  143SAPE    HA15627   5.941   3.920  10.706 -0.8101  1.3907 -1.3006
  143SAPE    HB15628   5.854   3.771  10.776 -2.6750  0.1737 -0.6145
  143SAPE    C215629   5.720   3.903  10.680  0.6127 -0.2690  0.7041
  143SAPE    HS15630   5.626   3.862  10.722  0.2540  0.1214  0.2874
  143SAPE   O2115631   5.740   3.845  10.549  0.3174  0.3494  0.1145
  143SAPE   C2115632   5.647   3.769  10.509 -0.4560  0.0434 -0.2488
  143SAPE   O2215633   5.538   3.749  10.564 -0.3849  0.5000 -0.1605
  143SAPE   C2215634   5.678   3.706  10.374  0.3736  0.1301 -0.3453
  143SAPE   H2R15635   5.716   3.605  10.402  1.2579  0.4260 -0.4302
  143SAPE   H2S15636   5.583   3.695  10.318 -0.0659  1.6823  0.0698
  143SAPE    C315637   5.698   4.059  10.652  0.6398 -0.3432 -0.4261
  143SAPE    HX15638   5.798   4.104  10.635 -1.1260  3.1551 -2.8166
  143SAPE    HY15639   5.659   4.094  10.751 -0.1138 -0.6968 -0.5953
  143SAPE   O3115640   5.599   4.086  10.552  0.4784 -0.1290 -0.0579
  143SAPE   C3115641   5.635   4.149  10.441  0.8489  0.3983  0.2713
  143SAPE   O3215642   5.748   4.176  10.406 -0.1466  0.1030  0.0684
  143SAPE   C3215643   5.517   4.170  10.350  0.5972  0.4034  0.2448
  143SAPE   H2X15644   5.466   4.262  10.385  1.4637  0.0572  2.6182
  143SAPE   H2Y15645   5.452   4.080  10.356 -0.4633  1.1831  0.8249
  143SAPE   C2315646   5.786   3.782  10.296 -0.6514 -0.1575  0.3049
  143SAPE   H3R15647   5.875   3.808  10.357 -0.6251  0.8132 -0.1361
  143SAPE   H3S15648   5.732   3.877  10.277 -3.4992 -1.0183  3.1854
  143SAPE   C2415649   5.823   3.703  10.163 -0.5053  0.3281 -0.4077
  143SAPE   H4R15650   5.865   3.774  10.088 -0.6766  0.4734 -0.3651
  143SAPE   H4S15651   5.722   3.671  10.131 -1.0500  1.3696  0.2481
  143SAPE   C2515652   5.914   3.583  10.191  0.1167 -0.1500 -0.1961
  143SAPE   H5R15653   5.920   3.552  10.296  2.2697 -3.2324 -1.0905
  143SAPE   C2615654   6.009   3.537  10.110  0.4035  0.3625 -0.2658
  143SAPE   H6R15655   6.043   3.438  10.141 -1.1348  0.8425  3.4469
  143SAPE   C2715656   6.045   3.571   9.966  0.4149  0.4323 -0.6168
  143SAPE   H7R15657   6.125   3.647   9.959 -0.1549  1.0274 -0.8360
  143SAPE   H7S15658   5.949   3.606   9.922  1.0646  1.8746 -0.9468
  143SAPE   C2815659   6.094   3.462   9.871 -0.2358  0.3534 -0.1897
  143SAPE   H8R15660   6.156   3.391   9.928 -1.3302  0.8642  1.7254
  143SAPE   C2915661   6.064   3.451   9.739  0.4289 -0.0320 -0.1028
  143SAPE   H9R15662   6.119   3.372   9.685  0.3038  0.4150 -0.9031
  143SAPE  C21015663   5.988   3.542   9.641  0.0938  0.3501 -0.5376
  143SAPE  H10R15664   5.953   3.635   9.690  0.1694 -0.3411  0.8786
  143SAPE  H10S15665   5.899   3.492   9.596 -0.5978  1.5573 -0.5630
  143SAPE  C21115666   6.082   3.578   9.535  0.6306 -0.3994 -0.2273
  143SAPE  H11R15667   6.156   3.654   9.567  0.3398 -0.5518  0.8562
  143SAPE  C21215668   6.093   3.529   9.413  0.7725  0.2183  0.4573
  143SAPE  H12R15669   6.168   3.565   9.341 -0.3841  0.9399 -0.3974
  143SAPE  C21315670   5.998   3.423   9.353  0.4538 -0.4309 -0.3126
  143SAPE  H13R15671   5.902   3.434   9.406  1.3881  0.1049  1.3285
  143SAPE  H13S15672   6.042   3.322   9.368  1.8632  0.0051 -1.2870
  143SAPE  C21415673   5.964   3.436   9.206 -0.4278  1.0731 -0.2904
  143SAPE  H14R15674   5.976   3.539   9.169  2.5855  0.5869 -0.9219
  143SAPE  C21515675   5.946   3.343   9.110 -0.2046  0.4844  0.6293
  143SAPE  H15R15676   5.911   3.383   9.014  1.7553  0.1466 -0.2822
  143SAPE  C21615677   5.952   3.191   9.119  0.4740  0.1715  0.0474
  143SAPE  H16R15678   5.851   3.147   9.129  0.5600  0.1810  1.1041
  143SAPE  H16S15679   6.015   3.166   9.208 -1.0748  1.6738  1.6318
  143SAPE  C21715680   6.006   3.104   9.001 -0.1689 -0.5844  0.4592
  143SAPE  H17R15681   6.003   2.995   9.023 -1.0048 -0.9605 -1.3582
  143SAPE  H17S15682   6.112   3.133   8.986 -0.3564 -0.9471 -1.8794
  143SAPE  C21815683   5.936   3.127   8.869  0.7837 -0.4241  0.0857
  143SAPE  H18R15684   5.939   3.235   8.843  1.0981 -0.3018  0.6087
  143SAPE  H18S15685   5.828   3.107   8.884  1.0662 -1.3593  0.9544
  143SAPE  C21915686   5.996   3.045   8.753  0.7767  0.8968  0.6063
  143SAPE  H19R15687   5.932   3.064   8.664 -0.8689  0.1986  1.5853
  143SAPE  H19S15688   6.010   2.937   8.775 -0.5798  0.7947  1.0685
  143SAPE  C22015689   6.133   3.095   8.727 -0.0191  0.9246 -0.4124
  143SAPE  H20R15690   6.166   3.047   8.632  1.0236 -1.4028  1.0417
  143SAPE  H20S15691   6.198   3.065   8.811 -1.1655 -1.4618 -0.3023
  143SAPE  H20T15692   6.139   3.204   8.704  0.7957  0.9083 -0.2944
  143SAPE   C3315693   5.540   4.209  10.195  1.0684  0.2966 -0.5493
  143SAPE   H3X15694   5.618   4.288  10.193  2.7134 -1.1275  1.8789
  143SAPE   H3Y15695   5.450   4.259  10.154  2.8522  3.2958 -1.1130
  143SAPE   C3415696   5.591   4.096  10.108  0.1164 -0.5624  0.7221
  143SAPE   H4X15697   5.677   4.054  10.166  0.3837  0.3410  1.0001
  143SAPE   H4Y15698   5.639   4.133  10.015  0.9850 -0.1326  1.3204
  143SAPE   C3515699   5.481   3.992  10.078 -0.2312  0.3773  0.8410
  143SAPE   H5X15700   5.398   4.040  10.023  1.1867  1.5739 -0.3399
  143SAPE   H5Y15701   5.442   3.950  10.173  2.3894 -0.7155  1.5374
  143SAPE   C3615702   5.527   3.879   9.990 -0.5503  0.1742  0.0119
  143SAPE   H6X15703   5.443   3.807   9.987 -1.2102  0.9409 -0.0979
  143SAPE   H6Y15704   5.613   3.818  10.025 -2.1901 -2.7699 -0.7323
  143SAPE   C3715705   5.549   3.922   9.845  0.1562 -0.0469 -0.0035
  143SAPE   H7X15706   5.644   3.978   9.831 -0.0450 -0.1200 -2.0036
  143SAPE   H7Y15707   5.456   3.973   9.812  1.0030  0.0029 -2.5126
  143SAPE   C3815708   5.570   3.809   9.741  0.0459  0.0715  0.3076
  143SAPE   H8X15709   5.497   3.728   9.763  1.6678 -1.7363 -0.6052
  143SAPE   H8Y15710   5.671   3.763   9.749  0.4576  0.9495  0.2330
  143SAPE   C3915711   5.577   3.860   9.604 -0.2705 -0.5415  0.1343
  143SAPE   H9X15712   5.660   3.934   9.604 -2.2480  1.8050  0.2046
  143SAPE   H9Y15713   5.492   3.926   9.579 -0.5045 -0.8976 -0.0217
  143SAPE  C31015714   5.595   3.771   9.478 -0.5271  0.0753  0.4066
  143SAPE  H10X15715   5.509   3.702   9.481 -1.5452  1.2786 -0.1857
  143SAPE  H10Y15716   5.682   3.703   9.491 -1.7275 -1.3703  1.1747
  143SAPE  C31115717   5.608   3.855   9.350  0.6302 -0.3173 -0.1125
  143SAPE  H11X15718   5.710   3.896   9.340  0.3531  1.0047  1.9215
  143SAPE  H11Y15719   5.534   3.938   9.357  0.2893 -0.5535 -0.8012
  143SAPE  C31215720   5.573   3.773   9.219 -0.1067  0.6604 -0.7944
  143SAPE  H12X15721   5.599   3.837   9.132 -0.8411  4.3358  1.4777
  143SAPE  H12Y15722   5.463   3.784   9.228  0.1886  2.3314  1.8862
  143SAPE  C31315723   5.629   3.629   9.212 -0.3672  0.0821 -0.3625
  143SAPE  H13X15724   5.597   3.568   9.299  0.0829  1.3871  0.7622
  143SAPE  H13Y15725   5.739   3.641   9.219 -0.4138  0.4478 -0.2244
  143SAPE  C31415726   5.604   3.564   9.075 -0.0594 -0.6244 -0.1104
  143SAPE  H14X15727   5.500   3.599   9.056  0.9521  1.5878 -2.0300
  143SAPE  H14Y15728   5.610   3.453   9.076  1.3665 -0.5921  2.2743
  143SAPE  C31515729   5.701   3.618   8.970  0.0939  0.6815  0.8854
  143SAPE  H15X15730   5.798   3.572   9.001 -1.4504 -4.2674 -0.5913
  143SAPE  H15Y15731   5.707   3.728   8.980 -0.7015  0.7687  0.4860
  143SAPE  C31615732   5.656   3.585   8.827  0.1156  0.4207 -0.2748
  143SAPE  H16X15733   5.551   3.616   8.806  0.2034 -0.9129 -3.3353
  143SAPE  H16Y15734   5.655   3.474   8.823  2.4333  0.3682 -3.0268
  143SAPE  C31715735   5.748   3.657   8.727  1.1941  0.0202  0.1601
  143SAPE  H17X15736   5.724   3.616   8.626  3.8105 -1.3864  0.0140
  143SAPE  H17Y15737   5.851   3.625   8.751  1.0140  0.3613  1.4263
  143SAPE  C31815738   5.732   3.808   8.726  0.6214 -0.2088 -0.9176
  143SAPE  H18X15739   5.806   3.857   8.659  1.1838  0.6705  0.3093
  143SAPE  H18Y15740   5.760   3.849   8.825  0.0560 -0.4370 -0.6583
  143SAPE  H18Z15741   5.628   3.845   8.714  1.0004  1.2077 -0.0805
  144SAPE     N15742   1.831   3.403  10.982 -0.3094  0.5405  0.5544
  144SAPE   HN115743   1.895   3.418  11.062 -1.6030  0.3139  1.6721
  144SAPE   HN215744   1.747   3.351  11.016 -0.1518  0.9077  1.5420
  144SAPE   HN315745   1.886   3.335  10.926  1.0717  0.2553  2.1990
  144SAPE   C1215746   1.788   3.533  10.918 -0.6078 -0.2109  0.0913
  144SAPE  H12A15747   1.878   3.589  10.887 -0.4270 -0.4943  0.1008
  144SAPE  H12B15748   1.743   3.597  10.997  1.4691  3.3381 -1.3735
  144SAPE   C1115749   1.705   3.520  10.791  0.0115  0.1808 -0.6981
  144SAPE  H11A15750   1.758   3.449  10.725 -1.2928  0.0086 -1.6022
  144SAPE  H11B15751   1.699   3.617  10.738 -1.6146  0.9884  0.8611
  144SAPE     P15752   1.448   3.536  10.871 -0.1621 -0.7966  0.1906
  144SAPE   O1315753   1.357   3.434  10.927 -0.1652 -0.1652 -0.0346
  144SAPE   O1415754   1.487   3.655  10.944 -0.7479  0.0056 -0.2395
  144SAPE   O1215755   1.577   3.451  10.823 -0.3355 -0.2053 -0.5124
  144SAPE   O1115756   1.376   3.600  10.736 -0.4374  0.1798 -0.1721
  144SAPE    C115757   1.400   3.519  10.613  0.8767 -0.6066 -0.0045
  144SAPE    HA15758   1.423   3.411  10.626  0.3181 -0.8307 -0.7690
  144SAPE    HB15759   1.300   3.515  10.564  0.3653 -1.4047  1.0546
  144SAPE    C215760   1.489   3.578  10.507  0.3823 -0.8014  0.0442
  144SAPE    HS15761   1.592   3.601  10.540  0.1378  0.1726  0.1564
  144SAPE   O2115762   1.431   3.704  10.468  0.8853 -0.4028 -0.5846
  144SAPE   C2115763   1.469   3.808  10.536 -0.4028 -0.0174  0.0638
  144SAPE   O2215764   1.574   3.813  10.603 -0.5806  0.2768  0.0217
  144SAPE   C2215765   1.365   3.915  10.516  0.3007  0.2993  0.6712
  144SAPE   H2R15766   1.290   3.878  10.443  0.3353 -0.3360  0.9535
  144SAPE   H2S15767   1.311   3.935  10.612 -0.2974  1.9598  0.0376
  144SAPE    C315768   1.501   3.478  10.383 -0.1435  0.2696 -0.3526
  144SAPE    HX15769   1.395   3.446  10.375  0.0249 -0.9460  1.6005
  144SAPE    HY15770   1.568   3.394  10.412 -0.3375  1.0692  2.8038
  144SAPE   O3115771   1.537   3.530  10.254 -0.5538 -0.1265  0.1706
  144SAPE   C3115772   1.662   3.581  10.233  0.5769 -0.0304 -0.0822
  144SAPE   O3215773   1.749   3.577  10.319  0.6108  0.3467  0.3084
  144SAPE   C3215774   1.657   3.657  10.098 -0.3393  0.1324  0.3450
  144SAPE   H2X15775   1.567   3.722  10.088  0.6928  2.0610  2.4780
  144SAPE   H2Y15776   1.658   3.578  10.021  0.8865 -0.7639  1.2332
  144SAPE   C2315777   1.429   4.044  10.476 -0.5356  0.3308 -0.5686
  144SAPE   H3R15778   1.502   4.064  10.557 -1.1076  0.6648 -0.1298
  144SAPE   H3S15779   1.355   4.127  10.482  1.6005  2.5210 -2.2836
  144SAPE   C2415780   1.497   4.037  10.341 -0.9746 -0.2364  0.7888
  144SAPE   H4R15781   1.428   3.994  10.266 -1.5030 -0.8176  1.5917
  144SAPE   H4S15782   1.592   3.980  10.339  0.6162  2.0422  3.6678
  144SAPE   C2515783   1.523   4.179  10.296  0.5810 -0.2082  0.2810
  144SAPE   H5R15784   1.616   4.222  10.337  0.7045  0.2786 -0.4835
  144SAPE   C2615785   1.458   4.257  10.204  0.0544  0.9592 -1.0564
  144SAPE   H6R15786   1.487   4.363  10.199 -0.4769  1.1179 -0.8770
  144SAPE   C2715787   1.334   4.221  10.125 -0.4917  0.0480 -0.3932
  144SAPE   H7R15788   1.241   4.214  10.185 -0.6020 -2.5486 -0.7409
  144SAPE   H7S15789   1.348   4.118  10.086 -1.7018 -0.1523 -0.3209
  144SAPE   C2815790   1.314   4.322  10.017 -0.1083 -0.2910 -0.4088
  144SAPE   H8R15791   1.248   4.406  10.046  1.2853  0.6685  0.0801
  144SAPE   C2915792   1.355   4.316   9.884 -0.0444 -0.0197 -0.3691
  144SAPE   H9R15793   1.325   4.394   9.813  0.6178  0.6720  0.1043
  144SAPE  C21015794   1.442   4.217   9.825 -0.0065  0.9677  0.3621
  144SAPE  H10R15795   1.490   4.153   9.902 -1.5739  1.8320  2.1420
  144SAPE  H10S15796   1.517   4.259   9.755  1.0913 -0.0391  0.9010
  144SAPE  C21115797   1.369   4.119   9.736  0.0699  0.3723  0.0658
  144SAPE  H11R15798   1.314   4.047   9.799  1.5619  0.1290  1.1635
  144SAPE  C21215799   1.369   4.098   9.598  0.1273  0.9726  0.6202
  144SAPE  H12R15800   1.308   4.017   9.557 -0.3402  0.5528  2.0861
  144SAPE  C21315801   1.448   4.166   9.488  0.3426 -0.0171 -0.8541
  144SAPE  H13R15802   1.503   4.257   9.519  2.8511 -1.8504  0.5366
  144SAPE  H13S15803   1.375   4.198   9.410  1.8679  1.8108 -1.6291
  144SAPE  C21415804   1.554   4.066   9.446 -0.4935 -0.7383 -0.5481
  144SAPE  H14R15805   1.610   4.021   9.529 -2.0776  2.4309  2.5053
  144SAPE  C21515806   1.586   4.036   9.317  0.1461 -0.5862 -0.4768
  144SAPE  H15R15807   1.670   3.965   9.313  1.3456  0.6474  1.2746
  144SAPE  C21615808   1.523   4.102   9.202  0.1836 -0.4267  0.9300
  144SAPE  H16R15809   1.567   4.204   9.196 -0.1939 -0.2743  0.6763
  144SAPE  H16S15810   1.413   4.098   9.219  0.0952 -2.2603  0.1530
  144SAPE  C21715811   1.543   4.037   9.060 -0.0588 -0.2225 -0.5810
  144SAPE  H17R15812   1.650   4.018   9.039 -0.3881  0.1544 -2.7772
  144SAPE  H17S15813   1.505   4.106   8.982 -2.1866  0.8804  1.2987
  144SAPE  C21815814   1.472   3.896   9.036 -0.4008  0.3852  0.8213
  144SAPE  H18R15815   1.462   3.880   8.927  1.1487  0.2657  0.6753
  144SAPE  H18S15816   1.374   3.894   9.088 -2.1501  1.7676 -2.1894
  144SAPE  C21915817   1.562   3.783   9.095  0.3346  1.0533  0.0707
  144SAPE  H19R15818   1.538   3.780   9.204 -0.6530 -2.8627 -0.0921
  144SAPE  H19S15819   1.668   3.803   9.068 -0.0302  1.6066 -1.0020
  144SAPE  C22015820   1.518   3.654   9.030 -0.8547 -0.6375  0.7912
  144SAPE  H20R15821   1.413   3.636   9.061 -0.8048  0.3356  1.5925
  144SAPE  H20S15822   1.589   3.573   9.056 -0.1873 -0.2994  0.0729
  144SAPE  H20T15823   1.529   3.668   8.921 -0.0255 -0.2685  0.9081
  144SAPE   C3315824   1.781   3.750  10.065 -0.2582  0.9655 -0.6628
  144SAPE   H3X15825   1.867   3.685  10.039 -0.6224  0.8327 -1.5890
  144SAPE   H3Y15826   1.806   3.804  10.159 -2.5310 -1.2792  1.3688
  144SAPE   C3415827   1.753   3.852   9.952  1.1157  0.7267  0.0443
  144SAPE   H4X15828   1.847   3.898   9.916  2.2445  0.5567  2.5655
  144SAPE   H4Y15829   1.677   3.926   9.986 -1.8336 -1.4456 -1.3891
  144SAPE   C3515830   1.693   3.792   9.823 -0.3371  0.7319 -0.5529
  144SAPE   H5X15831   1.660   3.882   9.767 -1.8834  0.8263  0.4534
  144SAPE   H5Y15832   1.606   3.727   9.848 -1.4569  2.9299  1.7143
  144SAPE   C3615833   1.798   3.717   9.734  1.0513  0.2780  0.6643
  144SAPE   H6X15834   1.817   3.623   9.790 -0.6119  1.2274  3.0109
  144SAPE   H6Y15835   1.888   3.779   9.716  0.3904  0.4271 -2.8773
  144SAPE   C3715836   1.736   3.669   9.603 -0.3995 -0.0559 -0.1022
  144SAPE   H7X15837   1.682   3.756   9.561 -1.3702 -0.8887 -0.6167
  144SAPE   H7Y15838   1.659   3.591   9.621  0.7852 -1.0309  0.9471
  144SAPE   C3815839   1.843   3.613   9.511  0.2133  0.2822  0.4804
  144SAPE   H8X15840   1.859   3.506   9.536 -1.6420  0.0778  0.9642
  144SAPE   H8Y15841   1.944   3.658   9.520  0.4224  0.0944 -0.7484
  144SAPE   C3915842   1.805   3.623   9.362  0.2288  0.0639  0.0754
  144SAPE   H9X15843   1.780   3.729   9.337  0.5904  0.1897  0.2445
  144SAPE   H9Y15844   1.720   3.557   9.335 -0.2030 -1.1134  3.7299
  144SAPE  C31015845   1.920   3.589   9.274 -0.1111 -0.2234  0.3501
  144SAPE  H10X15846   1.930   3.479   9.275  1.3562 -0.1170 -0.0312
  144SAPE  H10Y15847   2.016   3.623   9.319  0.7391 -1.9929 -0.0501
  144SAPE  C31115848   1.902   3.646   9.133  0.5644  0.3215  0.6995
  144SAPE  H11X15849   1.886   3.756   9.142  1.3441  0.6888 -1.8012
  144SAPE  H11Y15850   1.807   3.593   9.110 -0.7130  1.8356  2.1527
  144SAPE  C31215851   2.015   3.624   9.033  0.7986 -0.3313 -0.4108
  144SAPE  H12X15852   2.032   3.519   9.000  1.9415 -0.0610 -0.7426
  144SAPE  H12Y15853   2.104   3.671   9.080  0.6048 -3.0488  3.1139
  144SAPE  C31315854   1.995   3.695   8.901  0.2875 -0.1217  0.0960
  144SAPE  H13X15855   2.087   3.680   8.840  0.0790  0.6191 -0.4185
  144SAPE  H13Y15856   1.980   3.804   8.919  0.0616 -0.1559  0.1175
  144SAPE  C31415857   1.872   3.644   8.818 -1.0574 -0.3904 -0.1237
  144SAPE  H14X15858   1.781   3.676   8.874 -0.3686 -1.1622  1.4969
  144SAPE  H14Y15859   1.875   3.534   8.826  0.9549 -0.2209  3.2240
  144SAPE  C31515860   1.861   3.703   8.674 -0.2072  0.4703 -0.5035
  144SAPE  H15X15861   1.768   3.666   8.626  0.1642  0.9353 -1.6147
  144SAPE  H15Y15862   1.941   3.661   8.610  1.6300  1.4247  1.0734
  144SAPE  C31615863   1.858   3.852   8.662  0.1432  0.0009 -0.2442
  144SAPE  H16X15864   1.862   3.872   8.553  2.3817 -0.6076 -0.3424
  144SAPE  H16Y15865   1.955   3.884   8.707  0.8087 -1.0080 -0.9146
  144SAPE  C31715866   1.735   3.912   8.731 -0.2060 -0.4396 -0.2473
  144SAPE  H17X15867   1.748   3.912   8.841 -1.7084 -0.5147 -0.0507
  144SAPE  H17Y15868   1.656   3.841   8.698 -1.0475  0.2460  0.2610
  144SAPE  C31815869   1.712   4.062   8.690 -0.0039 -0.3725 -0.3719
  144SAPE  H18X15870   1.628   4.114   8.741 -1.3604 -2.2375 -0.6159
  144SAPE  H18Y15871   1.696   4.081   8.582 -0.6454  3.9259  0.2721
  144SAPE  H18Z15872   1.812   4.111   8.703  2.4175 -3.8786 -3.5861
  145SAPE     N15873   4.832   2.624  11.221  0.3525  0.2768 -0.3944
  145SAPE   HN115874   4.878   2.650  11.311  1.5727  0.5181 -1.0525
  145SAPE   HN215875   4.901   2.646  11.145  1.7025 -0.8237  0.4597
  145SAPE   HN315876   4.753   2.684  11.190  0.7158 -0.1528 -2.2720
  145SAPE   C1215877   4.775   2.477  11.222 -0.2773  0.5813  0.3613
  145SAPE  H12A15878   4.689   2.462  11.291  0.7426 -1.8802  1.2273
  145SAPE  H12B15879   4.852   2.417  11.276 -0.3422  0.2869  0.1289
  145SAPE   C1115880   4.744   2.419  11.081  0.0072 -0.4793  0.3469
  145SAPE  H11A15881   4.737   2.308  11.084  0.2287 -0.4902  0.4760
  145SAPE  H11B15882   4.827   2.438  11.009 -0.4092  1.5312  0.3619
  145SAPE     P15883   4.481   2.436  11.050  0.0486  0.2994  0.0266
  145SAPE   O1315884   4.479   2.285  11.068 -0.2006 -0.1668 -0.1396
  145SAPE   O1415885   4.426   2.518  11.161  0.4597 -0.1756 -0.2207
  145SAPE   O1215886   4.631   2.484  11.031 -0.4952  0.6653 -0.1577
  145SAPE   O1115887   4.420   2.475  10.908  0.3041 -0.2719  0.6596
  145SAPE    C115888   4.458   2.408  10.786 -1.2672 -1.0597  0.2294
  145SAPE    HA15889   4.564   2.376  10.783 -0.9242 -0.3515  2.7004
  145SAPE    HB15890   4.398   2.317  10.765 -0.4693 -1.2256 -1.5297
  145SAPE    C215891   4.435   2.502  10.667  0.3970 -0.2026 -0.5485
  145SAPE    HS15892   4.333   2.545  10.674  0.3522 -0.1859 -1.2939
  145SAPE   O2115893   4.462   2.441  10.538  0.2474 -0.3515  0.5036
  145SAPE   C2115894   4.384   2.460  10.430 -0.2933  0.0777 -0.3823
  145SAPE   O2215895   4.301   2.541  10.413 -0.5058 -0.3054 -0.3108
  145SAPE   C2215896   4.412   2.344  10.330  0.1795  0.2780  0.5554
  145SAPE   H2R15897   4.494   2.367  10.258  1.0992 -1.8198  0.8414
  145SAPE   H2S15898   4.452   2.251  10.374 -2.2318 -1.1915 -0.1685
  145SAPE    C315899   4.526   2.633  10.677  0.0310  0.4963 -0.1666
  145SAPE    HX15900   4.632   2.601  10.688 -0.1416  0.1897  0.6323
  145SAPE    HY15901   4.505   2.687  10.772 -0.8460 -2.0179  1.1492
  145SAPE   O3115902   4.513   2.717  10.561  0.4673 -0.7649 -0.2685
  145SAPE   C3115903   4.398   2.788  10.553  0.4645 -0.5337  0.0875
  145SAPE   O3215904   4.317   2.793  10.637 -0.1183 -0.1465 -0.2742
  145SAPE   C3215905   4.415   2.884  10.430 -0.2500  0.1913 -0.5470
  145SAPE   H2X15906   4.465   2.827  10.348  1.7153 -0.5893  1.0911
  145SAPE   H2Y15907   4.486   2.965  10.459  0.5706 -0.5250 -0.5223
  145SAPE   C2315908   4.280   2.292  10.266  0.2771 -0.5656  0.0784
  145SAPE   H3R15909   4.242   2.356  10.183 -1.6005 -2.1234 -0.3197
  145SAPE   H3S15910   4.208   2.285  10.350 -2.1007  1.1322 -1.6697
  145SAPE   C2415911   4.305   2.158  10.195  0.1103 -0.0873 -0.8862
  145SAPE   H4R15912   4.353   2.082  10.260 -0.0321 -0.3563 -1.0930
  145SAPE   H4S15913   4.385   2.181  10.122  0.3726  1.1289 -0.2486
  145SAPE   C2515914   4.171   2.090  10.152 -0.3534 -0.1867  0.5412
  145SAPE   H5R15915   4.133   2.027  10.233  0.8186 -1.0379  0.4535
  145SAPE   C2615916   4.122   2.071  10.029 -0.2949 -0.1144  0.2884
  145SAPE   H6R15917   4.034   2.008  10.013 -0.6706  0.1213  1.3033
  145SAPE   C2715918   4.173   2.117   9.891 -0.1809 -0.8196 -0.0264
  145SAPE   H7R15919   4.178   2.034   9.818  0.7375  1.2304 -2.4686
  145SAPE   H7S15920   4.272   2.161   9.916 -0.3603  0.0549 -0.8002
  145SAPE   C2815921   4.102   2.243   9.838  0.0803  0.3870  0.5785
  145SAPE   H8R15922   4.071   2.312   9.918 -0.6334  1.9106 -0.9565
  145SAPE   C2915923   4.084   2.270   9.702  0.0821  0.4306 -0.2438
  145SAPE   H9R15924   4.023   2.355   9.670 -0.9747 -0.0221  0.5011
  145SAPE  C21015925   4.121   2.204   9.582 -0.3982 -0.1367 -0.9044
  145SAPE  H10R15926   4.048   2.194   9.500  1.5758 -2.5871 -2.5301
  145SAPE  H10S15927   4.145   2.098   9.606 -2.4122 -0.3226  0.5481
  145SAPE  C21115928   4.243   2.269   9.528  0.1859 -0.2210  1.0421
  145SAPE  H11R15929   4.321   2.297   9.600  0.7292  1.6283 -0.1922
  145SAPE  C21215930   4.262   2.286   9.393  0.4922 -0.2014 -0.0482
  145SAPE  H12R15931   4.358   2.324   9.354  1.4351 -2.8313 -0.4690
  145SAPE  C21315932   4.150   2.252   9.291  0.5642  0.3439 -0.7406
  145SAPE  H13R15933   4.186   2.273   9.188 -0.3826  0.2218 -1.1026
  145SAPE  H13S15934   4.055   2.305   9.312 -0.4038 -1.9376  1.0582
  145SAPE  C21415935   4.105   2.110   9.279 -0.6283  0.3050  0.8849
  145SAPE  H14R15936   4.168   2.030   9.322 -0.1453  0.0946 -0.1820
  145SAPE  C21515937   3.990   2.070   9.218 -0.4777 -0.1165 -0.7467
  145SAPE  H15R15938   3.979   1.961   9.212  3.1863 -0.5501 -4.3659
  145SAPE  C21615939   3.882   2.144   9.145 -0.6488 -0.7696 -0.5705
  145SAPE  H16R15940   3.822   2.206   9.216 -1.4584 -1.4008 -0.6895
  145SAPE  H16S15941   3.818   2.068   9.095 -1.1448  0.9812 -2.7619
  145SAPE  C21715942   3.937   2.226   9.022 -0.4878  0.4441  0.2446
  145SAPE  H17R15943   4.027   2.190   8.969 -0.6256  0.4862 -0.0182
  145SAPE  H17S15944   3.974   2.315   9.078 -1.2064  2.1028 -1.7805
  145SAPE  C21815945   3.831   2.271   8.931  0.3942 -1.2383 -0.0840
  145SAPE  H18R15946   3.752   2.329   8.983 -1.1634 -2.1618 -1.2850
  145SAPE  H18S15947   3.781   2.182   8.886 -1.2006  0.7440 -2.5094
  145SAPE  C21915948   3.885   2.349   8.811 -0.2414 -0.3055  0.0025
  145SAPE  H19R15949   3.950   2.278   8.755 -3.0107 -1.5116 -1.9828
  145SAPE  H19S15950   3.941   2.433   8.855  0.0920 -0.5740  0.0936
  145SAPE  C22015951   3.779   2.375   8.704  0.1427 -0.5389 -0.2745
  145SAPE  H20R15952   3.832   2.419   8.616 -0.0877  0.0394 -0.1264
  145SAPE  H20S15953   3.698   2.446   8.729 -0.7728 -1.3270 -0.9212
  145SAPE  H20T15954   3.743   2.278   8.663 -0.8706 -1.5026  2.7040
  145SAPE   C3315955   4.280   2.950  10.391  0.8674 -0.4302  0.5409
  145SAPE   H3X15956   4.244   3.000  10.483  1.3840  0.4324  0.2868
  145SAPE   H3Y15957   4.207   2.868  10.374 -0.9861  0.5160  3.3991
  145SAPE   C3415958   4.293   3.043  10.271  0.2380 -0.0881 -0.7936
  145SAPE   H4X15959   4.373   3.117  10.293 -0.7800  0.1688  2.6229
  145SAPE   H4Y15960   4.193   3.090  10.268  0.4750  0.8918  2.4051
  145SAPE   C3515961   4.336   2.975  10.145 -0.0079  0.0211  1.2868
  145SAPE   H5X15962   4.267   2.889  10.130  0.2216  0.1262 -0.5294
  145SAPE   H5Y15963   4.438   2.930  10.146  1.0963  2.3985  1.4033
  145SAPE   C3615964   4.325   3.061  10.027  0.3699 -0.4754 -0.1756
  145SAPE   H6X15965   4.389   3.151  10.038 -0.2354 -0.1892  1.1600
  145SAPE   H6Y15966   4.220   3.095  10.015  0.3494  0.1358  1.4891
  145SAPE   C3715967   4.366   2.997   9.892  0.5921  0.0503  0.0008
  145SAPE   H7X15968   4.314   2.900   9.900 -1.2109  0.9613 -0.2501
  145SAPE   H7Y15969   4.477   2.990   9.886  0.5422  0.0335 -1.2002
  145SAPE   C3815970   4.308   3.076   9.769 -0.8709  0.3559 -0.1000
  145SAPE   H8X15971   4.315   3.186   9.779 -1.6300  0.3982  0.0245
  145SAPE   H8Y15972   4.200   3.050   9.759 -0.8012  1.0141 -5.3112
  145SAPE   C3915973   4.375   3.043   9.634 -0.1376  0.0715 -0.8948
  145SAPE   H9X15974   4.402   2.935   9.632  2.2012  0.6185 -1.0911
  145SAPE   H9Y15975   4.465   3.107   9.636 -0.7837  0.9976 -0.4985
  145SAPE  C31015976   4.280   3.072   9.521 -0.0224 -0.0135 -0.7931
  145SAPE  H10X15977   4.251   3.179   9.526 -2.1080 -0.5430 -0.8159
  145SAPE  H10Y15978   4.186   3.014   9.534 -0.2153  0.4811  0.0800
  145SAPE  C31115979   4.344   3.054   9.388  0.3692  0.1915 -0.2988
  145SAPE  H11X15980   4.391   2.953   9.384 -0.4381 -0.1552 -1.4487
  145SAPE  H11Y15981   4.431   3.123   9.387  0.4098  0.1584  0.5070
  145SAPE  C31215982   4.248   3.081   9.271 -0.5621 -0.6347 -0.4598
  145SAPE  H12X15983   4.215   3.186   9.279  0.7401 -0.1757 -0.8094
  145SAPE  H12Y15984   4.164   3.009   9.279 -1.3282  0.3813  1.0103
  145SAPE  C31315985   4.301   3.048   9.139 -0.5377  0.2172  0.1811
  145SAPE  H13X15986   4.343   2.945   9.142  0.6460  0.7134  1.7970
  145SAPE  H13Y15987   4.380   3.124   9.120 -0.7929 -0.0302 -2.2438
  145SAPE  C31415988   4.192   3.072   9.028  0.0188  0.1202 -0.1725
  145SAPE  H14X15989   4.171   3.180   9.012  1.5902  0.5238  0.2612
  145SAPE  H14Y15990   4.094   3.023   9.048 -0.0416  0.4663  0.4180
  145SAPE  C31515991   4.231   3.014   8.890 -0.3123 -0.1235  0.4511
  145SAPE  H15X15992   4.315   3.062   8.835  2.0751 -0.6945  3.2973
  145SAPE  H15Y15993   4.142   3.037   8.827  0.5809  0.0304 -0.7967
  145SAPE  C31615994   4.256   2.865   8.883 -0.9828 -0.4373  0.1737
  145SAPE  H16X15995   4.161   2.818   8.918 -1.2342  0.0506  0.1464
  145SAPE  H16Y15996   4.339   2.846   8.954 -1.2884 -1.0716  0.3745
  145SAPE  C31715997   4.273   2.810   8.738  0.2642  0.4656  0.2547
  145SAPE  H17X15998   4.282   2.699   8.734  0.3841  0.4328  1.1574
  145SAPE  H17Y15999   4.367   2.857   8.702  0.0926  0.4737 -0.1852
  145SAPE  C31816000   4.159   2.825   8.639  0.3451  0.2521 -0.2188
  145SAPE  H18X16001   4.174   2.762   8.549 -3.2414  0.3526 -1.0345
  145SAPE  H18Y16002   4.144   2.932   8.613 -1.6081  0.4959  1.6816
  145SAPE  H18Z16003   4.061   2.797   8.683 -1.0679  2.6628 -1.5654
  146SAPE     N16004   1.184   0.013  11.020  0.1464  0.4435 -0.0330
  146SAPE   HN116005   1.128  -0.074  11.010 -0.2168  0.8765 -2.1996
  146SAPE   HN216006   1.264   0.010  11.087 -0.0854 -1.1962  0.1974
  146SAPE   HN316007   1.114   0.082  11.054 -0.4799  0.7187 -1.7850
  146SAPE   C1216008   1.240   0.059  10.891 -0.0723  0.2722 -0.2341
  146SAPE  H12A16009   1.318  -0.014  10.861  0.4776 -0.4979  2.7077
  146SAPE  H12B16010   1.287   0.160  10.899  1.8765 -0.6039  0.0943
  146SAPE   C1116011   1.140   0.076  10.768 -0.0615  0.2743  0.2018
  146SAPE  H11A16012   1.105  -0.024  10.736 -0.3348  1.7412 -5.0744
  146SAPE  H11B16013   1.193   0.112  10.677 -0.2891 -0.2221 -0.1328
  146SAPE     P16014   1.016   0.303  10.780 -0.0527 -0.2706  0.2281
  146SAPE   O1316015   0.880   0.350  10.790 -0.2787  0.3384 -0.0403
  146SAPE   O1416016   1.121   0.375  10.852  0.2595 -0.2004  0.2422
  146SAPE   O1216017   1.026   0.147  10.811  0.2104 -0.1014  0.0252
  146SAPE   O1116018   1.049   0.285  10.625  0.3072 -0.1817 -0.0175
  146SAPE    C116019   0.955   0.206  10.540 -0.0500 -0.1527 -0.1420
  146SAPE    HA16020   1.010   0.111  10.525  0.7231  0.3446 -0.4927
  146SAPE    HB16021   0.866   0.179  10.602  0.7264  1.3903  1.7785
  146SAPE    C216022   0.920   0.280  10.411 -0.0812  0.3058  0.3066
  146SAPE    HS16023   0.841   0.215  10.366  0.4181  0.0160 -0.1633
  146SAPE   O2116024   1.030   0.284  10.318  0.1309 -0.0710 -0.7085
  146SAPE   C2116025   1.061   0.169  10.265  0.2102 -0.0069  0.0635
  146SAPE   O2216026   0.994   0.068  10.275 -0.3840  0.2067 -0.3521
  146SAPE   C2216027   1.175   0.186  10.164 -0.3030  0.1508 -0.3758
  146SAPE   H2R16028   1.184   0.288  10.120  0.5746 -0.0763 -0.7303
  146SAPE   H2S16029   1.263   0.164  10.227 -1.4892  0.6416  1.5369
  146SAPE    C316030   0.858   0.419  10.451 -0.2259 -1.0783 -0.4732
  146SAPE    HX16031   0.919   0.479  10.521 -1.3473  0.1363 -0.4945
  146SAPE    HY16032   0.772   0.389  10.515 -0.1392  0.0554  0.2001
  146SAPE   O3116033   0.817   0.502  10.341  0.6098 -0.3258 -0.2919
  146SAPE   C3116034   0.723   0.594  10.386 -0.2744 -0.9490  0.2714
  146SAPE   O3216035   0.699   0.622  10.506 -0.2459  0.6584 -0.3856
  146SAPE   C3216036   0.641   0.649  10.274 -0.0066 -0.1014  0.8456
  146SAPE   H2X16037   0.705   0.721  10.219  2.2245 -1.6949  1.2481
  146SAPE   H2Y16038   0.553   0.711  10.304  0.0603  0.4009  0.0243
  146SAPE   C2316039   1.173   0.084  10.048  0.5200 -0.3223  0.0092
  146SAPE   H3R16040   1.127  -0.007  10.091 -1.6993  1.5673  1.8632
  146SAPE   H3S16041   1.269   0.041  10.010  0.8795  0.8499 -0.4495
  146SAPE   C2416042   1.097   0.127   9.919 -0.1234  0.5833 -0.3026
  146SAPE   H4R16043   1.160   0.208   9.876 -1.0647  0.6600 -1.6060
  146SAPE   H4S16044   0.997   0.166   9.946 -0.9446 -1.9673  0.7076
  146SAPE   C2516045   1.060   0.010   9.825  0.2340 -0.7141  0.3653
  146SAPE   H5R16046   0.968  -0.042   9.855 -0.3225  0.1632  0.2167
  146SAPE   C2616047   1.128  -0.028   9.717 -0.1672  0.3338 -0.3186
  146SAPE   H6R16048   1.090  -0.122   9.674  0.3541 -1.3540  2.5979
  146SAPE   C2716049   1.259   0.033   9.661 -0.0146 -0.0518 -0.0325
  146SAPE   H7R16050   1.341   0.028   9.737 -0.2428  3.2125  0.5972
  146SAPE   H7S16051   1.257   0.144   9.651  0.3569  0.0224  0.6350
  146SAPE   C2816052   1.292  -0.045   9.536  0.6272 -0.0116  0.6703
  146SAPE   H8R16053   1.380  -0.109   9.548 -0.9841 -2.7114 -0.9970
  146SAPE   C2916054   1.240  -0.025   9.413  0.1418 -0.1408 -0.2598
  146SAPE   H9R16055   1.286  -0.083   9.331  1.5997 -0.4742  0.7478
  146SAPE  C21016056   1.139   0.080   9.374 -0.2031 -0.4400  0.3199
  146SAPE  H10R16057   1.150   0.105   9.267  1.3480 -1.3713  0.2218
  146SAPE  H10S16058   1.165   0.177   9.421 -1.5591 -0.1686  0.5628
  146SAPE  C21116059   1.002   0.039   9.409  0.0403  0.0649 -0.0758
  146SAPE  H11R16060   0.976   0.056   9.515 -3.1678  0.8955 -0.8902
  146SAPE  C21216061   0.904  -0.030   9.341 -0.3636 -0.4548  0.3585
  146SAPE  H12R16062   0.807  -0.045   9.391  0.4922 -0.4245  2.1071
  146SAPE  C21316063   0.918  -0.083   9.202  0.3360  0.0442 -0.9078
  146SAPE  H13R16064   0.945  -0.189   9.220  0.5990  0.3577  0.6842
  146SAPE  H13S16065   1.005  -0.042   9.147 -0.4213  1.2998 -1.2331
  146SAPE  C21416066   0.785  -0.058   9.139 -0.1862 -0.3635  0.5312
  146SAPE  H14R16067   0.716   0.015   9.182  0.6353 -1.1899  3.4999
  146SAPE  C21516068   0.747  -0.108   9.028 -0.1112  0.0423  0.1278
  146SAPE  H15R16069   0.661  -0.047   8.996  1.5232  2.4150 -0.0808
  146SAPE  C21616070   0.809  -0.215   8.946  0.4194  0.6041  0.0830
  146SAPE  H16R16071   0.827  -0.298   9.016 -3.0392  2.1656  3.1617
  146SAPE  H16S16072   0.914  -0.193   8.917  1.1444  0.7140  2.5665
  146SAPE  C21716073   0.725  -0.279   8.833 -0.0663  0.2509 -0.0941
  146SAPE  H17R16074   0.618  -0.267   8.858 -0.0130 -0.1255  0.3220
  146SAPE  H17S16075   0.753  -0.383   8.805 -1.0092  0.1325 -0.6257
  146SAPE  C21816076   0.731  -0.210   8.693  0.4357  0.5027 -0.1319
  146SAPE  H18R16077   0.836  -0.205   8.657  1.4347  2.4134  2.6801
  146SAPE  H18S16078   0.684  -0.111   8.713 -0.8408  0.2522 -1.6758
  146SAPE  C21916079   0.626  -0.271   8.595 -0.3218 -0.9266  0.0465
  146SAPE  H19R16080   0.567  -0.194   8.540  0.0306 -0.3645  0.4384
  146SAPE  H19S16081   0.540  -0.313   8.651 -1.5884  0.9175 -0.3937
  146SAPE  C22016082   0.673  -0.374   8.495  0.7793 -0.0292 -0.6938
  146SAPE  H20R16083   0.585  -0.385   8.428 -0.7290 -0.8783  1.3401
  146SAPE  H20S16084   0.694  -0.464   8.557  0.8724  0.7946  0.5051
  146SAPE  H20T16085   0.760  -0.337   8.437 -0.6522  1.3087 -2.1100
  146SAPE   C3316086   0.590   0.542  10.179  0.7919 -0.2499  0.2167
  146SAPE   H3X16087   0.512   0.483  10.231  0.7736 -0.9143 -0.5413
  146SAPE   H3Y16088   0.675   0.478  10.146  2.4732  2.2942 -0.6771
  146SAPE   C3416089   0.529   0.592  10.053 -0.5262 -0.5060  0.4095
  146SAPE   H4X16090   0.617   0.610   9.988 -2.3112 -1.3321 -2.4389
  146SAPE   H4Y16091   0.480   0.691  10.052 -1.9090 -1.1718  0.1993
  146SAPE   C3516092   0.455   0.495   9.966 -0.1127 -0.1834 -0.5351
  146SAPE   H5X16093   0.368   0.461  10.027  0.8781  0.3914  1.2657
  146SAPE   H5Y16094   0.516   0.403   9.952  1.4564  0.8220 -0.5442
  146SAPE   C3616095   0.413   0.563   9.835  0.3636  0.4532  0.7238
  146SAPE   H6X16096   0.502   0.622   9.803  0.2772  0.6155  0.7812
  146SAPE   H6Y16097   0.336   0.641   9.850  0.0413  0.3883 -0.5482
  146SAPE   C3716098   0.379   0.463   9.718 -0.0035 -0.1776 -0.5431
  146SAPE   H7X16099   0.277   0.420   9.727  1.0227 -2.6474  0.2150
  146SAPE   H7Y16100   0.440   0.371   9.724 -0.0201 -0.1014  1.1777
  146SAPE   C3816101   0.379   0.527   9.574  0.7694 -0.0036  0.4899
  146SAPE   H8X16102   0.479   0.574   9.558 -0.6036  2.6175 -1.1127
  146SAPE   H8Y16103   0.307   0.612   9.571  2.1239  1.1741 -1.2837
  146SAPE   C3916104   0.332   0.442   9.459 -0.2686 -0.0317 -0.9056
  146SAPE   H9X16105   0.236   0.390   9.478  1.2805 -2.7277  0.0741
  146SAPE   H9Y16106   0.404   0.360   9.439 -2.1086 -2.0815  0.3580
  146SAPE  C31016107   0.321   0.527   9.336  0.5953  0.7125  0.2772
  146SAPE  H10X16108   0.425   0.559   9.317 -0.4065  3.5069 -1.1673
  146SAPE  H10Y16109   0.262   0.619   9.360 -2.1189 -0.6017 -0.8601
  146SAPE  C31116110   0.249   0.443   9.228  0.0005 -0.1329 -0.2481
  146SAPE  H11X16111   0.140   0.452   9.246 -0.2426  0.2308 -1.7251
  146SAPE  H11Y16112   0.286   0.339   9.236  1.1552  0.0717 -2.1489
  146SAPE  C31216113   0.283   0.483   9.084  0.1176 -0.1769  0.4506
  146SAPE  H12X16114   0.393   0.496   9.078 -0.1093  1.3880 -0.8948
  146SAPE  H12Y16115   0.238   0.583   9.068  0.5030 -0.1107 -0.2168
  146SAPE  C31316116   0.223   0.380   8.975 -0.0850 -0.6409 -0.0302
  146SAPE  H13X16117   0.123   0.426   8.961  0.6997  0.2917 -3.3899
  146SAPE  H13Y16118   0.209   0.276   9.011 -0.2074 -1.4562 -2.2975
  146SAPE  C31416119   0.304   0.378   8.845 -0.8382  0.4834  0.3179
  146SAPE  H14X16120   0.306   0.479   8.798 -1.1923 -0.8035 -2.6597
  146SAPE  H14Y16121   0.244   0.309   8.782  0.4247 -0.6783  0.3269
  146SAPE  C31516122   0.437   0.305   8.860 -0.1836  0.1093 -0.2750
  146SAPE  H15X16123   0.418   0.204   8.904  1.9004 -0.9323 -1.6004
  146SAPE  H15Y16124   0.498   0.361   8.934 -0.8124  1.5799 -0.8222
  146SAPE  C31616125   0.505   0.280   8.730  0.9649  0.0605 -0.3923
  146SAPE  H16X16126   0.468   0.186   8.683  0.1104  0.5010 -0.6091
  146SAPE  H16Y16127   0.614   0.263   8.748  0.6102 -0.1155  1.8363
  146SAPE  C31716128   0.492   0.385   8.623  0.1055  0.7024 -0.3758
  146SAPE  H17X16129   0.390   0.428   8.611  0.4949  1.1715 -2.4558
  146SAPE  H17Y16130   0.516   0.356   8.518 -3.7790  2.1381 -1.8410
  146SAPE  C31816131   0.586   0.507   8.646 -0.4573  0.2937  0.1098
  146SAPE  H18X16132   0.693   0.480   8.659  0.0672  1.8933 -0.6006
  146SAPE  H18Y16133   0.550   0.561   8.736  1.8317 -0.3121  1.4481
  146SAPE  H18Z16134   0.569   0.584   8.567 -2.5772 -0.2726 -0.0562
  147SAPE     N16135   5.907   6.318   5.968 -0.1716 -0.3426 -0.4873
  147SAPE   HN116136   5.845   6.280   5.894 -2.2243  0.0951  0.9323
  147SAPE   HN216137   5.913   6.420   5.986 -1.3159  0.1412 -2.5515
  147SAPE   HN316138   6.002   6.286   5.939  0.0069  0.1091 -0.4128
  147SAPE   C1216139   5.873   6.248   6.099  0.4688  0.0612  0.6326
  147SAPE  H12A16140   5.964   6.232   6.161 -1.0383  2.0413  3.6497
  147SAPE  H12B16141   5.837   6.146   6.074 -0.6690  0.3326  1.1030
  147SAPE   C1116142   5.759   6.332   6.179  0.2455 -0.3885 -0.0171
  147SAPE  H11A16143   5.793   6.437   6.179  0.2184 -0.3806  0.5022
  147SAPE  H11B16144   5.745   6.291   6.281 -1.7263 -4.2478 -1.6041
  147SAPE     P16145   5.547   6.193   6.105  0.2319 -0.0026 -0.4086
  147SAPE   O1316146   5.406   6.227   6.105 -0.6420 -0.1550  0.2147
  147SAPE   O1416147   5.599   6.111   5.994  0.6975 -0.4247  0.3149
  147SAPE   O1216148   5.631   6.326   6.118 -0.1036 -0.6900  0.6943
  147SAPE   O1116149   5.585   6.124   6.239 -0.7012  0.0409  0.0260
  147SAPE    C116150   5.598   5.981   6.256  0.0033  0.2377 -0.4774
  147SAPE    HA16151   5.504   5.932   6.223  0.6873  0.2011 -2.4459
  147SAPE    HB16152   5.679   5.934   6.198  0.5371  0.0877  0.3706
  147SAPE    C216153   5.621   5.949   6.405  0.1176  0.3720  0.1014
  147SAPE    HS16154   5.644   5.843   6.425  0.3312  0.2002 -0.9862
  147SAPE   O2116155   5.497   5.980   6.472  0.1546  0.0888 -0.0532
  147SAPE   C2116156   5.403   5.894   6.456  0.2184  0.3982 -0.1012
  147SAPE   O2216157   5.409   5.784   6.402 -0.0401  0.3541  0.2934
  147SAPE   C2216158   5.272   5.954   6.513 -0.5795  0.0601  0.0429
  147SAPE   H2R16159   5.284   6.037   6.586  3.4513  1.4111 -1.8483
  147SAPE   H2S16160   5.227   6.002   6.424 -0.9873 -1.3244 -0.5176
  147SAPE    C316161   5.736   6.038   6.456  0.3778  0.1560  0.0858
  147SAPE    HX16162   5.704   6.143   6.471 -1.0169 -0.3436  0.8789
  147SAPE    HY16163   5.826   6.034   6.391 -0.1989 -1.6699 -0.6670
  147SAPE   O3116164   5.768   6.006   6.596  0.3288 -0.1530  0.5221
  147SAPE   C3116165   5.861   5.914   6.606  0.3972 -0.2458 -1.3628
  147SAPE   O3216166   5.922   5.860   6.517 -0.4426 -0.8432  0.1409
  147SAPE   C3216167   5.884   5.893   6.752  0.3338  0.4142  0.1904
  147SAPE   H2X16168   5.869   5.988   6.807 -2.0019 -0.2157  0.7261
  147SAPE   H2Y16169   5.993   5.871   6.764  0.2975  1.0206  1.9599
  147SAPE   C2316170   5.165   5.858   6.568  0.1819  0.0635  0.0563
  147SAPE   H3R16171   5.147   5.788   6.483 -0.2226  0.4006 -0.1358
  147SAPE   H3S16172   5.075   5.921   6.580 -1.4876 -2.3379  1.0580
  147SAPE   C2416173   5.207   5.785   6.697  0.0576 -0.1375 -0.4587
  147SAPE   H4R16174   5.237   5.868   6.764 -0.0715 -0.3617 -0.1190
  147SAPE   H4S16175   5.295   5.724   6.667 -1.4115 -1.5587 -2.1423
  147SAPE   C2516176   5.096   5.696   6.743  1.1706  0.0821 -0.6310
  147SAPE   H5R16177   5.075   5.610   6.677  0.4813  0.1940 -0.5696
  147SAPE   C2616178   5.015   5.710   6.852  0.6001 -0.1392  0.3480
  147SAPE   H6R16179   4.929   5.642   6.860  0.0115  0.5467  0.0493
  147SAPE   C2716180   5.015   5.829   6.948  0.7051  0.1549  0.6942
  147SAPE   H7R16181   5.063   5.913   6.895 -0.6499 -0.4183 -1.5492
  147SAPE   H7S16182   5.081   5.815   7.037  1.6161 -1.9303 -0.2516
  147SAPE   C2816183   4.871   5.862   6.992  1.0567  0.4082  0.5193
  147SAPE   H8R16184   4.800   5.888   6.912  1.7328 -0.4170 -0.3698
  147SAPE   C2916185   4.831   5.866   7.120  0.7648  0.2827 -0.8375
  147SAPE   H9R16186   4.736   5.909   7.153  1.7021  0.0506  2.5428
  147SAPE  C21016187   4.909   5.839   7.246  0.4624 -0.0312  0.8003
  147SAPE  H10R16188   4.974   5.754   7.218 -0.9788 -0.9755  0.1800
  147SAPE  H10S16189   4.852   5.793   7.330 -0.3222  1.4234  1.1069
  147SAPE  C21116190   5.007   5.939   7.301  0.6713 -0.1984 -0.5112
  147SAPE  H11R16191   5.064   6.004   7.232  0.7527 -1.1271 -1.3353
  147SAPE  C21216192   5.030   5.959   7.433  0.4981  0.2017 -0.0342
  147SAPE  H12R16193   5.111   6.028   7.460  1.3999 -1.3020  1.2357
  147SAPE  C21316194   4.950   5.903   7.549 -0.3249  0.4112  0.7917
  147SAPE  H13R16195   4.994   5.809   7.590  0.2525  0.4270  0.2284
  147SAPE  H13S16196   4.858   5.867   7.499 -0.6002  1.2367  0.6950
  147SAPE  C21416197   4.914   6.000   7.653  0.3304 -0.6438 -0.1370
  147SAPE  H14R16198   4.821   6.054   7.632  0.4080  0.1409  1.4211
  147SAPE  C21516199   4.972   6.022   7.768 -0.8011  0.0674 -0.0178
  147SAPE  H15R16200   4.930   6.099   7.835  0.3063  0.3583  0.3541
  147SAPE  C21616201   5.094   5.953   7.831  0.4598  0.7180  0.2886
  147SAPE  H16R16202   5.172   6.026   7.863  0.4293  0.8576  0.0453
  147SAPE  H16S16203   5.140   5.884   7.756  1.0600  1.0302  0.3582
  147SAPE  C21716204   5.051   5.870   7.951  1.0829  0.4051 -0.2565
  147SAPE  H17R16205   4.973   5.799   7.917  1.4667  0.8280 -2.1686
  147SAPE  H17S16206   5.001   5.936   8.025 -1.0129 -0.2294 -1.0379
  147SAPE  C21816207   5.163   5.791   8.008 -0.3204  0.0183 -1.1513
  147SAPE  H18R16208   5.188   5.707   7.941 -2.1450 -1.9395  0.4620
  147SAPE  H18S16209   5.137   5.740   8.104  4.8667 -1.2443 -0.1163
  147SAPE  C21916210   5.286   5.877   8.048 -0.7705  0.1399 -0.3696
  147SAPE  H19R16211   5.244   5.968   8.098 -0.9874  0.3201 -0.8710
  147SAPE  H19S16212   5.347   5.909   7.961  0.6092 -0.4419  0.3396
  147SAPE  C22016213   5.368   5.810   8.157  0.5287 -0.2462  0.6006
  147SAPE  H20R16214   5.431   5.730   8.112  1.6434 -0.6251  2.7425
  147SAPE  H20S16215   5.304   5.759   8.232 -0.0352 -1.4586 -0.6574
  147SAPE  H20T16216   5.443   5.876   8.205  0.6691  1.3349 -1.6084
  147SAPE   C3316217   5.791   5.778   6.805  0.5514 -0.1717 -0.1194
  147SAPE   H3X16218   5.846   5.692   6.850  0.0097  0.5346  1.9832
  147SAPE   H3Y16219   5.739   5.742   6.713  0.3953  1.7084 -0.8106
  147SAPE   C3416220   5.685   5.814   6.898 -0.4088  0.2171  0.5358
  147SAPE   H4X16221   5.608   5.876   6.847 -0.0913  2.1828  2.3258
  147SAPE   H4Y16222   5.740   5.867   6.978 -0.0124 -1.1033  1.1685
  147SAPE   C3516223   5.618   5.694   6.972  0.0288 -1.0242  0.3708
  147SAPE   H5X16224   5.690   5.648   7.044  0.9056  1.0091  0.8788
  147SAPE   H5Y16225   5.588   5.620   6.895  0.5582  0.8668 -1.7554
  147SAPE   C3616226   5.490   5.735   7.052  0.4865 -0.5333  0.3107
  147SAPE   H6X16227   5.424   5.798   6.988  0.6480  0.3089  0.9577
  147SAPE   H6Y16228   5.506   5.800   7.140 -2.0172  1.5125 -0.6176
  147SAPE   C3716229   5.425   5.603   7.108 -0.6631 -0.5008  0.6716
  147SAPE   H7X16230   5.500   5.554   7.174 -2.1294 -3.2729  0.4467
  147SAPE   H7Y16231   5.414   5.532   7.023 -1.0739  1.3540 -0.8762
  147SAPE   C3816232   5.287   5.625   7.168  0.5645 -0.0114 -0.5376
  147SAPE   H8X16233   5.247   5.524   7.192  0.4005  0.1234 -0.2373
  147SAPE   H8Y16234   5.215   5.663   7.092  0.7567 -0.9635 -1.2102
  147SAPE   C3916235   5.274   5.709   7.295 -0.8007  0.2362 -0.0633
  147SAPE   H9X16236   5.176   5.683   7.341 -0.2499 -1.7046  0.0743
  147SAPE   H9Y16237   5.280   5.819   7.280  0.6501  0.0634 -0.8736
  147SAPE  C31016238   5.372   5.664   7.407 -0.2310  0.3099  0.2893
  147SAPE  H10X16239   5.479   5.664   7.377 -0.2802  0.9094  0.0985
  147SAPE  H10Y16240   5.346   5.559   7.434 -1.8173 -0.4487 -3.6143
  147SAPE  C31116241   5.346   5.748   7.528  0.0619 -0.2938 -0.5590
  147SAPE  H11X16242   5.244   5.733   7.568  0.4190  0.6462  0.7639
  147SAPE  H11Y16243   5.350   5.855   7.496  3.0447  0.1355  0.9609
  147SAPE  C31216244   5.454   5.735   7.634 -0.5798  0.7301 -0.5232
  147SAPE  H12X16245   5.448   5.797   7.726 -0.9776  0.5348 -0.4144
  147SAPE  H12Y16246   5.555   5.750   7.589 -1.0431  3.2415 -0.8624
  147SAPE  C31316247   5.441   5.596   7.700 -0.2711  0.2144  0.1612
  147SAPE  H13X16248   5.487   5.520   7.633  0.4357  2.5540 -2.1711
  147SAPE  H13Y16249   5.339   5.562   7.728 -0.0173 -0.0822  0.7602
  147SAPE  C31416250   5.517   5.581   7.832  0.3914 -0.2511 -0.1146
  147SAPE  H14X16251   5.459   5.626   7.916 -1.0396  0.6724 -1.5427
  147SAPE  H14Y16252   5.615   5.632   7.832  0.8065 -0.9041  2.0660
  147SAPE  C31516253   5.544   5.436   7.871 -1.2141  0.3039  0.3460
  147SAPE  H15X16254   5.629   5.406   7.806 -1.8960 -0.8445 -0.0392
  147SAPE  H15Y16255   5.451   5.377   7.861 -1.3896  0.4003  1.3731
  147SAPE  C31616256   5.575   5.429   8.020  0.1334  0.6463 -0.5781
  147SAPE  H16X16257   5.495   5.455   8.093  1.4260  0.6028  0.8953
  147SAPE  H16Y16258   5.662   5.496   8.035  1.8976 -1.7438  0.3929
  147SAPE  C31716259   5.618   5.285   8.057 -0.3050  0.0925 -0.1091
  147SAPE  H17X16260   5.687   5.257   7.974 -0.8166 -0.8981 -0.2120
  147SAPE  H17Y16261   5.525   5.225   8.046 -0.4027  0.4362 -1.3747
  147SAPE  C31816262   5.695   5.264   8.184  0.3148  0.6463 -0.0997
  147SAPE  H18X16263   5.623   5.285   8.266 -1.5737  0.3903 -1.6173
  147SAPE  H18Y16264   5.777   5.337   8.198  0.0251  1.1175 -0.7732
  147SAPE  H18Z16265   5.729   5.161   8.207  0.2144  0.4818 -0.6620
  148SAPE     N16266   4.974   4.207   6.486 -0.4052 -0.4956 -0.1434
  148SAPE   HN116267   5.046   4.149   6.438  0.8464 -0.2147  1.3024
  148SAPE   HN216268   4.884   4.156   6.487 -1.1546  0.6811  2.7453
  148SAPE   HN316269   4.966   4.300   6.440 -0.9419  0.2922  1.5009
  148SAPE   C1216270   5.019   4.235   6.623  0.5937  0.4356 -0.1075
  148SAPE  H12A16271   5.049   4.135   6.661  0.9179  0.1055 -1.2182
  148SAPE  H12B16272   4.930   4.254   6.687  1.6382 -1.5298  2.0733
  148SAPE   C1116273   5.123   4.351   6.619  0.1683 -0.0519  0.2901
  148SAPE  H11A16274   5.214   4.330   6.559 -1.2022 -0.9668 -1.5582
  148SAPE  H11B16275   5.151   4.359   6.726  2.0252 -1.3999 -0.0490
  148SAPE     P16276   5.146   4.599   6.523  0.0006 -0.2925  0.1651
  148SAPE   O1316277   5.155   4.596   6.377 -0.6365 -0.8042 -0.1028
  148SAPE   O1416278   5.100   4.722   6.589 -0.3131 -0.2019 -0.7656
  148SAPE   O1216279   5.061   4.474   6.567  0.3359 -0.6887 -0.4461
  148SAPE   O1116280   5.282   4.559   6.575  0.3274 -0.4549  0.1586
  148SAPE    C116281   5.391   4.655   6.575  0.3782  0.5833  0.3038
  148SAPE    HA16282   5.475   4.606   6.521  0.8088  1.1243  0.4739
  148SAPE    HB16283   5.377   4.745   6.511  0.4704  0.6735  0.4107
  148SAPE    C216284   5.430   4.693   6.722 -0.7935 -0.5448 -0.1930
  148SAPE    HS16285   5.379   4.788   6.748  0.3741  0.1217 -0.2641
  148SAPE   O2116286   5.573   4.714   6.730 -0.6051  0.0575 -0.3766
  148SAPE   C2116287   5.637   4.805   6.653  1.0625  0.7751 -0.1953
  148SAPE   O2216288   5.578   4.877   6.578  0.4335  0.0093 -0.1502
  148SAPE   C2216289   5.791   4.791   6.682 -0.0401 -0.3527  0.4084
  148SAPE   H2R16290   5.805   4.682   6.692 -1.1374 -0.3843  2.0042
  148SAPE   H2S16291   5.842   4.819   6.587  2.1380  2.2987  2.2014
  148SAPE    C316292   5.380   4.585   6.827 -0.7139 -0.4828 -0.2025
  148SAPE    HX16293   5.421   4.490   6.788  1.0124 -0.1475  0.7186
  148SAPE    HY16294   5.269   4.578   6.827 -0.8663  1.1241  1.2175
  148SAPE   O3116295   5.427   4.601   6.962  0.2300 -0.4826  0.3503
  148SAPE   C3116296   5.364   4.687   7.037 -0.0414 -0.3349  0.1400
  148SAPE   O3216297   5.275   4.759   6.998  0.1236 -0.4113 -0.9139
  148SAPE   C3216298   5.428   4.685   7.181 -1.5182  0.1514  0.3267
  148SAPE   H2X16299   5.521   4.744   7.163 -0.7141 -1.3922 -0.8086
  148SAPE   H2Y16300   5.463   4.583   7.209 -1.2653  0.7191  2.2774
  148SAPE   C2316301   5.839   4.859   6.811 -0.6126 -0.5033  0.1175
  148SAPE   H3R16302   5.840   4.970   6.801  1.6167 -0.5324 -0.5400
  148SAPE   H3S16303   5.948   4.840   6.823 -0.4699  0.9127  1.3293
  148SAPE   C2416304   5.766   4.830   6.940  0.2294  0.1837 -0.0725
  148SAPE   H4R16305   5.657   4.850   6.926 -0.5418 -2.8302  0.8208
  148SAPE   H4S16306   5.800   4.891   7.027 -0.7564 -0.9738  1.1752
  148SAPE   C2516307   5.776   4.679   6.978  0.2361 -0.1001 -0.5468
  148SAPE   H5R16308   5.768   4.606   6.897  1.6625 -0.2757 -0.5520
  148SAPE   C2616309   5.799   4.630   7.103 -1.3196  0.2718 -0.1791
  148SAPE   H6R16310   5.795   4.521   7.112  0.1145  0.2165 -0.1014
  148SAPE   C2716311   5.817   4.713   7.234 -1.0560  0.3733  0.8758
  148SAPE   H7R16312   5.796   4.666   7.332  2.0868  1.3819  2.1653
  148SAPE   H7S16313   5.746   4.798   7.222 -1.1078  0.2458  0.1999
  148SAPE   C2816314   5.950   4.775   7.249  0.5723  0.0987  0.1511
  148SAPE   H8R16315   5.979   4.822   7.154  3.0604 -2.2951 -0.4152
  148SAPE   C2916316   6.040   4.790   7.345  0.0201  0.1652  0.0369
  148SAPE   H9R16317   6.139   4.831   7.321  0.4004  0.2801  1.7026
  148SAPE  C21016318   6.018   4.727   7.484 -0.1675 -0.2847 -0.0675
  148SAPE  H10R16319   6.101   4.658   7.510  0.7268  0.5655 -0.5775
  148SAPE  H10S16320   5.923   4.670   7.493 -0.9152  1.0012  0.5058
  148SAPE  C21116321   6.022   4.850   7.579  0.0353  0.2616  0.5412
  148SAPE  H11R16322   5.968   4.934   7.535  1.9390  0.3058 -1.9265
  148SAPE  C21216323   6.092   4.856   7.690 -0.5730  0.3671 -0.3152
  148SAPE  H12R16324   6.099   4.940   7.761  1.4972 -0.1770  0.2146
  148SAPE  C21316325   6.157   4.725   7.739 -0.6912 -0.0008  0.2774
  148SAPE  H13R16326   6.236   4.693   7.668  1.0882  1.0042  1.7194
  148SAPE  H13S16327   6.091   4.636   7.747  0.6853 -0.8985  3.8071
  148SAPE  C21416328   6.212   4.755   7.874 -0.4048  0.3476  0.2100
  148SAPE  H14R16329   6.293   4.830   7.869  0.2979 -0.3496  1.0505
  148SAPE  C21516330   6.172   4.708   7.995  0.0208  0.2252 -0.0990
  148SAPE  H15R16331   6.222   4.761   8.076  0.8811 -1.0631  0.2428
  148SAPE  C21616332   6.064   4.612   8.037  0.0723 -0.3186  0.2332
  148SAPE  H16R16333   6.014   4.567   7.948 -0.8203  1.2287 -0.0991
  148SAPE  H16S16334   5.979   4.662   8.088  2.2755  2.3063  1.5459
  148SAPE  C21716335   6.119   4.494   8.124  0.0588 -0.5229  0.1815
  148SAPE  H17R16336   6.156   4.539   8.219 -1.9475  4.6547 -1.1407
  148SAPE  H17S16337   6.198   4.437   8.070  2.7502 -1.4742  4.5911
  148SAPE  C21816338   6.008   4.402   8.165 -0.0123  0.6747 -0.2016
  148SAPE  H18R16339   5.989   4.348   8.070  2.9163 -1.4785  0.3012
  148SAPE  H18S16340   5.906   4.441   8.188 -0.6817 -0.0466 -1.8137
  148SAPE  C21916341   6.045   4.299   8.277 -0.6668 -0.0209  0.1520
  148SAPE  H19R16342   5.968   4.220   8.290 -1.2266  0.5233  0.1624
  148SAPE  H19S16343   6.042   4.359   8.371  0.3739  0.0671  0.1416
  148SAPE  C22016344   6.189   4.229   8.262 -0.1809  0.7696  0.5891
  148SAPE  H20R16345   6.180   4.177   8.164  1.7534 -0.3609  0.9767
  148SAPE  H20S16346   6.193   4.152   8.342  0.0673 -2.2587 -2.1652
  148SAPE  H20T16347   6.272   4.302   8.257  0.9265 -0.5377 -1.3559
  148SAPE   C3316348   5.332   4.734   7.283  0.2740  0.2972 -0.6412
  148SAPE   H3X16349   5.253   4.658   7.304 -0.3241  0.8511 -0.8652
  148SAPE   H3Y16350   5.278   4.825   7.250 -0.5090 -0.7869 -2.5379
  148SAPE   C3416351   5.389   4.758   7.426 -0.7752  0.0086  0.3859
  148SAPE   H4X16352   5.450   4.850   7.431 -0.0830 -0.3675 -0.6751
  148SAPE   H4Y16353   5.456   4.671   7.445  1.3547  1.3081 -0.8099
  148SAPE   C3516354   5.288   4.757   7.543 -0.0518 -0.2954 -0.4084
  148SAPE   H5X16355   5.212   4.682   7.512 -1.5659  0.3423  1.5585
  148SAPE   H5Y16356   5.241   4.857   7.560  2.0148  0.7675 -0.6004
  148SAPE   C3616357   5.349   4.708   7.671 -0.5895  0.2967  0.2619
  148SAPE   H6X16358   5.417   4.627   7.637  0.3417  0.9422  0.5409
  148SAPE   H6Y16359   5.263   4.661   7.725 -2.1082  1.4948 -1.0235
  148SAPE   C3716360   5.427   4.789   7.773 -0.1990  0.6227  0.3996
  148SAPE   H7X16361   5.531   4.813   7.742  0.1760  1.6881  2.2830
  148SAPE   H7Y16362   5.432   4.734   7.870  0.6406 -0.1804 -0.0830
  148SAPE   C3816363   5.360   4.918   7.798  0.2450  0.3092  0.6329
  148SAPE   H8X16364   5.251   4.905   7.780  0.2482  1.0612 -0.0168
  148SAPE   H8Y16365   5.396   4.998   7.729  1.5700 -0.5561  0.2851
  148SAPE   C3916366   5.375   4.965   7.948 -0.3805  0.8709  0.3550
  148SAPE   H9X16367   5.483   4.979   7.965 -0.6548  1.6765  1.4904
  148SAPE   H9Y16368   5.338   4.887   8.018 -1.7433  2.0282  0.9648
  148SAPE  C31016369   5.289   5.090   7.994 -0.4749 -0.1788 -0.4658
  148SAPE  H10X16370   5.190   5.091   7.943  0.7455 -0.1534 -2.9913
  148SAPE  H10Y16371   5.351   5.172   7.952  1.1349 -0.1475  1.8258
  148SAPE  C31116372   5.273   5.106   8.145  0.1743  0.1091  0.4268
  148SAPE  H11X16373   5.377   5.104   8.185  1.6114 -0.8121 -2.9807
  148SAPE  H11Y16374   5.219   5.019   8.187  1.8630 -0.4247  1.5937
  148SAPE  C31216375   5.217   5.242   8.188  0.2240  0.4643 -0.2977
  148SAPE  H12X16376   5.114   5.249   8.149  0.2790  1.1598 -0.3309
  148SAPE  H12Y16377   5.266   5.324   8.130  2.7484 -1.2965 -0.8399
  148SAPE  C31316378   5.242   5.278   8.333 -0.1836  0.0527 -0.3549
  148SAPE  H13X16379   5.216   5.385   8.348  2.0341  0.6269 -0.2847
  148SAPE  H13Y16380   5.352   5.273   8.346 -0.1744 -1.1271 -0.7343
  148SAPE  C31416381   5.182   5.201   8.449  0.1999  0.0707  0.0613
  148SAPE  H14X16382   5.195   5.093   8.430 -2.9138 -0.3956  0.0051
  148SAPE  H14Y16383   5.072   5.218   8.442  0.1518 -0.5145 -0.8743
  148SAPE  C31516384   5.227   5.234   8.589  0.0640 -0.6904 -0.2061
  148SAPE  H15X16385   5.166   5.190   8.670 -2.1365 -0.5662 -1.7138
  148SAPE  H15Y16386   5.230   5.345   8.599 -1.1659 -0.5881 -0.8444
  148SAPE  C31616387   5.372   5.191   8.598  0.0592 -0.1087 -0.1532
  148SAPE  H16X16388   5.450   5.242   8.538 -0.3475 -1.1045 -1.5920
  148SAPE  H16Y16389   5.380   5.080   8.590  2.0349 -0.0385  0.4468
  148SAPE  C31716390   5.434   5.218   8.735  0.6106  0.1063 -0.4120
  148SAPE  H17X16391   5.433   5.327   8.756  3.1170  0.5526 -2.1001
  148SAPE  H17Y16392   5.544   5.201   8.728  0.3295 -1.1063 -2.4468
  148SAPE  C31816393   5.374   5.145   8.854 -0.5063  0.5899  0.9139
  148SAPE  H18X16394   5.418   5.161   8.955  0.0345  1.9211  0.4814
  148SAPE  H18Y16395   5.375   5.035   8.834  2.1182  0.2928  2.3039
  148SAPE  H18Z16396   5.270   5.184   8.857 -1.9472 -2.5049 -1.8014
  149SAPE     N16397   3.894   0.133   6.096 -0.3754 -0.2328 -0.5001
  149SAPE   HN116398   3.967   0.157   6.166 -0.9127 -2.8621  1.1338
  149SAPE   HN216399   3.874   0.032   6.112 -1.3819  0.1513  0.8868
  149SAPE   HN316400   3.937   0.134   6.001 -1.4712 -1.9114 -1.0625
  149SAPE   C1216401   3.774   0.227   6.108  0.0507  0.0673 -0.8604
  149SAPE  H12A16402   3.715   0.197   6.020  1.6192  1.0984 -2.3270
  149SAPE  H12B16403   3.814   0.331   6.104 -0.8096  0.5426  1.2381
  149SAPE   C1116404   3.699   0.200   6.247  0.7035  0.1379 -0.2664
  149SAPE  H11A16405   3.609   0.265   6.249  0.7738  0.2207  0.7104
  149SAPE  H11B16406   3.750   0.232   6.340 -0.3575 -0.5023  0.5532
  149SAPE     P16407   3.529  -0.000   6.242 -0.4153  0.3125  0.0862
  149SAPE   O1316408   3.429   0.104   6.209 -0.4442  0.4074 -0.5362
  149SAPE   O1416409   3.561  -0.094   6.126  0.4076  0.4060 -0.3433
  149SAPE   O1216410   3.668   0.058   6.277  0.0599  0.4249 -0.4712
  149SAPE   O1116411   3.482  -0.089   6.364 -0.2365 -0.1897 -0.4131
  149SAPE    C116412   3.568  -0.198   6.403 -0.3056  0.0592 -0.0626
  149SAPE    HA16413   3.574  -0.279   6.328 -2.9024  1.8672 -2.4575
  149SAPE    HB16414   3.671  -0.170   6.434 -0.0075  0.7631 -1.6122
  149SAPE    C216415   3.506  -0.275   6.524 -0.4000  0.2861  0.1270
  149SAPE    HS16416   3.398  -0.293   6.503 -0.4790  1.7301 -0.9351
  149SAPE   O2116417   3.515  -0.186   6.637 -0.4050 -0.0303  0.3834
  149SAPE   C2116418   3.414  -0.156   6.712 -0.2202 -0.0835  0.0715
  149SAPE   O2216419   3.307  -0.212   6.718  0.3499 -0.1178 -0.0333
  149SAPE   C2216420   3.464  -0.039   6.800 -0.0725 -0.3289  0.3874
  149SAPE   H2R16421   3.554  -0.062   6.861  0.5355 -0.6707 -0.6052
  149SAPE   H2S16422   3.492   0.040   6.728 -2.3877  2.2265  2.0957
  149SAPE    C316423   3.593  -0.404   6.537 -0.6510 -0.0811 -0.0152
  149SAPE    HX16424   3.695  -0.373   6.569  0.0265 -0.8034 -1.4223
  149SAPE    HY16425   3.608  -0.456   6.440 -1.3526  0.8464 -0.6351
  149SAPE   O3116426   3.540  -0.492   6.640  0.3119  0.0273 -0.5718
  149SAPE   C3116427   3.606  -0.604   6.630 -0.0644 -0.8280 -0.4505
  149SAPE   O3216428   3.702  -0.627   6.562  0.5652  0.2259  0.0524
  149SAPE   C3216429   3.563  -0.714   6.733 -0.7805 -0.1581 -0.1149
  149SAPE   H2X16430   3.651  -0.781   6.746 -0.2006  0.7462  0.7805
  149SAPE   H2Y16431   3.477  -0.767   6.689 -0.4323 -1.1012  0.3254
  149SAPE   C2316432   3.365   0.007   6.901  0.3883 -0.7870  0.2060
  149SAPE   H3R16433   3.348  -0.076   6.973 -0.5158 -0.0863  0.8313
  149SAPE   H3S16434   3.264   0.017   6.854  0.4913  1.0811  0.3195
  149SAPE   C2416435   3.402   0.138   6.974  0.1571  0.8351 -1.0937
  149SAPE   H4R16436   3.507   0.131   7.012 -0.0309 -0.5193 -0.7676
  149SAPE   H4S16437   3.337   0.151   7.063  2.0864 -0.1008  0.5209
  149SAPE   C2516438   3.389   0.254   6.884  0.1117  0.0010  0.2413
  149SAPE   H5R16439   3.324   0.230   6.799  2.5341 -1.0089 -1.4329
  149SAPE   C2616440   3.438   0.372   6.900  0.1452  0.0792 -0.1227
  149SAPE   H6R16441   3.419   0.439   6.815 -2.2893  1.2640  1.2636
  149SAPE   C2716442   3.516   0.426   7.018  0.4789  0.0201  0.3056
  149SAPE   H7R16443   3.580   0.503   6.971  1.1081 -0.2329  0.7438
  149SAPE   H7S16444   3.580   0.347   7.061 -1.2833 -1.0918  0.9991
  149SAPE   C2816445   3.427   0.487   7.120 -0.1328 -0.6698 -0.3707
  149SAPE   H8R16446   3.345   0.546   7.076 -0.5879 -0.1703  1.0644
  149SAPE   C2916447   3.430   0.461   7.251 -0.7947  0.1813  0.2362
  149SAPE   H9R16448   3.352   0.514   7.307 -1.6075 -0.2679 -0.4475
  149SAPE  C21016449   3.525   0.366   7.318  0.1522  0.9011 -0.4023
  149SAPE  H10R16450   3.620   0.423   7.330  1.1534 -0.9168  0.7817
  149SAPE  H10S16451   3.556   0.287   7.246 -0.2069  1.0920 -0.7702
  149SAPE  C21116452   3.491   0.307   7.450  0.1472  0.1590  0.0044
  149SAPE  H11R16453   3.479   0.198   7.447 -0.2557  0.2285 -1.3933
  149SAPE  C21216454   3.471   0.373   7.564 -0.3271 -0.3868  0.7520
  149SAPE  H12R16455   3.453   0.319   7.658  0.5936 -0.1067  1.0942
  149SAPE  C21316456   3.483   0.525   7.577 -0.2507 -0.3629 -0.0663
  149SAPE  H13R16457   3.388   0.579   7.555 -0.7953 -0.5330  1.7340
  149SAPE  H13S16458   3.565   0.562   7.512 -0.1287 -0.5107  0.0023
  149SAPE  C21416459   3.501   0.565   7.720 -0.5335 -0.7026  1.1748
  149SAPE  H14R16460   3.608   0.576   7.740  0.2521 -1.7526 -1.9673
  149SAPE  C21516461   3.405   0.602   7.804 -0.5693 -0.3414  0.3286
  149SAPE  H15R16462   3.443   0.645   7.898  3.4732 -1.9389 -0.3663
  149SAPE  C21616463   3.263   0.611   7.770  0.7476 -0.0869 -0.3382
  149SAPE  H16R16464   3.234   0.526   7.704  0.2705  0.6785 -1.1475
  149SAPE  H16S16465   3.247   0.707   7.716  1.6907  1.7758  2.4464
  149SAPE  C21716466   3.168   0.605   7.889  0.7348  0.0189  0.1847
  149SAPE  H17R16467   3.063   0.613   7.852  0.5131  0.7285  0.9548
  149SAPE  H17S16468   3.171   0.685   7.965 -1.7201  0.0703  0.3200
  149SAPE  C21816469   3.169   0.466   7.957 -0.3070 -0.9368  0.0570
  149SAPE  H18R16470   3.272   0.446   7.992  0.3126 -0.3495 -1.3685
  149SAPE  H18S16471   3.166   0.389   7.877  2.1819 -1.9445  0.8663
  149SAPE  C21916472   3.065   0.439   8.069 -0.0036 -0.6042  0.4337
  149SAPE  H19R16473   3.069   0.525   8.139  2.9575  0.5008 -0.9183
  149SAPE  H19S16474   3.096   0.349   8.128 -0.7072  1.0335  3.5111
  149SAPE  C22016475   2.927   0.426   8.008 -0.7186  0.9608  0.4570
  149SAPE  H20R16476   2.894   0.507   7.940 -1.3621  0.4136  0.0988
  149SAPE  H20S16477   2.845   0.405   8.080  1.1551 -3.4623  1.7037
  149SAPE  H20T16478   2.931   0.332   7.948  1.1616 -0.1327  2.1831
  149SAPE   C3316479   3.503  -0.647   6.858  0.1760  0.6450 -0.6135
  149SAPE   H3X16480   3.426  -0.572   6.830  0.1290  0.5338 -0.7825
  149SAPE   H3Y16481   3.577  -0.576   6.902  0.4287  0.9694 -1.5398
  149SAPE   C3416482   3.454  -0.747   6.964 -0.3985  0.8446 -0.2339
  149SAPE   H4X16483   3.538  -0.806   7.006 -0.7094 -1.5554 -2.7051
  149SAPE   H4Y16484   3.391  -0.821   6.910 -0.3448  0.1928  0.5675
  149SAPE   C3516485   3.373  -0.688   7.079 -0.9303 -0.0618  0.5947
  149SAPE   H5X16486   3.304  -0.618   7.027 -0.4925 -0.6769 -0.8726
  149SAPE   H5Y16487   3.448  -0.634   7.140 -0.7227  1.0968 -0.6366
  149SAPE   C3616488   3.287  -0.792   7.155 -0.0488 -0.1454 -0.4266
  149SAPE   H6X16489   3.229  -0.848   7.079  2.0847 -0.0818 -2.1959
  149SAPE   H6Y16490   3.213  -0.739   7.219 -0.5222 -1.2102 -0.0682
  149SAPE   C3716491   3.372  -0.903   7.222  0.3630 -1.2288  0.3741
  149SAPE   H7X16492   3.440  -0.830   7.271 -3.5541  2.6529  0.6212
  149SAPE   H7Y16493   3.417  -0.975   7.151  2.2638  0.8731 -0.6499
  149SAPE   C3816494   3.309  -0.984   7.344  0.6490 -0.1182 -0.4775
  149SAPE   H8X16495   3.368  -1.077   7.361 -1.4854 -1.8578 -1.8907
  149SAPE   H8Y16496   3.219  -1.035   7.302  0.6454  2.6755 -4.4436
  149SAPE   C3916497   3.275  -0.888   7.460  0.8544  0.0509 -0.2623
  149SAPE   H9X16498   3.171  -0.856   7.441  0.3799 -1.3850 -0.1496
  149SAPE   H9Y16499   3.347  -0.803   7.459  1.7177 -0.6464  0.6828
  149SAPE  C31016500   3.278  -0.966   7.586  0.0562 -0.3905 -0.1409
  149SAPE  H10X16501   3.383  -0.983   7.618 -0.0980 -0.6386  0.2300
  149SAPE  H10Y16502   3.232  -1.067   7.582 -0.6308 -0.0815 -3.4409
  149SAPE  C31116503   3.237  -0.887   7.715 -0.0913 -0.3268 -0.3130
  149SAPE  H11X16504   3.127  -0.882   7.700 -0.2789  0.0024  1.0080
  149SAPE  H11Y16505   3.272  -0.782   7.706 -1.5642  0.1321 -0.9838
  149SAPE  C31216506   3.286  -0.945   7.848  0.2608 -0.1823 -0.3616
  149SAPE  H12X16507   3.396  -0.956   7.848  0.3067 -0.0704  1.5773
  149SAPE  H12Y16508   3.239  -1.043   7.871 -0.4269  0.5866  1.7848
  149SAPE  C31316509   3.243  -0.867   7.977 -0.1780 -0.2869  0.6936
  149SAPE  H13X16510   3.133  -0.857   7.977 -0.1450  0.3674  2.4291
  149SAPE  H13Y16511   3.295  -0.769   7.975 -0.5241 -0.1103  0.4267
  149SAPE  C31416512   3.291  -0.922   8.117  0.6653  0.2680 -0.0008
  149SAPE  H14X16513   3.253  -1.027   8.118 -0.3396  0.5530 -2.3467
  149SAPE  H14Y16514   3.256  -0.859   8.201 -1.8862 -1.2032  0.1413
  149SAPE  C31516515   3.443  -0.940   8.132  0.2795 -0.9491  0.2139
  149SAPE  H15X16516   3.479  -0.836   8.116 -2.2006 -0.1117 -0.4497
  149SAPE  H15Y16517   3.489  -1.007   8.057  0.9792 -1.5896  1.1883
  149SAPE  C31616518   3.495  -0.966   8.274  0.8538 -0.1474  0.2138
  149SAPE  H16X16519   3.460  -1.068   8.300  0.7470 -0.2972 -0.5043
  149SAPE  H16Y16520   3.455  -0.885   8.339 -1.9259  0.2725 -1.8548
  149SAPE  C31716521   3.649  -0.974   8.278  0.4262 -0.4965  1.2709
  149SAPE  H17X16522   3.680  -0.880   8.229  1.0988 -2.3106 -2.0742
  149SAPE  H17Y16523   3.676  -1.048   8.200 -1.5289  0.0316 -0.0010
  149SAPE  C31816524   3.712  -1.000   8.416  0.6159 -0.1766 -0.5307
  149SAPE  H18X16525   3.821  -0.977   8.419  0.1773  1.9525  0.3637
  149SAPE  H18Y16526   3.706  -1.109   8.438  2.2182 -0.0942  0.4497
  149SAPE  H18Z16527   3.656  -0.942   8.492  2.6774 -0.5382  1.3587
  150SAPE     N16528   4.618   1.800   6.596 -0.6496 -0.1774  0.5186
  150SAPE   HN116529   4.614   1.775   6.696 -1.5922 -0.9506  0.2977
  150SAPE   HN216530   4.546   1.749   6.541  0.0735 -0.3182 -0.3411
  150SAPE   HN316531   4.704   1.774   6.542 -0.7922 -0.6059  0.4956
  150SAPE   C1216532   4.614   1.950   6.574 -0.0389 -0.2781  0.1648
  150SAPE  H12A16533   4.663   1.998   6.661  0.6914 -1.0465  0.1871
  150SAPE  H12B16534   4.507   1.976   6.590 -0.0263 -1.6001  3.1468
  150SAPE   C1116535   4.682   1.990   6.445  0.4763 -0.6662  0.7384
  150SAPE  H11A16536   4.680   2.100   6.433 -1.4302 -0.7423  0.0816
  150SAPE  H11B16537   4.629   1.957   6.353 -1.0867  1.1462  0.9414
  150SAPE     P16538   4.915   1.965   6.329  0.4169 -0.0329  0.0661
  150SAPE   O1316539   4.900   1.860   6.227  0.0467  0.2633  0.1568
  150SAPE   O1416540   4.895   2.101   6.273 -0.3083  0.3962 -0.5957
  150SAPE   O1216541   4.819   1.935   6.457  0.3035  0.0198  0.0139
  150SAPE   O1116542   5.058   1.953   6.393  0.1689  0.0747 -0.0170
  150SAPE    C116543   5.077   2.007   6.525 -0.1179 -0.4214  0.2834
  150SAPE    HA16544   5.152   2.088   6.513  0.6056 -0.7330  2.2403
  150SAPE    HB16545   4.991   2.062   6.567  0.0984  0.6302 -0.5957
  150SAPE    C216546   5.126   1.898   6.627 -0.7576  0.0358 -0.1409
  150SAPE    HS16547   5.054   1.813   6.627 -0.9544  0.0146  3.7042
  150SAPE   O2116548   5.138   1.945   6.765  0.5743 -0.1447  0.1273
  150SAPE   C2116549   5.019   1.948   6.830 -0.6001  0.5596 -0.1027
  150SAPE   O2216550   4.913   1.936   6.780  1.0006  0.2686 -0.1291
  150SAPE   C2216551   5.067   1.984   6.972 -0.5045  0.8246 -0.3947
  150SAPE   H2R16552   5.156   1.923   6.996 -1.0373 -0.2918 -1.1799
  150SAPE   H2S16553   5.096   2.092   6.975  0.1438  0.6477 -0.0755
  150SAPE    C316554   5.260   1.836   6.585 -0.0011  0.3968 -0.2549
  150SAPE    HX16555   5.335   1.918   6.590  0.3494  0.2008 -1.7968
  150SAPE    HY16556   5.272   1.805   6.479 -1.2760  0.8568 -0.5559
  150SAPE   O3116557   5.288   1.720   6.668 -0.3394  0.7637  0.2362
  150SAPE   C3116558   5.369   1.723   6.766  0.4297 -0.6286 -0.1568
  150SAPE   O3216559   5.429   1.820   6.808  0.3182  0.5668  0.7556
  150SAPE   C3216560   5.373   1.583   6.823 -0.5270 -0.1422 -0.1225
  150SAPE   H2X16561   5.476   1.563   6.859  0.7262 -0.4406 -3.5172
  150SAPE   H2Y16562   5.343   1.502   6.753  1.9443 -0.8115 -0.4915
  150SAPE   C2316563   4.961   1.967   7.088 -0.2358  0.0465  0.1055
  150SAPE   H3R16564   4.927   1.861   7.085 -1.1042  0.2964  0.7954
  150SAPE   H3S16565   4.871   2.024   7.058  0.1848  0.7096  0.0963
  150SAPE   C2416566   5.010   2.004   7.234  0.2276  0.3080 -0.0030
  150SAPE   H4R16567   4.922   1.993   7.301  2.7205 -0.8617  3.3594
  150SAPE   H4S16568   5.040   2.111   7.230  1.8806  0.0932  3.4143
  150SAPE   C2516569   5.136   1.933   7.274  0.0307  0.2098 -0.2330
  150SAPE   H5R16570   5.227   1.984   7.240 -0.7811  0.8601 -1.4844
  150SAPE   C2616571   5.142   1.811   7.338 -0.2986 -0.7001  0.6232
  150SAPE   H6R16572   5.238   1.766   7.368  0.1944 -0.0528  0.0315
  150SAPE   C2716573   5.015   1.739   7.385 -0.5698  0.3486  0.0779
  150SAPE   H7R16574   5.016   1.633   7.351 -0.1788  1.2996 -3.1767
  150SAPE   H7S16575   4.929   1.775   7.325  1.0183 -1.7052 -3.7991
  150SAPE   C2816576   4.990   1.774   7.530 -0.6157 -0.3149 -0.0175
  150SAPE   H8R16577   4.927   1.862   7.550 -0.5082  0.0127 -1.0822
  150SAPE   C2916578   5.026   1.697   7.632  0.2561  0.4319  0.1785
  150SAPE   H9R16579   4.992   1.719   7.734 -0.2283  0.1009  0.0934
  150SAPE  C21016580   5.104   1.570   7.628 -0.2213  0.1003  0.3959
  150SAPE  H10R16581   5.070   1.505   7.544 -3.1188 -0.2625  1.7171
  150SAPE  H10S16582   5.078   1.511   7.719  2.0263 -0.5279  0.6908
  150SAPE  C21116583   5.257   1.600   7.612 -0.2351  0.6122 -0.0267
  150SAPE  H11R16584   5.282   1.633   7.510 -0.0085 -1.3013 -0.6348
  150SAPE  C21216585   5.351   1.588   7.715  0.7583  0.1905 -0.2759
  150SAPE  H12R16586   5.450   1.634   7.707  1.5270 -1.3993 -0.2524
  150SAPE  C21316587   5.321   1.550   7.866  0.0687  0.4676 -0.4803
  150SAPE  H13R16588   5.402   1.498   7.921 -0.9201  0.5003  1.0927
  150SAPE  H13S16589   5.238   1.478   7.885  0.7868 -0.2162  0.1288
  150SAPE  C21416590   5.285   1.661   7.957 -0.3086  0.0972  0.7769
  150SAPE  H14R16591   5.251   1.755   7.911 -2.7582 -0.8310  0.5143
  150SAPE  C21516592   5.301   1.657   8.092  0.0391 -0.4703 -0.7091
  150SAPE  H15R16593   5.291   1.758   8.135  0.3492  0.1794 -2.1101
  150SAPE  C21616594   5.341   1.542   8.186 -0.5387 -0.9843 -0.8002
  150SAPE  H16R16595   5.306   1.446   8.143  0.9256 -1.3582 -1.2201
  150SAPE  H16S16596   5.293   1.551   8.286  0.6131 -2.2326 -0.0965
  150SAPE  C21716597   5.492   1.528   8.218 -0.0259  0.3240  0.0753
  150SAPE  H17R16598   5.531   1.550   8.117  0.4288  1.1597  0.4182
  150SAPE  H17S16599   5.523   1.428   8.254  1.0420  0.9992  1.1422
  150SAPE  C21816600   5.550   1.635   8.310 -0.6998 -0.0975 -0.4052
  150SAPE  H18R16601   5.494   1.726   8.282 -0.5740  0.0458 -0.1930
  150SAPE  H18S16602   5.657   1.650   8.284 -0.5514 -2.6842 -1.6476
  150SAPE  C21916603   5.540   1.596   8.465 -0.1224  0.8492  0.0561
  150SAPE  H19R16604   5.610   1.511   8.475 -0.4237  0.1920 -2.6418
  150SAPE  H19S16605   5.434   1.567   8.478 -0.1006 -0.6585 -2.4118
  150SAPE  C22016606   5.585   1.715   8.555  0.0395 -0.5565  0.2071
  150SAPE  H20R16607   5.544   1.809   8.513 -0.3665 -0.8658 -0.1048
  150SAPE  H20S16608   5.694   1.721   8.573  0.2309  1.0273 -1.2426
  150SAPE  H20T16609   5.517   1.711   8.644 -1.9955  1.7963 -1.1252
  150SAPE   C3316610   5.285   1.578   6.949 -0.6007 -0.2179 -0.2557
  150SAPE   H3X16611   5.179   1.581   6.914 -0.3475 -0.6154 -1.0854
  150SAPE   H3Y16612   5.298   1.661   7.021 -0.7346  0.2639 -0.7721
  150SAPE   C3416613   5.330   1.457   7.019 -0.2962 -0.0659  0.3117
  150SAPE   H4X16614   5.440   1.459   7.036 -0.5103  0.5816  1.7812
  150SAPE   H4Y16615   5.300   1.361   6.970  0.5866  0.6265 -1.7035
  150SAPE   C3516616   5.266   1.442   7.156 -0.5587  0.2927  0.2651
  150SAPE   H5X16617   5.156   1.459   7.161 -0.6419 -0.4460  1.1632
  150SAPE   H5Y16618   5.304   1.526   7.217 -1.3736  0.5498  0.4371
  150SAPE   C3616619   5.301   1.300   7.222  0.1447 -1.2011 -0.8980
  150SAPE   H6X16620   5.409   1.284   7.205  0.1835 -0.2176 -1.6419
  150SAPE   H6Y16621   5.238   1.229   7.164  0.9903 -2.6134 -0.1484
  150SAPE   C3716622   5.259   1.298   7.369 -0.0430 -0.0115  0.6302
  150SAPE   H7X16623   5.149   1.302   7.383 -0.0633 -1.7722  1.1557
  150SAPE   H7Y16624   5.308   1.392   7.405  3.1490 -1.7968  1.3561
  150SAPE   C3816625   5.307   1.177   7.453  0.6029 -0.5547  0.5844
  150SAPE   H8X16626   5.415   1.152   7.449  0.7013 -0.0940  0.3409
  150SAPE   H8Y16627   5.263   1.082   7.415  1.4918 -0.3682 -0.9977
  150SAPE   C3916628   5.265   1.194   7.592 -0.5714  0.1785 -0.6203
  150SAPE   H9X16629   5.158   1.204   7.619 -0.6781 -0.7812 -0.6534
  150SAPE   H9Y16630   5.317   1.288   7.617  3.3056 -1.6686 -0.9863
  150SAPE  C31016631   5.314   1.078   7.677  0.2914 -0.1761 -0.1110
  150SAPE  H10X16632   5.421   1.051   7.662 -0.1050 -1.2837 -1.1244
  150SAPE  H10Y16633   5.266   0.985   7.640  1.9703 -1.5150  0.8987
  150SAPE  C31116634   5.277   1.096   7.828  0.5505  0.0969  0.1002
  150SAPE  H11X16635   5.285   0.997   7.878  1.4518  0.7147  1.2163
  150SAPE  H11Y16636   5.168   1.118   7.831  0.6054  0.2882  1.2966
  150SAPE  C31216637   5.379   1.189   7.889 -0.0864 -0.2665  0.1430
  150SAPE  H12X16638   5.327   1.244   7.971 -1.1558 -0.0325 -0.6857
  150SAPE  H12Y16639   5.419   1.263   7.816  0.7752 -0.3953  0.4682
  150SAPE  C31316640   5.508   1.119   7.945  0.1276  0.4104  0.3103
  150SAPE  H13X16641   5.556   1.055   7.869 -1.9495 -1.7435  0.7114
  150SAPE  H13Y16642   5.489   1.048   8.029  0.1135  1.8045  1.5414
  150SAPE  C31416643   5.610   1.228   7.985 -0.3010  0.6381  0.2066
  150SAPE  H14X16644   5.555   1.300   8.049 -1.0071 -1.5521  2.2160
  150SAPE  H14Y16645   5.668   1.268   7.899 -1.8148  0.4653 -0.9294
  150SAPE  C31516646   5.720   1.186   8.084 -0.4582  0.6796  0.0040
  150SAPE  H15X16647   5.776   1.279   8.108  1.9759 -0.7541  0.2755
  150SAPE  H15Y16648   5.789   1.118   8.029  0.2051  1.5655 -0.2894
  150SAPE  C31616649   5.667   1.124   8.213  0.3651 -0.0960  0.2600
  150SAPE  H16X16650   5.612   1.031   8.185 -0.8394  0.3154  1.1662
  150SAPE  H16Y16651   5.582   1.190   8.242 -0.5298 -0.3966 -1.5111
  150SAPE  C31716652   5.761   1.106   8.332  0.2326 -0.1232 -0.2955
  150SAPE  H17X16653   5.842   1.040   8.294 -0.5980 -0.8655 -0.8234
  150SAPE  H17Y16654   5.712   1.052   8.416  0.3001  1.0631  0.5220
  150SAPE  C31816655   5.819   1.240   8.383  0.5163  0.0179 -0.0858
  150SAPE  H18X16656   5.839   1.229   8.492  0.7859 -0.9119 -0.2202
  150SAPE  H18Y16657   5.748   1.323   8.365  3.5101  2.6711 -0.5417
  150SAPE  H18Z16658   5.907   1.270   8.322 -2.3887  3.8541 -2.8656
  151SAPE     N16659   1.559   4.743   6.383  0.7688  0.5667 -0.2058
  151SAPE   HN116660   1.455   4.750   6.386  0.7956  0.8155  0.3412
  151SAPE   HN216661   1.586   4.838   6.351 -1.1866  1.1149 -0.3581
  151SAPE   HN316662   1.596   4.686   6.305  2.2694  1.2391 -0.0078
  151SAPE   C1216663   1.624   4.679   6.505  0.2950 -0.0317  0.2774
  151SAPE  H12A16664   1.545   4.689   6.582  0.0997 -0.3070  0.1096
  151SAPE  H12B16665   1.714   4.744   6.518  0.4291  0.0181 -0.7889
  151SAPE   C1116666   1.660   4.539   6.467 -0.1810 -0.6193 -0.0684
  151SAPE  H11A16667   1.697   4.484   6.557  2.2331 -0.6305 -1.0049
  151SAPE  H11B16668   1.744   4.540   6.394  0.4708  2.2828  0.5999
  151SAPE     P16669   1.543   4.317   6.392 -0.0866 -0.3415  0.4679
  151SAPE   O1316670   1.407   4.276   6.340  0.1322  0.3982 -0.0008
  151SAPE   O1416671   1.665   4.273   6.320  0.1711 -0.1096  0.3864
  151SAPE   O1216672   1.543   4.471   6.415  0.0381  0.5338  0.4189
  151SAPE   O1116673   1.572   4.281   6.544 -0.4104 -0.4157  0.2775
  151SAPE    C116674   1.459   4.239   6.624 -0.2531  0.3628  0.5364
  151SAPE    HA16675   1.367   4.300   6.618  0.3707  1.3303  0.5569
  151SAPE    HB16676   1.446   4.131   6.604  1.3989  0.0512  0.9846
  151SAPE    C216677   1.495   4.253   6.774  0.1730  0.0970 -0.5926
  151SAPE    HS16678   1.587   4.197   6.803  0.4736  1.2646  0.8505
  151SAPE   O2116679   1.372   4.205   6.841 -0.4775  0.3098  0.2578
  151SAPE   C2116680   1.366   4.071   6.842 -0.8189 -0.0046 -0.1375
  151SAPE   O2216681   1.455   3.997   6.804 -0.2402 -0.2891 -0.4822
  151SAPE   C2216682   1.229   4.032   6.894 -0.3739 -0.8631 -0.0608
  151SAPE   H2R16683   1.226   4.085   6.991 -0.5468 -0.3335 -0.3483
  151SAPE   H2S16684   1.153   4.090   6.836  0.4457  0.2673 -0.0405
  151SAPE    C316685   1.525   4.405   6.814 -0.1916  0.4588  0.1546
  151SAPE    HX16686   1.435   4.470   6.823 -1.6913 -1.5114 -0.1199
  151SAPE    HY16687   1.588   4.444   6.731 -0.1507  0.7852  0.3389
  151SAPE   O3116688   1.589   4.432   6.937 -0.6472  0.1302 -0.7859
  151SAPE   C3116689   1.722   4.432   6.944  0.0901  0.1936  0.1546
  151SAPE   O3216690   1.794   4.399   6.854  0.2384  0.2118 -0.4862
  151SAPE   C3216691   1.754   4.475   7.087 -0.5991  0.2820  0.5486
  151SAPE   H2X16692   1.709   4.404   7.159 -1.1351  0.5889  0.5188
  151SAPE   H2Y16693   1.714   4.577   7.107 -0.2898 -0.1303  3.8113
  151SAPE   C2316694   1.197   3.891   6.915  0.0550  0.0400  0.3551
  151SAPE   H3R16695   1.233   3.816   6.841 -2.4203 -1.6569  0.7460
  151SAPE   H3S16696   1.086   3.879   6.913  0.2151 -1.5847 -0.6956
  151SAPE   C2416697   1.221   3.840   7.057 -0.0318 -0.4467 -0.5093
  151SAPE   H4R16698   1.146   3.759   7.072  0.3754 -0.5141  1.4890
  151SAPE   H4S16699   1.188   3.915   7.133 -0.2965  0.2189 -1.2590
  151SAPE   C2516700   1.362   3.793   7.082  1.0032  0.7459  0.1234
  151SAPE   H5R16701   1.430   3.853   7.021 -0.2588  1.2187 -0.8642
  151SAPE   C2616702   1.386   3.679   7.154 -0.2850 -0.0981  0.5584
  151SAPE   H6R16703   1.494   3.660   7.160 -0.1802  0.2278 -0.1646
  151SAPE   C2716704   1.286   3.594   7.232 -0.2984  0.1411 -0.1488
  151SAPE   H7R16705   1.279   3.498   7.176  1.1987 -0.3135  0.4142
  151SAPE   H7S16706   1.181   3.631   7.234 -0.5499 -0.5390 -0.4008
  151SAPE   C2816707   1.333   3.556   7.369  0.5175 -0.1691 -0.3153
  151SAPE   H8R16708   1.385   3.460   7.381 -1.8280 -1.4803  0.0566
  151SAPE   C2916709   1.309   3.632   7.478 -0.4717 -0.6399 -0.3736
  151SAPE   H9R16710   1.354   3.611   7.577 -0.7674  0.6345  0.0564
  151SAPE  C21016711   1.225   3.762   7.477 -0.7276  0.8977  0.3455
  151SAPE  H10R16712   1.148   3.760   7.397 -1.6024  1.1937  1.1567
  151SAPE  H10S16713   1.289   3.846   7.443 -2.0693  2.2236  0.9273
  151SAPE  C21116714   1.149   3.796   7.612 -0.6818  0.7658  0.4832
  151SAPE  H11R16715   1.059   3.734   7.629 -0.6733  0.2133 -1.3488
  151SAPE  C21216716   1.181   3.887   7.697  0.0294  0.5508 -0.4538
  151SAPE  H12R16717   1.119   3.900   7.786 -1.4889 -0.9899 -1.2283
  151SAPE  C21316718   1.299   3.970   7.685 -0.6053  0.2547 -0.8899
  151SAPE  H13R16719   1.263   4.064   7.732  0.6859  0.3038  0.0707
  151SAPE  H13S16720   1.319   3.992   7.578  2.6240 -0.6698 -0.5999
  151SAPE  C21416721   1.428   3.914   7.727 -0.8842 -0.5918 -0.4341
  151SAPE  H14R16722   1.465   3.835   7.661  0.2278  1.6143 -2.6189
  151SAPE  C21516723   1.497   3.931   7.840 -0.3483 -0.2481 -0.1655
  151SAPE  H15R16724   1.599   3.889   7.844  0.2455  1.1500 -0.2095
  151SAPE  C21616725   1.452   4.012   7.958 -0.8923  0.6639  0.6032
  151SAPE  H16R16726   1.444   3.952   8.051 -0.4961  0.6279  0.6171
  151SAPE  H16S16727   1.350   4.054   7.943 -1.5915 -0.8279  1.0549
  151SAPE  C21716728   1.547   4.124   8.001  0.5726  0.1240  0.2007
  151SAPE  H17R16729   1.501   4.184   8.082  1.5547 -0.0089  0.8730
  151SAPE  H17S16730   1.569   4.192   7.916 -0.8102  0.1838 -0.1217
  151SAPE  C21816731   1.684   4.080   8.051 -0.4037  0.3769  0.0797
  151SAPE  H18R16732   1.740   4.176   8.045 -0.1992  0.3607  1.5559
  151SAPE  H18S16733   1.733   4.012   7.977  0.4037 -0.3105  1.2188
  151SAPE  C21916734   1.694   4.028   8.191 -0.3720  0.1028  0.0772
  151SAPE  H19R16735   1.658   3.924   8.206  0.6671 -0.2390  0.2902
  151SAPE  H19S16736   1.640   4.087   8.267 -1.2716 -1.5524  0.7767
  151SAPE  C22016737   1.842   4.030   8.234 -0.2781 -0.2370 -0.3374
  151SAPE  H20R16738   1.901   3.967   8.164  1.7995 -0.1809  1.2971
  151SAPE  H20S16739   1.899   4.124   8.223 -0.0823 -0.5919 -3.3185
  151SAPE  H20T16740   1.855   3.982   8.333 -0.4646  0.6272  0.1129
  151SAPE   C3316741   1.901   4.487   7.138 -0.6333 -0.3890 -0.5202
  151SAPE   H3X16742   1.946   4.575   7.087 -1.5350  1.3543  1.5479
  151SAPE   H3Y16743   1.963   4.398   7.115 -1.8975 -1.8077  1.3513
  151SAPE   C3416744   1.912   4.511   7.292 -0.0092  0.5773 -0.2989
  151SAPE   H4X16745   1.897   4.404   7.318 -1.3903  1.0430  0.9663
  151SAPE   H4Y16746   1.826   4.576   7.316 -0.3582  0.3204 -0.8213
  151SAPE   C3516747   2.042   4.573   7.353  0.8089 -0.0208  0.9084
  151SAPE   H5X16748   2.064   4.677   7.322  0.5518  0.4916  2.3949
  151SAPE   H5Y16749   2.131   4.513   7.324  0.1600 -0.2475 -0.7385
  151SAPE   C3616750   2.036   4.583   7.512 -0.1524  0.1170  0.8943
  151SAPE   H6X16751   2.138   4.613   7.546 -0.2922  0.6173  0.8822
  151SAPE   H6Y16752   2.025   4.485   7.562  2.5731  0.7812  3.0301
  151SAPE   C3716753   1.935   4.684   7.564 -0.7587  0.5772 -0.0447
  151SAPE   H7X16754   1.835   4.636   7.567 -1.2019  1.3658 -1.4615
  151SAPE   H7Y16755   1.923   4.766   7.490 -0.7781  0.9553  0.3710
  151SAPE   C3816756   1.973   4.743   7.703 -0.5848  0.0342  0.3007
  151SAPE   H8X16757   2.084   4.748   7.704 -0.6043  0.5905  1.0202
  151SAPE   H8Y16758   1.926   4.681   7.782 -0.4985  1.8785  1.8670
  151SAPE   C3916759   1.929   4.885   7.722  0.1605 -0.0087  0.5155
  151SAPE   H9X16760   1.818   4.895   7.723  0.0105 -1.2537  2.5021
  151SAPE   H9Y16761   1.975   4.949   7.644  0.7956 -2.0120 -0.8180
  151SAPE  C31016762   1.981   4.932   7.861  0.0504 -0.1332 -0.9482
  151SAPE  H10X16763   2.080   4.888   7.883 -1.5304 -2.0579  3.5140
  151SAPE  H10Y16764   1.907   4.887   7.930 -1.5318  0.8227 -1.9419
  151SAPE  C31116765   1.968   5.080   7.888  0.5180 -0.4383  0.1471
  151SAPE  H11X16766   2.040   5.134   7.823  2.0885  0.2367  2.3289
  151SAPE  H11Y16767   1.994   5.096   7.995 -2.2840  0.7212  0.7312
  151SAPE  C31216768   1.820   5.135   7.876 -0.0557 -1.0451  0.1756
  151SAPE  H12X16769   1.787   5.131   7.770 -0.8475 -2.1839  0.4505
  151SAPE  H12Y16770   1.820   5.243   7.901  0.4333 -1.3153  1.4182
  151SAPE  C31316771   1.705   5.063   7.953  0.0945  0.1016  0.1638
  151SAPE  H13X16772   1.738   5.054   8.059  0.2569  2.0621  0.3169
  151SAPE  H13Y16773   1.684   4.965   7.906 -0.9900  1.4154 -2.2463
  151SAPE  C31416774   1.569   5.132   7.949  0.1367  0.6810 -0.1160
  151SAPE  H14X16775   1.543   5.149   7.842 -1.5325 -1.3708 -0.1165
  151SAPE  H14Y16776   1.584   5.230   7.999 -0.9821  0.2872  1.0535
  151SAPE  C31516777   1.460   5.048   8.009  0.4384  0.9585 -0.2032
  151SAPE  H15X16778   1.477   5.017   8.115  0.6025  0.4560 -0.3715
  151SAPE  H15Y16779   1.458   4.952   7.953  2.4850  2.1953 -2.5689
  151SAPE  C31616780   1.319   5.111   8.007  0.4633  0.1042  0.2507
  151SAPE  H16X16781   1.234   5.043   8.030 -1.4673  1.6770 -1.7508
  151SAPE  H16Y16782   1.302   5.147   7.904  1.2108  0.7870  0.3601
  151SAPE  C31716783   1.293   5.239   8.081 -0.1550 -0.0601  0.4148
  151SAPE  H17X16784   1.365   5.319   8.054 -0.0403 -0.1792  0.3664
  151SAPE  H17Y16785   1.290   5.217   8.190 -0.2057 -0.9127  0.2465
  151SAPE  C31816786   1.158   5.294   8.050  0.1829  0.2628 -0.2128
  151SAPE  H18X16787   1.134   5.380   8.116 -0.0285 -1.0009  1.4353
  151SAPE  H18Y16788   1.081   5.217   8.072  0.6886 -0.1483  0.1454
  151SAPE  H18Z16789   1.147   5.326   7.944  1.2277 -1.4052 -0.8739
  152SAPE     N16790   3.956   0.986   5.876 -0.3912 -0.3614  0.2156
  152SAPE   HN116791   3.944   0.917   5.953 -0.5959 -1.5447 -0.8425
  152SAPE   HN216792   3.928   0.930   5.793  1.2333 -2.0836  0.7783
  152SAPE   HN316793   4.058   1.005   5.880 -0.5475  0.2956  3.3602
  152SAPE   C1216794   3.865   1.101   5.912 -0.5215 -0.3382 -0.0220
  152SAPE  H12A16795   3.761   1.076   5.885 -0.3201 -0.9676 -0.2440
  152SAPE  H12B16796   3.898   1.191   5.857  1.1690 -0.0252  1.3871
  152SAPE   C1116797   3.885   1.123   6.061 -0.5225 -0.4375 -0.1236
  152SAPE  H11A16798   3.862   1.033   6.122 -0.7672 -0.9242 -0.9185
  152SAPE  H11B16799   3.817   1.203   6.095 -0.9615 -0.5174 -0.7902
  152SAPE     P16800   4.072   1.292   6.132 -0.1679 -0.2195  0.0274
  152SAPE   O1316801   4.206   1.305   6.195  0.8984 -0.2580 -0.0571
  152SAPE   O1416802   4.048   1.371   6.013 -0.1188 -0.1620 -0.0892
  152SAPE   O1216803   4.023   1.147   6.100 -0.2205 -0.2809  0.4694
  152SAPE   O1116804   3.971   1.332   6.239  0.5403  0.6435 -0.4674
  152SAPE    C116805   3.989   1.266   6.368  0.0788  0.1703  0.2918
  152SAPE    HA16806   4.001   1.156   6.354 -1.7258  0.0733 -0.8140
  152SAPE    HB16807   4.070   1.307   6.431  0.4413 -2.8942  2.0183
  152SAPE    C216808   3.869   1.292   6.465 -0.4087 -0.5221 -0.0376
  152SAPE    HS16809   3.862   1.402   6.479 -0.8039 -0.3165 -1.6968
  152SAPE   O2116810   3.893   1.216   6.581 -0.1511  0.3661  0.2419
  152SAPE   C2116811   3.906   1.283   6.694 -0.3749 -0.0371  0.5474
  152SAPE   O2216812   3.898   1.401   6.707 -0.0437  0.5361  0.3510
  152SAPE   C2216813   3.911   1.179   6.807 -0.0969 -0.2315 -0.2134
  152SAPE   H2R16814   3.816   1.122   6.810  0.7653 -1.6782  0.7127
  152SAPE   H2S16815   3.996   1.119   6.770 -0.5203 -1.7734  1.1927
  152SAPE    C316816   3.737   1.235   6.403 -0.5303  0.9666  0.5815
  152SAPE    HX16817   3.764   1.133   6.369 -1.0574  0.9768  0.1329
  152SAPE    HY16818   3.713   1.283   6.306  2.4325 -1.6155 -1.6427
  152SAPE   O3116819   3.631   1.238   6.496 -0.0198  0.0314 -0.0982
  152SAPE   C3116820   3.561   1.349   6.495 -0.2409  0.7506  0.9261
  152SAPE   O3216821   3.599   1.450   6.440  0.0711 -0.8702 -0.6342
  152SAPE   C3216822   3.428   1.337   6.571 -0.8917 -0.7033 -0.3164
  152SAPE   H2X16823   3.398   1.230   6.572 -2.7409 -0.2157 -0.0111
  152SAPE   H2Y16824   3.349   1.388   6.511 -1.5147 -1.1430  0.1149
  152SAPE   C2316825   3.941   1.249   6.937 -0.0648 -0.1893  0.0311
  152SAPE   H3R16826   3.877   1.338   6.948  2.0016  1.3498  0.1504
  152SAPE   H3S16827   4.041   1.296   6.946 -1.2496  2.2213  1.7532
  152SAPE   C2416828   3.910   1.150   7.059  0.1067 -0.9200  0.9277
  152SAPE   H4R16829   3.966   1.056   7.038 -0.4400 -0.9906 -0.3266
  152SAPE   H4S16830   3.803   1.123   7.046  0.3277 -1.2897 -0.2810
  152SAPE   C2516831   3.951   1.216   7.190  0.0021 -0.2064 -0.5867
  152SAPE   H5R16832   3.911   1.315   7.214  2.5466  1.1115 -1.4428
  152SAPE   C2616833   4.017   1.158   7.298 -0.4797  0.2563 -0.1213
  152SAPE   H6R16834   4.044   1.219   7.385  2.4794  0.1270 -0.8278
  152SAPE   C2716835   4.056   1.015   7.310 -0.2078 -0.2020 -0.0683
  152SAPE   H7R16836   3.993   0.945   7.251  2.1115 -0.0995 -2.9068
  152SAPE   H7S16837   4.029   0.991   7.415 -0.7840  0.3907 -0.0748
  152SAPE   C2816838   4.200   0.979   7.288 -0.1071  0.5843 -0.0960
  152SAPE   H8R16839   4.222   0.957   7.183 -2.4179  0.0392 -0.5339
  152SAPE   C2916840   4.303   0.968   7.378  0.4118  0.6548 -1.0482
  152SAPE   H9R16841   4.404   0.937   7.349  0.1898 -2.3121  0.9696
  152SAPE  C21016842   4.281   1.001   7.524  0.7335  0.5119 -0.6835
  152SAPE  H10R16843   4.223   0.917   7.569  2.3975 -0.6679 -0.6517
  152SAPE  H10S16844   4.217   1.091   7.535 -1.2455 -0.8321 -0.6418
  152SAPE  C21116845   4.407   1.016   7.607  1.0961 -0.5383  0.6435
  152SAPE  H11R16846   4.485   1.075   7.557  1.0873  0.3713  1.6513
  152SAPE  C21216847   4.427   0.971   7.731  0.3760 -0.3606 -0.4213
  152SAPE  H12R16848   4.525   0.986   7.778  0.1366  1.8732 -0.5243
  152SAPE  C21316849   4.330   0.894   7.817 -1.0680 -0.6117 -0.9662
  152SAPE  H13R16850   4.387   0.828   7.886 -0.6319  2.2313  1.6034
  152SAPE  H13S16851   4.264   0.830   7.754 -1.2295 -0.1130 -1.3068
  152SAPE  C21416852   4.251   0.990   7.903 -0.2814 -0.4926 -0.1746
  152SAPE  H14R16853   4.260   1.095   7.872 -0.0702 -0.0779  1.2252
  152SAPE  C21516854   4.208   0.962   8.035 -0.5351 -0.4511 -0.9918
  152SAPE  H15R16855   4.169   1.046   8.094 -0.6892 -0.1741 -1.4793
  152SAPE  C21616856   4.226   0.833   8.109 -0.7993 -0.2063 -0.0123
  152SAPE  H16R16857   4.271   0.860   8.207  1.9332  0.3515 -1.3043
  152SAPE  H16S16858   4.296   0.761   8.061 -0.9893 -0.2635 -0.2080
  152SAPE  C21716859   4.092   0.761   8.133 -0.6590 -0.2120 -0.2211
  152SAPE  H17R16860   4.125   0.661   8.170 -1.1937 -0.0118  0.8134
  152SAPE  H17S16861   4.037   0.736   8.039 -1.4999 -1.3410  0.5353
  152SAPE  C21816862   3.997   0.810   8.242  0.1922 -0.0834  0.1148
  152SAPE  H18R16863   4.053   0.852   8.328 -2.4685  0.3824  1.7328
  152SAPE  H18S16864   3.933   0.731   8.289 -0.2691 -0.1121 -0.5389
  152SAPE  C21916865   3.899   0.924   8.195 -0.3997 -0.3158  0.8300
  152SAPE  H19R16866   3.866   0.890   8.095 -0.9911 -0.0057  0.9072
  152SAPE  H19S16867   3.950   1.020   8.175 -0.8484 -0.2927 -0.2645
  152SAPE  C22016868   3.766   0.939   8.279  0.6079 -0.1892 -0.4695
  152SAPE  H20R16869   3.730   1.042   8.258 -1.5240 -0.4434  1.5305
  152SAPE  H20S16870   3.789   0.931   8.387  0.3944  0.4665 -0.3720
  152SAPE  H20T16871   3.688   0.872   8.239  1.0623 -0.6090 -0.6688
  152SAPE   C3316872   3.430   1.386   6.725 -0.5017 -0.5460  0.8603
  152SAPE   H3X16873   3.325   1.377   6.761 -1.0791 -0.1273 -0.6634
  152SAPE   H3Y16874   3.465   1.491   6.726  0.0732 -0.6427 -2.1100
  152SAPE   C3416875   3.519   1.295   6.807 -0.7195 -0.1817  0.5621
  152SAPE   H4X16876   3.627   1.302   6.784 -0.8415  0.0316  0.0429
  152SAPE   H4Y16877   3.488   1.192   6.777 -0.9228 -0.0792  0.4234
  152SAPE   C3516878   3.499   1.308   6.948  0.4148 -0.2092 -0.1333
  152SAPE   H5X16879   3.542   1.220   7.000 -1.5907  0.1104  2.2317
  152SAPE   H5Y16880   3.393   1.304   6.981  0.0444  0.5733 -1.1577
  152SAPE   C3616881   3.555   1.446   6.992 -0.7922 -0.1842 -0.2634
  152SAPE   H6X16882   3.486   1.531   6.971 -0.5206  0.2224  0.4457
  152SAPE   H6Y16883   3.651   1.460   6.939 -1.4978 -0.9838 -1.8303
  152SAPE   C3716884   3.578   1.446   7.140 -0.6028 -0.2011  0.8397
  152SAPE   H7X16885   3.626   1.542   7.168 -1.5442  0.1621  1.2520
  152SAPE   H7Y16886   3.635   1.354   7.165 -0.1893  0.5035  2.6031
  152SAPE   C3816887   3.462   1.462   7.228 -0.4866 -0.0581 -0.0283
  152SAPE   H8X16888   3.388   1.380   7.212 -1.5803  0.4585  1.9792
  152SAPE   H8Y16889   3.412   1.556   7.199 -3.8013 -1.6130  0.1614
  152SAPE   C3916890   3.501   1.465   7.376  0.1918 -0.4137 -0.2111
  152SAPE   H9X16891   3.597   1.521   7.377  1.0699 -1.8610  0.7468
  152SAPE   H9Y16892   3.524   1.359   7.401 -0.6392 -0.1106  2.0246
  152SAPE  C31016893   3.397   1.509   7.471 -0.0174 -0.5888 -0.0711
  152SAPE  H10X16894   3.297   1.462   7.460 -1.1268  1.4988  0.4787
  152SAPE  H10Y16895   3.373   1.614   7.441 -0.6466 -1.0229 -1.1550
  152SAPE  C31116896   3.437   1.502   7.618  0.0172  0.5797  0.0382
  152SAPE  H11X16897   3.516   1.579   7.629  1.5176 -0.6743 -1.3552
  152SAPE  H11Y16898   3.483   1.401   7.630  0.5335  0.8867  0.6654
  152SAPE  C31216899   3.311   1.523   7.704 -0.0160 -0.3716 -0.1057
  152SAPE  H12X16900   3.241   1.441   7.676 -2.9768  1.4172  1.5282
  152SAPE  H12Y16901   3.263   1.620   7.679  0.4350 -0.6177 -2.1023
  152SAPE  C31316902   3.337   1.512   7.857  0.4718  0.3002 -0.5633
  152SAPE  H13X16903   3.401   1.595   7.892  1.7204  0.0068 -2.0468
  152SAPE  H13Y16904   3.396   1.419   7.865 -0.2822 -0.1031  0.5075
  152SAPE  C31416905   3.206   1.492   7.933  0.2244 -0.6515 -0.3942
  152SAPE  H14X16906   3.154   1.398   7.904 -0.2367 -1.2256  2.0835
  152SAPE  H14Y16907   3.136   1.577   7.920 -0.9940 -1.2890  1.5247
  152SAPE  C31516908   3.219   1.473   8.088 -0.6278 -0.1555 -0.6199
  152SAPE  H15X16909   3.293   1.391   8.094 -0.5280 -0.0018  0.4022
  152SAPE  H15Y16910   3.120   1.451   8.132 -1.3957  0.7395 -1.8142
  152SAPE  C31616911   3.262   1.599   8.159  0.2193  0.0562  0.1729
  152SAPE  H16X16912   3.180   1.673   8.146  1.6387  1.5550 -0.6295
  152SAPE  H16Y16913   3.357   1.637   8.115  1.5935 -2.3745  0.8633
  152SAPE  C31716914   3.291   1.581   8.305  0.2261  0.5285 -0.0804
  152SAPE  H17X16915   3.356   1.662   8.343  2.2570 -0.5312 -1.1749
  152SAPE  H17Y16916   3.344   1.485   8.317  2.3600  1.8438  1.6835
  152SAPE  C31816917   3.165   1.556   8.392  0.8605 -0.0531 -0.5035
  152SAPE  H18X16918   3.194   1.514   8.490  2.0193 -1.6484 -1.4839
  152SAPE  H18Y16919   3.101   1.487   8.331  0.2348  0.5847 -0.5893
  152SAPE  H18Z16920   3.114   1.652   8.412 -1.4515 -1.3256  0.1306
  153SAPE     N16921   4.863   0.394   5.929  0.2572 -0.3206  0.3484
  153SAPE   HN116922   4.889   0.298   5.957 -1.2485 -1.1424 -0.9114
  153SAPE   HN216923   4.801   0.368   5.850  0.9639 -2.3045  0.4045
  153SAPE   HN316924   4.949   0.444   5.898  0.0392 -0.5643 -0.6776
  153SAPE   C1216925   4.792   0.456   6.040  0.0780 -0.3084 -0.4350
  153SAPE  H12A16926   4.715   0.388   6.083 -1.7809  1.9560  0.0251
  153SAPE  H12B16927   4.749   0.550   5.999 -0.5910  0.1441  1.2283
  153SAPE   C1116928   4.878   0.491   6.158 -0.4625 -0.7560  0.1700
  153SAPE  H11A16929   4.935   0.403   6.197 -0.8685 -0.5560  1.2630
  153SAPE  H11B16930   4.815   0.524   6.244  0.1274 -1.2456  0.8045
  153SAPE     P16931   5.028   0.706   6.228 -0.1649 -0.0958  0.3361
  153SAPE   O1316932   5.043   0.821   6.139 -0.0343 -0.0161  0.1430
  153SAPE   O1416933   4.946   0.721   6.354 -0.1485 -0.2299  0.3179
  153SAPE   O1216934   4.973   0.589   6.131 -0.7095  0.1535 -0.0093
  153SAPE   O1116935   5.172   0.657   6.272 -0.0460 -0.1795 -0.2160
  153SAPE    C116936   5.197   0.514   6.282  0.6393 -1.0890 -0.3324
  153SAPE    HA16937   5.155   0.447   6.204  0.6214  0.1948 -1.4601
  153SAPE    HB16938   5.306   0.494   6.285  0.8930  0.3314  1.2514
  153SAPE    C216939   5.140   0.459   6.415  0.2543  0.9047  0.3666
  153SAPE    HS16940   5.034   0.490   6.423 -0.5057 -0.7710 -1.9506
  153SAPE   O2116941   5.217   0.508   6.530  0.4376 -0.0008  0.2039
  153SAPE   C2116942   5.152   0.498   6.645 -0.1497  0.5136 -0.1049
  153SAPE   O2216943   5.036   0.457   6.660  0.6303 -0.4241  0.2832
  153SAPE   C2216944   5.257   0.531   6.762  0.0450 -0.6014  0.2531
  153SAPE   H2R16945   5.353   0.482   6.735 -0.4569 -1.0684 -0.7520
  153SAPE   H2S16946   5.273   0.640   6.752 -0.5425 -0.2516  2.6047
  153SAPE    C316947   5.133   0.300   6.416  0.5229 -0.7510 -0.2749
  153SAPE    HX16948   5.077   0.271   6.325  0.9358  0.7840 -1.0499
  153SAPE    HY16949   5.071   0.264   6.501 -1.9900  4.6208  0.5530
  153SAPE   O3116950   5.266   0.243   6.402 -0.4213 -0.6452 -0.4956
  153SAPE   C3116951   5.326   0.230   6.519  0.2671 -0.1088  0.4191
  153SAPE   O3216952   5.269   0.241   6.627  0.0340  0.2980 -0.5689
  153SAPE   C3216953   5.480   0.192   6.499 -0.1952  0.4151 -0.5227
  153SAPE   H2X16954   5.517   0.282   6.445 -1.7264 -0.1190 -2.5913
  153SAPE   H2Y16955   5.474   0.100   6.436 -0.2822  0.2913 -0.3356
  153SAPE   C2316956   5.218   0.489   6.901 -0.3010 -0.4033  0.6473
  153SAPE   H3R16957   5.113   0.516   6.925 -2.3220 -2.4753 -4.6133
  153SAPE   H3S16958   5.278   0.555   6.968 -0.2820  1.4873 -1.1667
  153SAPE   C2416959   5.220   0.340   6.927 -0.2130  0.3289 -0.4818
  153SAPE   H4R16960   5.318   0.288   6.926  0.3061  1.1474  1.8252
  153SAPE   H4S16961   5.145   0.297   6.857  0.7639 -2.6785  0.2100
  153SAPE   C2516962   5.165   0.319   7.067  0.1882  0.2619 -0.0033
  153SAPE   H5R16963   5.064   0.361   7.083 -0.2144 -0.9395  0.7316
  153SAPE   C2616964   5.233   0.259   7.166 -0.2482 -0.1873 -0.7272
  153SAPE   H6R16965   5.184   0.227   7.259  0.9073 -1.4232 -0.5097
  153SAPE   C2716966   5.376   0.197   7.145 -0.2381  0.2323 -0.8124
  153SAPE   H7R16967   5.452   0.278   7.146 -1.2572  1.2142 -0.1611
  153SAPE   H7S16968   5.403   0.148   7.050 -2.2312  0.0752 -1.3406
  153SAPE   C2816969   5.421   0.095   7.251 -0.0658 -0.3393  0.1938
  153SAPE   H8R16970   5.450  -0.003   7.210 -0.5114 -1.2002  1.8436
  153SAPE   C2916971   5.430   0.106   7.383 -0.4426  0.3549 -0.8933
  153SAPE   H9R16972   5.478   0.020   7.433 -0.0058  1.1964  0.1824
  153SAPE  C21016973   5.401   0.217   7.479  0.4557  0.1373  0.2888
  153SAPE  H10R16974   5.291   0.212   7.497 -0.2465 -3.1161 -3.4290
  153SAPE  H10S16975   5.430   0.311   7.427  0.8604 -0.1144  0.0593
  153SAPE  C21116976   5.471   0.209   7.607 -0.4372 -0.1517 -0.2824
  153SAPE  H11R16977   5.569   0.257   7.614 -0.6323  0.7157 -2.7097
  153SAPE  C21216978   5.422   0.166   7.726  0.3077 -0.2623  0.1011
  153SAPE  H12R16979   5.497   0.157   7.806  0.0158 -0.0432  0.4034
  153SAPE  C21316980   5.289   0.113   7.754  0.2946 -0.5019  0.2456
  153SAPE  H13R16981   5.298   0.057   7.850 -0.2128  0.0640  0.6309
  153SAPE  H13S16982   5.263   0.045   7.670  1.3945  0.7631 -1.1819
  153SAPE  C21416983   5.184   0.220   7.762 -0.6250  0.0949  0.6128
  153SAPE  H14R16984   5.159   0.257   7.661 -2.6723  0.4660  1.1998
  153SAPE  C21516985   5.124   0.269   7.871  1.2304  1.0211 -0.0077
  153SAPE  H15R16986   5.047   0.348   7.862  0.7980  0.4658 -1.4079
  153SAPE  C21616987   5.165   0.226   8.011  0.0311  0.7083 -0.1293
  153SAPE  H16R16988   5.154   0.312   8.080  1.0643  0.1814  0.7266
  153SAPE  H16S16989   5.273   0.201   8.012  0.0610  0.8467  0.0189
  153SAPE  C21716990   5.082   0.113   8.073 -0.0616  0.1629 -0.3052
  153SAPE  H17R16991   5.079   0.021   8.012  0.4884 -1.5269  2.0476
  153SAPE  H17S16992   4.979   0.153   8.079 -0.6034 -0.6315 -3.1835
  153SAPE  C21816993   5.132   0.071   8.214 -0.1721 -0.2129 -0.0775
  153SAPE  H18R16994   5.062   0.012   8.276  1.1557 -1.3478  0.3870
  153SAPE  H18S16995   5.161   0.164   8.269  1.3766 -0.8788  0.2818
  153SAPE  C21916996   5.261  -0.015   8.217  0.5322  0.1066 -0.0961
  153SAPE  H19R16997   5.334   0.029   8.145  1.4950  1.1886  1.4838
  153SAPE  H19S16998   5.232  -0.118   8.187  2.1114 -1.4531  3.1970
  153SAPE  C22016999   5.328  -0.018   8.354 -0.6608 -0.2333 -0.3128
  153SAPE  H20R17000   5.400  -0.101   8.371  0.8290  1.4705  2.5594
  153SAPE  H20S17001   5.250  -0.028   8.433  0.6615 -1.4316  0.8941
  153SAPE  H20T17002   5.378   0.078   8.378  0.3698 -0.8136 -0.1014
  153SAPE   C3317003   5.555   0.163   6.638 -0.4293  0.9619  0.0211
  153SAPE   H3X17004   5.540   0.248   6.708 -0.1567 -0.2252  1.5765
  153SAPE   H3Y17005   5.664   0.156   6.621  0.5294  0.2280  4.9879
  153SAPE   C3417006   5.501   0.038   6.706  0.3648  0.2441  0.2162
  153SAPE   H4X17007   5.486  -0.047   6.636 -1.5681  0.7727 -0.0888
  153SAPE   H4Y17008   5.410   0.060   6.767  1.1950 -1.5113  2.1744
  153SAPE   C3517009   5.597  -0.019   6.819  0.4621  0.3947 -0.3692
  153SAPE   H5X17010   5.609   0.063   6.893  1.7666 -0.6014  0.5676
  153SAPE   H5Y17011   5.692  -0.030   6.763  0.0068  1.1007 -1.3178
  153SAPE   C3617012   5.546  -0.143   6.893 -0.1325  0.9076 -0.3581
  153SAPE   H6X17013   5.507  -0.223   6.827 -1.3268 -0.5024  1.9350
  153SAPE   H6Y17014   5.461  -0.111   6.956 -1.4936 -2.4077 -0.3149
  153SAPE   C3717015   5.644  -0.212   6.997  0.0705 -0.3282  0.4683
  153SAPE   H7X17016   5.642  -0.149   7.088 -1.1353 -1.1585  1.0380
  153SAPE   H7Y17017   5.750  -0.201   6.967 -0.1823  3.4252  0.5448
  153SAPE   C3817018   5.604  -0.350   7.062  0.7711 -0.5688  0.0376
  153SAPE   H8X17019   5.643  -0.426   6.992 -0.5234 -0.1173 -1.2059
  153SAPE   H8Y17020   5.493  -0.354   7.067  0.7287 -0.0237 -0.3420
  153SAPE   C3917021   5.666  -0.366   7.206 -0.1883 -0.2547 -0.1396
  153SAPE   H9X17022   5.777  -0.369   7.200 -0.1064  2.2314 -1.4679
  153SAPE   H9Y17023   5.624  -0.463   7.239 -5.0213  1.0273 -1.6115
  153SAPE  C31017024   5.628  -0.267   7.319  0.7569 -0.4110  0.1465
  153SAPE  H10X17025   5.519  -0.249   7.331  0.4542 -3.0022  2.4678
  153SAPE  H10Y17026   5.673  -0.167   7.306  1.4485 -0.2322  3.1626
  153SAPE  C31117027   5.680  -0.315   7.453 -0.2359 -0.3006 -0.5904
  153SAPE  H11X17028   5.791  -0.313   7.455 -0.1988  2.1372 -1.3844
  153SAPE  H11Y17029   5.642  -0.419   7.459  0.1706 -0.5418 -1.8232
  153SAPE  C31217030   5.624  -0.216   7.554 -0.2471  0.1480  0.7309
  153SAPE  H12X17031   5.513  -0.217   7.552 -0.2411 -1.1613  0.1511
  153SAPE  H12Y17032   5.664  -0.118   7.519  1.7816 -0.3705  1.4693
  153SAPE  C31317033   5.687  -0.249   7.687  0.2231  0.0275 -0.4575
  153SAPE  H13X17034   5.796  -0.226   7.686  0.2830 -0.1799  0.3433
  153SAPE  H13Y17035   5.678  -0.357   7.710 -2.6603  0.4426  0.8065
  153SAPE  C31417036   5.606  -0.187   7.801  0.0481 -0.5057  0.1875
  153SAPE  H14X17037   5.507  -0.237   7.801 -0.0825 -0.2528 -0.2667
  153SAPE  H14Y17038   5.595  -0.079   7.779  0.2262 -0.3906  0.6527
  153SAPE  C31517039   5.674  -0.214   7.932  0.3684 -0.1114 -1.0698
  153SAPE  H15X17040   5.782  -0.195   7.919  0.5903 -1.3382 -1.1243
  153SAPE  H15Y17041   5.656  -0.320   7.962  0.5188  0.8616  3.1705
  153SAPE  C31617042   5.626  -0.113   8.043  0.8311  0.0783  0.2199
  153SAPE  H16X17043   5.515  -0.122   8.052  0.8633 -0.2451  0.3279
  153SAPE  H16Y17044   5.651  -0.007   8.021 -1.3226  0.3897 -1.0393
  153SAPE  C31717045   5.688  -0.144   8.181 -0.0857  0.5836 -0.7408
  153SAPE  H17X17046   5.666  -0.060   8.250 -0.0754  0.3395 -0.4321
  153SAPE  H17Y17047   5.799  -0.134   8.172  0.1883 -0.6927  0.6943
  153SAPE  C31817048   5.656  -0.284   8.240  0.3840  0.4496  0.2075
  153SAPE  H18X17049   5.692  -0.281   8.345  0.8640 -0.3114  0.0721
  153SAPE  H18Y17050   5.715  -0.370   8.201  1.3401  1.5311 -0.7994
  153SAPE  H18Z17051   5.547  -0.305   8.242 -0.1672  2.8075  3.0819
  154SAPE     N17052   0.431   0.669   5.784 -0.8156  0.3567  0.3791
  154SAPE   HN117053   0.475   0.692   5.693 -0.0838  0.7531  0.8295
  154SAPE   HN217054   0.463   0.751   5.838  2.2022  0.5312 -1.4893
  154SAPE   HN317055   0.480   0.584   5.817 -0.4156  0.6728  0.6044
  154SAPE   C1217056   0.288   0.645   5.764 -0.1100 -0.2993 -0.6461
  154SAPE  H12A17057   0.270   0.576   5.848  0.3168  0.5032  0.1223
  154SAPE  H12B17058   0.269   0.612   5.659  1.9556  0.0699 -1.1732
  154SAPE   C1117059   0.214   0.785   5.790  0.3228 -0.7271 -0.1120
  154SAPE  H11A17060   0.104   0.778   5.804  0.4584  1.1878  2.6623
  154SAPE  H11B17061   0.218   0.846   5.697  1.8314  1.1175  1.1058
  154SAPE     P17062   0.201   0.819   6.054  0.1628  0.3843  0.4469
  154SAPE   O1317063   0.191   0.935   6.140  0.5940  0.1745 -0.0595
  154SAPE   O1417064   0.075   0.735   6.042 -0.6564 -0.3204 -0.4555
  154SAPE   O1217065   0.255   0.857   5.909  0.1513  0.1218 -0.0983
  154SAPE   O1117066   0.311   0.717   6.103  0.2653 -0.1122  0.0783
  154SAPE    C117067   0.416   0.754   6.196 -0.1709 -0.2784  0.0374
  154SAPE    HA17068   0.506   0.774   6.135 -0.2101 -1.4079 -0.4109
  154SAPE    HB17069   0.372   0.831   6.263 -0.3077  1.7039 -2.2117
  154SAPE    C217070   0.476   0.642   6.282  0.5997  0.6453 -0.5492
  154SAPE    HS17071   0.518   0.566   6.213  1.1703  0.8821 -0.4781
  154SAPE   O2117072   0.375   0.582   6.374  0.5438  0.1595  0.1091
  154SAPE   C2117073   0.407   0.460   6.408  0.0461 -0.0619  0.3647
  154SAPE   O2217074   0.509   0.407   6.364  0.2463 -0.0108 -0.0553
  154SAPE   C2217075   0.309   0.386   6.502  1.0544 -0.1592 -0.7342
  154SAPE   H2R17076   0.272   0.463   6.573 -0.7315 -0.1991 -1.5652
  154SAPE   H2S17077   0.219   0.360   6.442  0.1304  0.2321  0.4303
  154SAPE    C317078   0.596   0.684   6.379 -0.9420 -0.5260  0.8289
  154SAPE    HX17079   0.682   0.710   6.313 -1.1466  1.9368  1.4246
  154SAPE    HY17080   0.634   0.611   6.453  0.6527  0.4955  1.0671
  154SAPE   O3117081   0.562   0.803   6.442  0.0578  0.0508  0.4052
  154SAPE   C3117082   0.503   0.799   6.569 -0.0021  0.1451  0.8538
  154SAPE   O3217083   0.468   0.701   6.629 -0.0506 -0.3440 -0.0602
  154SAPE   C3217084   0.484   0.940   6.615  0.8053  0.2996 -0.0321
  154SAPE   H2X17085   0.404   0.978   6.548 -0.6484 -0.0637  1.4321
  154SAPE   H2Y17086   0.578   0.999   6.604  0.1634  1.0368 -2.0690
  154SAPE   C2317087   0.378   0.267   6.569  0.1557 -0.4216 -0.1839
  154SAPE   H3R17088   0.469   0.312   6.614  0.1710  0.1934 -0.8156
  154SAPE   H3S17089   0.423   0.194   6.499  2.5959 -0.5899  1.4675
  154SAPE   C2417090   0.303   0.198   6.691 -0.2098 -0.3225 -0.0256
  154SAPE   H4R17091   0.308   0.265   6.780 -2.9671  0.5422 -0.4332
  154SAPE   H4S17092   0.354   0.102   6.716 -1.4229 -0.8524  0.4917
  154SAPE   C2517093   0.161   0.164   6.657 -0.2791 -0.1910 -0.0411
  154SAPE   H5R17094   0.125   0.238   6.585 -0.4625  0.5558  0.8062
  154SAPE   C2617095   0.086   0.066   6.711 -0.3013 -0.0227  0.2991
  154SAPE   H6R17096  -0.007   0.038   6.660 -1.2027  0.2273  1.7480
  154SAPE   C2717097   0.136  -0.029   6.820 -0.1281 -0.2280  0.8972
  154SAPE   H7R17098   0.193   0.037   6.889  0.9385 -1.4033  1.1792
  154SAPE   H7S17099   0.205  -0.097   6.767 -2.7674 -1.5559 -1.0282
  154SAPE   C2817100   0.030  -0.112   6.890 -0.3917 -0.3231  0.9797
  154SAPE   H8R17101  -0.063  -0.120   6.832  1.1983  1.4384 -2.1034
  154SAPE   C2917102   0.055  -0.167   7.013 -0.0197 -0.4764  0.4298
  154SAPE   H9R17103  -0.027  -0.204   7.077 -1.0691  0.3286 -0.4041
  154SAPE  C21017104   0.183  -0.155   7.087 -0.1215 -0.5602  0.3467
  154SAPE  H10R17105   0.188  -0.045   7.103  0.0258 -0.3139 -1.2607
  154SAPE  H10S17106   0.265  -0.185   7.018 -0.5441 -0.6916 -0.1011
  154SAPE  C21117107   0.194  -0.241   7.209 -0.0214  0.4376 -0.4939
  154SAPE  H11R17108   0.148  -0.340   7.205 -2.1088  1.2624  0.8800
  154SAPE  C21217109   0.239  -0.197   7.328  0.6000 -0.1235 -0.8917
  154SAPE  H12R17110   0.246  -0.270   7.410  3.0001 -2.0860 -2.6725
  154SAPE  C21317111   0.292  -0.061   7.364  0.2788  0.2363  0.3486
  154SAPE  H13R17112   0.302  -0.005   7.269 -2.0672  0.3788  0.1218
  154SAPE  H13S17113   0.383  -0.066   7.428  0.0878 -1.4572  0.5176
  154SAPE  C21417114   0.185   0.008   7.447  0.1077  0.9130  0.3886
  154SAPE  H14R17115   0.125   0.073   7.382  2.0910 -0.4966 -3.0797
  154SAPE  C21517116   0.168   0.007   7.579 -0.1075 -0.3662 -0.8575
  154SAPE  H15R17117   0.082   0.067   7.611  0.2851  1.1523 -2.4677
  154SAPE  C21617118   0.238  -0.062   7.699  0.1814  0.3838  0.5558
  154SAPE  H16R17119   0.292   0.009   7.764 -0.3680 -0.6607  2.2286
  154SAPE  H16S17120   0.318  -0.128   7.659  0.6701  0.2882  1.6755
  154SAPE  C21717121   0.130  -0.144   7.774 -0.2613  0.5422 -0.5231
  154SAPE  H17R17122   0.172  -0.212   7.852 -1.4671  0.9456  0.5148
  154SAPE  H17S17123   0.079  -0.210   7.701 -0.5690  2.6313 -2.2826
  154SAPE  C21817124   0.016  -0.066   7.847  0.1005 -0.8113 -0.3152
  154SAPE  H18R17125  -0.061  -0.129   7.896 -0.7856  0.5994  0.1677
  154SAPE  H18S17126  -0.038   0.011   7.789 -1.1798 -0.1560  1.6610
  154SAPE  C21917127   0.069   0.007   7.973 -0.5408  0.3551  0.4478
  154SAPE  H19R17128   0.114   0.104   7.941 -0.1511 -0.6066 -2.1385
  154SAPE  H19S17129   0.153  -0.051   8.018 -0.3211  1.1924  1.1515
  154SAPE  C22017130  -0.034   0.033   8.070  0.3863 -0.1584  0.0292
  154SAPE  H20R17131  -0.085  -0.061   8.099 -1.3794  0.1642 -1.7868
  154SAPE  H20S17132  -0.109   0.097   8.018  0.1003 -1.7588 -1.6509
  154SAPE  H20T17133  -0.003   0.081   8.165  0.3349  0.5118 -0.2798
  154SAPE   C3317134   0.440   0.941   6.761  0.3790 -0.0327  0.4977
  154SAPE   H3X17135   0.372   0.854   6.773 -0.1396  0.3691  0.5383
  154SAPE   H3Y17136   0.384   1.034   6.786  0.8288  0.2648  0.3970
  154SAPE   C3417137   0.553   0.931   6.865 -0.2191  0.3596 -0.1835
  154SAPE   H4X17138   0.590   1.036   6.870  2.1488 -0.4389  0.6540
  154SAPE   H4Y17139   0.635   0.861   6.840  0.3170 -0.0955  2.5284
  154SAPE   C3517140   0.497   0.897   7.007  0.3370 -0.4823 -0.1902
  154SAPE   H5X17141   0.469   0.789   7.007 -0.6671 -0.2464  1.0377
  154SAPE   H5Y17142   0.405   0.958   7.010 -1.1742 -2.5305 -1.6340
  154SAPE   C3617143   0.595   0.920   7.122  0.5517  0.3239  0.2279
  154SAPE   H6X17144   0.638   1.021   7.111  0.7763 -0.0685 -4.6516
  154SAPE   H6Y17145   0.680   0.850   7.107  0.8037  0.5663  0.5234
  154SAPE   C3717146   0.530   0.911   7.257  0.2069  0.0065 -1.4651
  154SAPE   H7X17147   0.451   0.834   7.250 -0.8843  1.1774 -2.4958
  154SAPE   H7Y17148   0.486   1.005   7.298  0.4490 -0.8074  0.8191
  154SAPE   C3817149   0.633   0.869   7.363  0.1160 -0.3381 -0.1558
  154SAPE   H8X17150   0.695   0.957   7.393 -1.2229  0.6054 -0.0658
  154SAPE   H8Y17151   0.697   0.790   7.318  1.0868  1.4632 -2.1245
  154SAPE   C3917152   0.556   0.824   7.487  0.2315  0.3438 -0.0301
  154SAPE   H9X17153   0.503   0.727   7.472 -0.5612  0.4725  1.7039
  154SAPE   H9Y17154   0.479   0.899   7.515 -0.3593 -0.6563  1.1311
  154SAPE  C31017155   0.642   0.816   7.609  0.1434 -0.0369  0.2772
  154SAPE  H10X17156   0.682   0.919   7.622 -2.0034  0.7112  1.3239
  154SAPE  H10Y17157   0.737   0.759   7.603  0.6555  0.2684  3.4762
  154SAPE  C31117158   0.564   0.796   7.744 -0.2561 -1.0470 -0.1786
  154SAPE  H11X17159   0.555   0.690   7.778 -1.1939 -0.1295  2.6715
  154SAPE  H11Y17160   0.457   0.820   7.726 -0.0710 -0.8089 -0.9944
  154SAPE  C31217161   0.613   0.870   7.862  0.3146 -0.6265 -0.8067
  154SAPE  H12X17162   0.620   0.981   7.858 -1.0126 -0.3703  1.7339
  154SAPE  H12Y17163   0.719   0.837   7.869  0.5722  0.4217  0.9677
  154SAPE  C31317164   0.523   0.828   7.981  0.1441 -0.6782 -0.0504
  154SAPE  H13X17165   0.537   0.719   7.998 -0.0340 -0.5134  1.3140
  154SAPE  H13Y17166   0.416   0.839   7.953  0.1845  1.1847  0.3621
  154SAPE  C31417167   0.551   0.895   8.118  0.4716 -0.4663  0.6559
  154SAPE  H14X17168   0.474   0.844   8.179 -0.2719 -1.4222 -1.0061
  154SAPE  H14Y17169   0.513   1.000   8.113 -0.7488 -0.9405 -0.6916
  154SAPE  C31517170   0.684   0.872   8.189  0.6566  0.4780 -0.2256
  154SAPE  H15X17171   0.763   0.861   8.112  0.2537 -0.6023 -0.5141
  154SAPE  H15Y17172   0.676   0.768   8.227  0.5457 -0.1067 -1.7729
  154SAPE  C31617173   0.711   0.985   8.287 -0.3043 -0.2219  0.3595
  154SAPE  H16X17174   0.630   0.980   8.362  1.0993 -4.8009  1.8705
  154SAPE  H16Y17175   0.706   1.084   8.235 -0.1888  0.1212  0.9925
  154SAPE  C31717176   0.834   0.977   8.377  0.0564 -0.7027 -0.2611
  154SAPE  H17X17177   0.923   0.953   8.316 -0.5100 -0.7667 -1.0748
  154SAPE  H17Y17178   0.816   0.900   8.455  0.7133 -1.3394 -0.7337
  154SAPE  C31817179   0.856   1.112   8.453 -0.3684 -0.0407  0.7466
  154SAPE  H18X17180   0.780   1.123   8.534  0.8764  2.0025  1.7299
  154SAPE  H18Y17181   0.866   1.198   8.383 -2.8554 -0.8488 -0.7268
  154SAPE  H18Z17182   0.956   1.112   8.501  0.6596  1.5763 -1.2213
  155SAPE     N17183   3.317   0.330   6.143  0.2625 -0.3895 -0.1754
  155SAPE   HN117184   3.335   0.234   6.178  0.7737 -0.7730 -1.4646
  155SAPE   HN217185   3.326   0.327   6.040 -1.4139 -1.4610 -0.3420
  155SAPE   HN317186   3.391   0.393   6.178  0.4363  1.1996 -3.1488
  155SAPE   C1217187   3.185   0.380   6.190 -0.2099  0.4528 -0.4058
  155SAPE  H12A17188   3.108   0.318   6.139 -0.2920 -0.8471  1.2346
  155SAPE  H12B17189   3.181   0.482   6.146  0.6072  0.4304 -0.5615
  155SAPE   C1117190   3.178   0.399   6.345  0.0422  0.0985 -0.1050
  155SAPE  H11A17191   3.198   0.301   6.393 -0.3454  0.1433  0.1499
  155SAPE  H11B17192   3.071   0.412   6.372 -0.6522 -3.4619 -0.6908
  155SAPE     P17193   3.237   0.644   6.424 -0.2798  0.3123  0.2734
  155SAPE   O1317194   3.366   0.707   6.449  0.8261 -0.4245  0.2476
  155SAPE   O1417195   3.160   0.703   6.315 -0.8722  0.0716 -0.1658
  155SAPE   O1217196   3.260   0.494   6.404 -1.1669  0.1538  0.9381
  155SAPE   O1117197   3.158   0.640   6.562  0.9683  0.5719  0.4562
  155SAPE    C117198   3.200   0.578   6.678 -0.3256  0.0632  0.4085
  155SAPE    HA17199   3.222   0.470   6.669  0.0608  0.0842  1.0761
  155SAPE    HB17200   3.295   0.628   6.707 -0.9695  0.2420  2.3150
  155SAPE    C217201   3.101   0.610   6.795  0.4028  0.1160  0.4044
  155SAPE    HS17202   3.134   0.557   6.887 -0.3735  0.8308  1.1091
  155SAPE   O2117203   2.962   0.578   6.758  0.2707  0.3477 -0.0137
  155SAPE   C2117204   2.947   0.446   6.759 -0.2959  0.0627  0.6789
  155SAPE   O2217205   3.026   0.362   6.785  0.2179 -0.1848  0.5060
  155SAPE   C2217206   2.811   0.411   6.696 -0.6473 -0.2146  0.1547
  155SAPE   H2R17207   2.824   0.437   6.589  0.4148  0.1182  0.3563
  155SAPE   H2S17208   2.818   0.300   6.688 -0.8120 -0.3380  1.4783
  155SAPE    C317209   3.110   0.761   6.831  0.6363 -0.4050  0.1077
  155SAPE    HX17210   3.050   0.821   6.759  2.3014  0.5174 -0.5799
  155SAPE    HY17211   3.210   0.806   6.809  0.6790  0.8901  2.6394
  155SAPE   O3117212   3.070   0.790   6.968 -0.4322  0.0989  0.2226
  155SAPE   C3117213   3.064   0.916   6.999 -0.0942  0.3269 -0.1207
  155SAPE   O3217214   3.099   1.006   6.922  0.1115 -0.1129 -0.4964
  155SAPE   C3217215   3.023   0.948   7.142 -1.1101  0.2884  0.0367
  155SAPE   H2X17216   3.109   0.933   7.211  0.3183 -0.6399 -1.8453
  155SAPE   H2Y17217   2.943   0.874   7.165  0.0342 -0.7712  0.7541
  155SAPE   C2317218   2.694   0.485   6.760  0.0649 -0.5508  0.1436
  155SAPE   H3R17219   2.698   0.590   6.725  0.9207 -0.4945  0.3919
  155SAPE   H3S17220   2.692   0.488   6.871  0.7042  0.6044  0.1399
  155SAPE   C2417221   2.569   0.408   6.714 -0.3463 -0.0103 -0.2246
  155SAPE   H4R17222   2.574   0.297   6.711  0.0453  0.0233 -2.5672
  155SAPE   H4S17223   2.581   0.437   6.607 -1.0269  1.3435  0.0469
  155SAPE   C2517224   2.435   0.442   6.766  0.5712  0.1187  0.4143
  155SAPE   H5R17225   2.385   0.514   6.700  1.2085 -0.1011 -0.3221
  155SAPE   C2617226   2.375   0.395   6.878  0.0788  0.5926  0.4567
  155SAPE   H6R17227   2.277   0.432   6.909 -0.2956  0.4683 -0.5263
  155SAPE   C2717228   2.439   0.298   6.975 -0.2465  0.1140  0.3186
  155SAPE   H7R17229   2.547   0.277   6.957  1.4450  4.2987  3.7097
  155SAPE   H7S17230   2.401   0.194   6.990  1.2974 -0.0245  4.8858
  155SAPE   C2817231   2.441   0.352   7.121  0.7689  0.2783 -0.1341
  155SAPE   H8R17232   2.435   0.462   7.129  0.8383  0.4222 -1.7346
  155SAPE   C2917233   2.471   0.282   7.232  0.0341  0.0799 -0.5811
  155SAPE   H9R17234   2.493   0.346   7.319 -1.5677  1.6275 -1.2351
  155SAPE  C21017235   2.507   0.135   7.238  0.0628  0.2048 -0.0808
  155SAPE  H10R17236   2.613   0.128   7.206 -0.5586  1.5514 -2.7227
  155SAPE  H10S17237   2.441   0.076   7.171  0.9189  1.1063 -1.7995
  155SAPE  C21117238   2.487   0.082   7.377  0.9433 -0.0954  0.0569
  155SAPE  H11R17239   2.378   0.066   7.384  0.5025  2.3389 -0.2954
  155SAPE  C21217240   2.571   0.086   7.481 -0.1390 -0.0217 -0.6181
  155SAPE  H12R17241   2.544   0.031   7.572 -3.7929  0.7913 -1.0611
  155SAPE  C21317242   2.716   0.140   7.476 -0.4556 -0.3050 -0.2679
  155SAPE  H13R17243   2.734   0.183   7.375  1.0147 -2.0927 -0.8228
  155SAPE  H13S17244   2.794   0.062   7.482  1.0860  0.9934 -2.0778
  155SAPE  C21417245   2.712   0.256   7.577 -0.2754 -0.3956 -0.7919
  155SAPE  H14R17246   2.665   0.348   7.542 -0.0957  1.1988  2.7144
  155SAPE  C21517247   2.770   0.242   7.700 -0.3210 -0.2720 -0.7850
  155SAPE  H15R17248   2.776   0.328   7.768  1.4672 -1.5907  0.8238
  155SAPE  C21617249   2.842   0.117   7.761 -0.2553  0.4227  0.7720
  155SAPE  H16R17250   2.806   0.029   7.703  1.7157  0.0169  0.0956
  155SAPE  H16S17251   2.818   0.093   7.867 -0.2138  0.5851  0.8184
  155SAPE  C21717252   2.996   0.125   7.749 -0.3132 -0.2452 -0.2661
  155SAPE  H17R17253   3.037   0.196   7.824  0.2069  0.1986 -0.9597
  155SAPE  H17S17254   3.036   0.174   7.657 -1.0241  0.4704 -0.2006
  155SAPE  C21817255   3.054  -0.014   7.775 -0.6475 -0.1673  0.1856
  155SAPE  H18R17256   2.992  -0.089   7.722 -1.8772  0.9074  0.0503
  155SAPE  H18S17257   3.051  -0.038   7.884  2.8259  1.1725  0.6901
  155SAPE  C21917258   3.192  -0.033   7.717 -0.4135  0.6137 -0.5654
  155SAPE  H19R17259   3.173  -0.032   7.607  0.3522 -1.4235 -0.7741
  155SAPE  H19S17260   3.240  -0.130   7.744  1.7399  1.6557 -0.4527
  155SAPE  C22017261   3.297   0.082   7.741 -0.0708  0.7289  0.1127
  155SAPE  H20R17262   3.307   0.098   7.851  0.7667 -2.3785  0.6069
  155SAPE  H20S17263   3.268   0.176   7.690 -0.1732  1.4227  1.4128
  155SAPE  H20T17264   3.396   0.059   7.696 -0.8928 -2.4738 -0.3205
  155SAPE   C3317265   2.975   1.095   7.149  0.0273 -0.6870 -0.3058
  155SAPE   H3X17266   2.915   1.122   7.059 -0.5991 -1.4504 -0.1296
  155SAPE   H3Y17267   3.051   1.176   7.158 -1.7679  1.0090  0.6344
  155SAPE   C3417268   2.890   1.107   7.280  0.1337  0.7126  0.5103
  155SAPE   H4X17269   2.814   1.026   7.276  1.4907 -0.5841 -0.0863
  155SAPE   H4Y17270   2.842   1.207   7.281  2.6412  2.0134  2.4896
  155SAPE   C3517271   2.981   1.102   7.413 -0.1113 -0.5005 -0.2897
  155SAPE   H5X17272   3.067   1.172   7.414  0.8230 -1.6010 -1.1311
  155SAPE   H5Y17273   3.032   1.004   7.426 -0.5312 -0.5838  0.9194
  155SAPE   C3617274   2.888   1.125   7.534 -1.1516 -0.1814  0.5021
  155SAPE   H6X17275   2.810   1.047   7.536 -1.8242  0.4767  0.2305
  155SAPE   H6Y17276   2.845   1.227   7.524  1.2491  1.1654  2.5331
  155SAPE   C3717277   2.966   1.113   7.668 -0.2957  0.0375  0.2640
  155SAPE   H7X17278   3.046   1.190   7.672  0.7751 -0.9117 -1.5623
  155SAPE   H7Y17279   3.007   1.009   7.664  1.0235  0.5474 -0.0389
  155SAPE   C3817280   2.863   1.122   7.786 -0.1126 -0.4996 -0.4368
  155SAPE   H8X17281   2.780   1.050   7.765  0.0962 -0.9332  0.1803
  155SAPE   H8Y17282   2.817   1.223   7.794  1.2398  0.1514 -0.6522
  155SAPE   C3917283   2.921   1.080   7.914 -0.1035  0.0972 -0.8813
  155SAPE   H9X17284   3.019   1.130   7.925 -0.5252  0.7079  0.3277
  155SAPE   H9Y17285   2.950   0.975   7.895 -1.5982 -0.4078 -0.5579
  155SAPE  C31017286   2.834   1.092   8.034  0.0544  0.2727  0.5073
  155SAPE  H10X17287   2.755   1.013   8.027 -1.8880  2.2494 -1.6607
  155SAPE  H10Y17288   2.784   1.191   8.037  0.7779  0.6392  0.6477
  155SAPE  C31117289   2.908   1.079   8.159 -1.0304  0.7762 -0.3134
  155SAPE  H11X17290   2.835   1.072   8.243 -0.0985 -0.6333  0.4062
  155SAPE  H11Y17291   2.987   1.156   8.170 -2.0178  1.7719 -0.0556
  155SAPE  C31217292   2.982   0.947   8.159 -0.3566 -0.0831 -0.0697
  155SAPE  H12X17293   3.070   0.961   8.094  0.9211  1.4420  1.8519
  155SAPE  H12Y17294   2.917   0.864   8.122 -1.4013  0.1028  1.2361
  155SAPE  C31317295   3.018   0.897   8.302  1.1301 -0.3524 -0.5706
  155SAPE  H13X17296   2.924   0.903   8.361  1.5606  0.6340  0.0390
  155SAPE  H13Y17297   3.093   0.962   8.352  1.4575  1.1627 -2.8623
  155SAPE  C31417298   3.068   0.747   8.294 -0.1023 -0.1053 -0.2776
  155SAPE  H14X17299   3.114   0.724   8.195 -1.7772 -1.0361 -0.8668
  155SAPE  H14Y17300   2.975   0.687   8.289 -1.3630  1.3710  2.7939
  155SAPE  C31517301   3.153   0.694   8.411 -0.9841 -1.0699  0.3847
  155SAPE  H15X17302   3.169   0.584   8.401 -0.0592 -0.9903  0.8795
  155SAPE  H15Y17303   3.100   0.715   8.506  0.2194 -2.1670  1.3269
  155SAPE  C31617304   3.287   0.759   8.426  0.3456  0.1729 -0.2075
  155SAPE  H16X17305   3.273   0.868   8.440 -1.2058 -0.2537  2.1641
  155SAPE  H16Y17306   3.339   0.736   8.330 -1.3164 -1.8141 -0.7029
  155SAPE  C31717307   3.374   0.717   8.552  1.0524 -0.7827 -0.0310
  155SAPE  H17X17308   3.390   0.607   8.552  1.6097 -0.7108  0.8587
  155SAPE  H17Y17309   3.320   0.743   8.645 -1.0272 -0.5318 -1.2460
  155SAPE  C31817310   3.510   0.776   8.547  0.1870  0.4082  0.8343
  155SAPE  H18X17311   3.567   0.753   8.454  0.1140  1.3584  0.5505
  155SAPE  H18Y17312   3.572   0.723   8.623  0.6179 -0.4525 -0.0911
  155SAPE  H18Z17313   3.510   0.884   8.572 -0.1964  0.4933  0.4819
  156SAPE     N17314   3.352   2.306   6.307  0.5491 -0.1059 -0.2055
  156SAPE   HN117315   3.425   2.233   6.296 -0.3111 -0.9330 -0.5494
  156SAPE   HN217316   3.265   2.261   6.341  0.9485  0.2717  1.4082
  156SAPE   HN317317   3.335   2.355   6.217 -1.5087 -1.6028 -0.6994
  156SAPE   C1217318   3.392   2.412   6.413  0.5565 -0.1200  0.3165
  156SAPE  H12A17319   3.465   2.478   6.362 -1.3030  0.2635 -2.0330
  156SAPE  H12B17320   3.440   2.355   6.496  0.1923  0.6003  1.0425
  156SAPE   C1117321   3.275   2.490   6.464 -0.0819 -0.5345  0.1355
  156SAPE  H11A17322   3.294   2.562   6.547  0.4209 -0.6531  0.1262
  156SAPE  H11B17323   3.190   2.424   6.491 -1.6297  0.5438 -1.7925
  156SAPE     P17324   3.128   2.693   6.344 -0.0699 -0.0178 -0.0890
  156SAPE   O1317325   3.205   2.812   6.314  0.0388 -0.0597 -0.0242
  156SAPE   O1417326   3.021   2.655   6.246 -0.4544  0.3333 -0.4751
  156SAPE   O1217327   3.229   2.576   6.354  0.1483  0.1964 -0.0285
  156SAPE   O1117328   3.068   2.701   6.490  0.2690 -0.4198  0.9977
  156SAPE    C117329   3.013   2.826   6.534  0.2066 -0.2282 -0.5416
  156SAPE    HA17330   2.960   2.877   6.450 -1.9005 -2.5332 -0.7307
  156SAPE    HB17331   2.942   2.809   6.618  1.3327  0.2449  0.5367
  156SAPE    C217332   3.110   2.926   6.613 -0.5386  0.2992 -0.2013
  156SAPE    HS17333   3.187   2.952   6.536 -0.2138 -2.4519 -0.9174
  156SAPE   O2117334   3.156   2.856   6.729  0.5104 -0.5617  0.7381
  156SAPE   C2117335   3.265   2.905   6.779 -0.1335  0.5364 -1.0077
  156SAPE   O2217336   3.332   2.994   6.731 -0.2161 -0.5057  0.0840
  156SAPE   C2217337   3.293   2.833   6.910  0.2016 -0.1833 -0.0465
  156SAPE   H2R17338   3.203   2.841   6.975 -1.0140 -0.1317 -1.6863
  156SAPE   H2S17339   3.309   2.724   6.895 -1.7897 -0.6049  0.5523
  156SAPE    C317340   3.040   3.058   6.660  1.1852  0.0814 -0.7505
  156SAPE    HX17341   3.002   3.118   6.575 -0.5094  0.1894  0.0524
  156SAPE    HY17342   3.109   3.130   6.708  1.8621 -0.7138 -0.5105
  156SAPE   O3117343   2.930   3.030   6.750  0.0260 -0.2343 -0.1044
  156SAPE   C3117344   2.947   3.036   6.882  0.0290 -0.3123 -0.4670
  156SAPE   O3217345   3.052   3.061   6.937  0.0542  0.6899  0.3944
  156SAPE   C3217346   2.818   3.001   6.958 -0.0933  0.8088  0.1607
  156SAPE   H2X17347   2.739   3.075   6.931  0.5623  1.4812  0.0585
  156SAPE   H2Y17348   2.833   3.028   7.065  0.8408  1.3218 -0.0925
  156SAPE   C2317349   3.411   2.895   6.982 -0.8065  0.5463  0.2503
  156SAPE   H3R17350   3.396   3.005   6.991  0.9485  0.7785  0.8891
  156SAPE   H3S17351   3.498   2.886   6.914 -1.0608 -1.3619  0.1271
  156SAPE   C2417352   3.442   2.826   7.117  0.1183 -0.4837 -0.6397
  156SAPE   H4R17353   3.533   2.862   7.170 -0.1100  2.5862 -2.0788
  156SAPE   H4S17354   3.452   2.717   7.105  3.3010 -0.5768  1.4373
  156SAPE   C2517355   3.342   2.866   7.221 -0.7224 -0.8083 -0.5831
  156SAPE   H5R17356   3.304   2.969   7.220 -4.0986 -1.9560 -2.3740
  156SAPE   C2617357   3.277   2.779   7.302 -0.6089 -0.0271  0.2471
  156SAPE   H6R17358   3.188   2.812   7.358 -1.6093  1.5689 -2.1250
  156SAPE   C2717359   3.308   2.630   7.304  0.8174 -0.3534 -0.9891
  156SAPE   H7R17360   3.417   2.611   7.292  1.9596  2.4875  3.0453
  156SAPE   H7S17361   3.246   2.576   7.229 -0.2190  0.4430 -0.7255
  156SAPE   C2817362   3.277   2.556   7.433 -0.4154 -0.3953 -0.4820
  156SAPE   H8R17363   3.179   2.506   7.443 -1.3131  1.1179 -1.2626
  156SAPE   C2917364   3.359   2.555   7.541  1.5034 -0.3791  0.8456
  156SAPE   H9R17365   3.321   2.503   7.629  1.4083 -1.0627  0.4075
  156SAPE  C21017366   3.486   2.632   7.559  0.3965  0.3308  1.5060
  156SAPE  H10R17367   3.460   2.737   7.583  0.7891  0.4448  1.4323
  156SAPE  H10S17368   3.541   2.640   7.463 -1.0142 -0.1327  0.6220
  156SAPE  C21117369   3.585   2.585   7.662  0.2226  0.7628  0.0951
  156SAPE  H11R17370   3.684   2.561   7.619 -0.6256 -1.8044 -0.6212
  156SAPE  C21217371   3.567   2.582   7.793  0.4923  0.2673 -0.4495
  156SAPE  H12R17372   3.633   2.528   7.862  0.2132 -1.2416 -1.3357
  156SAPE  C21317373   3.441   2.625   7.855  0.6892 -0.3614 -0.0787
  156SAPE  H13R17374   3.378   2.685   7.786  0.3942 -0.5746  0.0036
  156SAPE  H13S17375   3.462   2.685   7.946 -1.6708  1.4526 -0.6362
  156SAPE  C21417376   3.343   2.515   7.896  0.3446  0.0853  0.2373
  156SAPE  H14R17377   3.372   2.409   7.889 -1.1337 -0.4050  0.9399
  156SAPE  C21517378   3.221   2.538   7.946 -0.1321 -0.0182  0.0559
  156SAPE  H15R17379   3.158   2.453   7.977  1.5834 -0.3236  3.1263
  156SAPE  C21617380   3.162   2.673   7.974  0.7932 -0.3902  0.1011
  156SAPE  H16R17381   3.231   2.759   7.964  1.6870 -0.9885  0.8904
  156SAPE  H16S17382   3.132   2.679   8.081 -0.1112  0.4567 -0.1816
  156SAPE  C21717383   3.045   2.711   7.883 -0.0565  0.7083 -0.3508
  156SAPE  H17R17384   3.034   2.821   7.896  0.3362  0.7954 -0.7352
  156SAPE  H17S17385   2.952   2.656   7.906 -1.0504  1.9077 -1.3379
  156SAPE  C21817386   3.061   2.680   7.731 -0.7098  0.4173 -0.3600
  156SAPE  H18R17387   3.069   2.570   7.730 -1.2219  0.2959  2.2457
  156SAPE  H18S17388   3.152   2.720   7.681 -0.9909  0.5128 -0.8050
  156SAPE  C21917389   2.943   2.728   7.653 -0.9706 -0.9690  0.3767
  156SAPE  H19R17390   2.853   2.737   7.717  0.7440 -1.8531  3.0555
  156SAPE  H19S17391   2.911   2.651   7.579 -0.1832 -0.5782 -0.3793
  156SAPE  C22017392   2.971   2.869   7.591  0.5551  0.0243  0.5567
  156SAPE  H20R17393   3.037   2.934   7.652  1.6292  0.3738 -0.8908
  156SAPE  H20S17394   2.877   2.926   7.578  0.4239  0.0734  1.6377
  156SAPE  H20T17395   3.007   2.857   7.486 -1.3705  0.4965 -0.1980
  156SAPE   C3317396   2.788   2.848   6.954  0.2290  0.5925  0.3457
  156SAPE   H3X17397   2.793   2.809   6.850 -2.1046  0.0149  0.4024
  156SAPE   H3Y17398   2.688   2.825   6.997  1.1253  2.8042  4.1492
  156SAPE   C3417399   2.898   2.765   7.025  0.0195  0.2919 -0.1319
  156SAPE   H4X17400   2.896   2.796   7.131 -1.5891  1.5420 -0.4875
  156SAPE   H4Y17401   2.998   2.784   6.980 -0.4461  0.7288 -1.0012
  156SAPE   C3517402   2.887   2.607   7.017  0.3809 -0.0579 -0.2569
  156SAPE   H5X17403   2.966   2.571   7.087 -0.0164 -0.3397  0.0486
  156SAPE   H5Y17404   2.897   2.569   6.913 -0.7063  0.8322 -0.7038
  156SAPE   C3617405   2.743   2.557   7.057  0.3967 -0.2342 -0.4155
  156SAPE   H6X17406   2.751   2.447   7.069 -0.5283 -0.0960  1.7874
  156SAPE   H6Y17407   2.666   2.571   6.978 -1.5181  0.4982  1.5079
  156SAPE   C3717408   2.685   2.614   7.189 -0.4058 -0.1817  0.2940
  156SAPE   H7X17409   2.582   2.575   7.205 -0.1477 -0.8954  0.2588
  156SAPE   H7Y17410   2.681   2.725   7.188  0.4410 -0.1343  0.9088
  156SAPE   C3817411   2.765   2.572   7.319  0.8003  0.8068 -0.9955
  156SAPE   H8X17412   2.697   2.597   7.404 -0.1427 -2.4663 -0.6680
  156SAPE   H8Y17413   2.863   2.623   7.332  1.3894 -0.0728 -1.8882
  156SAPE   C3917414   2.789   2.420   7.342 -0.0975 -0.2052  0.1692
  156SAPE   H9X17415   2.867   2.400   7.265  2.3681  1.1130  2.1903
  156SAPE   H9Y17416   2.701   2.364   7.302  0.0042 -0.4606  0.3034
  156SAPE  C31017417   2.819   2.374   7.485  0.4656  0.3258 -0.2649
  156SAPE  H10X17418   2.870   2.457   7.539  0.2352  1.5349 -1.8493
  156SAPE  H10Y17419   2.874   2.280   7.462 -0.2167  0.2843 -1.8516
  156SAPE  C31117420   2.679   2.349   7.544 -0.2217  0.0081 -0.6124
  156SAPE  H11X17421   2.641   2.253   7.503  1.7448 -1.3557  0.5754
  156SAPE  H11Y17422   2.613   2.432   7.510 -0.0219  1.6988  2.6860
  156SAPE  C31217423   2.684   2.329   7.693 -0.5078 -0.7306  0.0036
  156SAPE  H12X17424   2.747   2.405   7.745  1.3763 -3.0637  1.3392
  156SAPE  H12Y17425   2.750   2.241   7.709 -0.0723 -0.8660 -2.2761
  156SAPE  C31317426   2.546   2.295   7.757  0.5341 -0.3701 -0.0632
  156SAPE  H13X17427   2.501   2.218   7.691  0.1809  0.3729 -0.7027
  156SAPE  H13Y17428   2.489   2.390   7.748 -1.8379 -1.5085  1.7028
  156SAPE  C31417429   2.548   2.251   7.905 -0.0985 -0.6163  0.8732
  156SAPE  H14X17430   2.622   2.169   7.908  0.8565  0.2238  0.8883
  156SAPE  H14Y17431   2.442   2.237   7.932 -1.1337  1.7014 -1.4474
  156SAPE  C31517432   2.607   2.366   7.989  0.6228 -0.6822 -0.2325
  156SAPE  H15X17433   2.557   2.458   7.952  0.8514 -1.1205 -1.6808
  156SAPE  H15Y17434   2.714   2.375   7.960  0.9301 -3.2731 -0.1370
  156SAPE  C31617435   2.600   2.353   8.143 -0.6772  0.4047 -0.6171
  156SAPE  H16X17436   2.664   2.267   8.171 -2.4336 -0.3776  1.3258
  156SAPE  H16Y17437   2.498   2.319   8.172 -0.1048  0.5676  1.8390
  156SAPE  C31717438   2.632   2.486   8.210 -0.5535 -0.3321  0.1828
  156SAPE  H17X17439   2.632   2.471   8.321 -1.2534 -2.3019 -0.0333
  156SAPE  H17Y17440   2.564   2.567   8.177 -2.4087 -1.5433  0.8275
  156SAPE  C31817441   2.777   2.529   8.184  0.6706 -0.3569  0.6941
  156SAPE  H18X17442   2.836   2.435   8.178 -0.3921 -0.9714 -0.7131
  156SAPE  H18Y17443   2.820   2.602   8.256 -0.6181  0.7677  0.3850
  156SAPE  H18Z17444   2.799   2.580   8.088  1.4373  2.1981  2.1286
  157SAPE     N17445   2.172   2.542   6.279  0.0944 -0.4886  0.2347
  157SAPE   HN117446   2.260   2.586   6.247  0.7512 -1.5530  0.5292
  157SAPE   HN217447   2.123   2.620   6.326 -0.8673 -1.1227  0.3185
  157SAPE   HN317448   2.194   2.465   6.346  1.0372 -1.6535 -1.3184
  157SAPE   C1217449   2.087   2.494   6.153 -0.4348 -0.1166 -0.1126
  157SAPE  H12A17450   2.002   2.427   6.176 -0.5260 -0.4201 -1.2706
  157SAPE  H12B17451   2.161   2.437   6.094 -0.8447  0.9910 -1.7777
  157SAPE   C1117452   2.038   2.623   6.077 -0.4208  0.1164  0.3650
  157SAPE  H11A17453   1.993   2.602   5.978  0.6896  0.0878 -0.1421
  157SAPE  H11B17454   2.139   2.659   6.049 -0.4517  0.5301  0.7765
  157SAPE     P17455   1.940   2.861   6.109 -0.0952  0.9412  0.0556
  157SAPE   O1317456   2.045   2.906   6.016 -0.4348  0.6861  0.3086
  157SAPE   O1417457   1.797   2.855   6.064  0.1336 -0.0634 -0.0470
  157SAPE   O1217458   1.974   2.712   6.161 -0.0636 -1.2656  0.7831
  157SAPE   O1117459   1.937   2.944   6.242  0.0520 -0.2472  0.3035
  157SAPE    C117460   2.027   3.059   6.249  0.4002 -0.4693 -0.6177
  157SAPE    HA17461   2.041   3.112   6.152 -1.7332  4.6832  1.5290
  157SAPE    HB17462   1.970   3.137   6.304  0.2832 -0.6086 -0.5437
  157SAPE    C217463   2.165   3.036   6.318 -0.7563 -0.4076 -0.3112
  157SAPE    HS17464   2.215   2.958   6.258 -0.7570  1.7341 -3.3447
  157SAPE   O2117465   2.157   2.997   6.455  0.4370  0.0261  0.1139
  157SAPE   C2117466   2.115   2.878   6.485  0.4852  0.2453 -0.2779
  157SAPE   O2217467   2.114   2.775   6.418 -0.1542  0.5559  0.3832
  157SAPE   C2217468   2.074   2.878   6.635 -0.1949  0.6094  0.0234
  157SAPE   H2R17469   1.987   2.810   6.640  0.2394 -0.0210 -0.8174
  157SAPE   H2S17470   2.154   2.830   6.695  0.2692  0.4278 -0.7268
  157SAPE    C317471   2.242   3.166   6.315  0.1127  0.3352  0.4086
  157SAPE    HX17472   2.253   3.188   6.206  0.8890 -0.6482  0.2700
  157SAPE    HY17473   2.347   3.144   6.345  0.2142  0.0452 -0.1388
  157SAPE   O3117474   2.186   3.270   6.397  0.3896  0.2287 -0.4009
  157SAPE   C3117475   2.258   3.382   6.389  0.1138 -0.1025  0.0960
  157SAPE   O3217476   2.333   3.415   6.298 -0.0686  0.2511 -0.3125
  157SAPE   C3217477   2.213   3.469   6.514 -0.4564 -0.1380 -0.6312
  157SAPE   H2X17478   2.102   3.473   6.514 -0.4718 -0.5604 -0.8963
  157SAPE   H2Y17479   2.268   3.562   6.486 -0.9391  0.9712  1.8487
  157SAPE   C2317480   2.043   3.015   6.705  0.2367 -0.6908  0.1927
  157SAPE   H3R17481   1.952   3.054   6.654  0.4475 -1.2481 -0.6262
  157SAPE   H3S17482   2.131   3.079   6.681 -0.2074 -0.0182  0.3300
  157SAPE   C2417483   2.019   3.018   6.856  0.2851  0.7743 -0.3116
  157SAPE   H4R17484   1.981   3.119   6.883 -0.5997  0.4656 -0.3749
  157SAPE   H4S17485   2.115   3.003   6.911 -0.2888 -1.3785  0.1896
  157SAPE   C2517486   1.926   2.907   6.896 -0.0611  0.4460 -0.6849
  157SAPE   H5R17487   1.869   2.858   6.816 -0.3057 -2.5163  1.1753
  157SAPE   C2617488   1.895   2.874   7.026 -0.3938 -0.6793  0.7032
  157SAPE   H6R17489   1.826   2.792   7.050 -0.6904  0.1070  2.7079
  157SAPE   C2717490   1.955   2.923   7.152 -0.1810  0.4327  0.1862
  157SAPE   H7R17491   2.021   3.010   7.130 -0.5122  0.6298 -0.0270
  157SAPE   H7S17492   2.028   2.848   7.191 -0.7866  0.2194  0.9229
  157SAPE   C2817493   1.861   2.951   7.267  0.0638  0.1980 -0.2826
  157SAPE   H8R17494   1.760   2.913   7.247  0.3737 -1.4824  1.1250
  157SAPE   C2917495   1.889   3.001   7.390  0.0742  0.5548  0.0291
  157SAPE   H9R17496   1.803   3.025   7.454  0.5523 -1.9545  1.7772
  157SAPE  C21017497   2.032   3.034   7.449  0.2017 -0.1164 -0.6203
  157SAPE  H10R17498   2.101   3.049   7.364  0.1774  0.9239 -0.4792
  157SAPE  H10S17499   2.077   2.949   7.506  2.6784  0.1258 -2.0643
  157SAPE  C21117500   2.032   3.154   7.542 -0.3656  0.4716  0.2761
  157SAPE  H11R17501   2.042   3.249   7.486  0.4227  1.8064  2.5448
  157SAPE  C21217502   2.032   3.160   7.678  0.3307 -0.4318 -0.2068
  157SAPE  H12R17503   2.034   3.255   7.734  0.1984 -1.9989  2.6233
  157SAPE  C21317504   2.032   3.041   7.775  0.0912 -0.9954 -0.4341
  157SAPE  H13R17505   2.034   2.943   7.721 -0.8794 -1.7768  0.8887
  157SAPE  H13S17506   1.940   3.035   7.837  0.1220 -1.8206 -0.4536
  157SAPE  C21417507   2.153   3.042   7.863  0.7607 -0.7540 -0.1862
  157SAPE  H14R17508   2.242   2.989   7.824  3.3223  2.0538  1.3981
  157SAPE  C21517509   2.169   3.095   7.988 -0.3410  0.3386  0.0624
  157SAPE  H15R17510   2.270   3.099   8.032 -0.4966  1.7196  0.3330
  157SAPE  C21617511   2.061   3.156   8.072  0.0605  0.0758  0.1130
  157SAPE  H16R17512   1.982   3.191   8.003  0.7779 -1.1073 -1.3606
  157SAPE  H16S17513   2.109   3.237   8.132  2.1187 -0.5251 -0.6195
  157SAPE  C21717514   1.991   3.059   8.173 -0.3523 -0.4315  0.0217
  157SAPE  H17R17515   2.069   3.009   8.233  0.8729  0.7900 -0.5105
  157SAPE  H17S17516   1.933   2.975   8.128  0.3715 -0.6338 -0.5499
  157SAPE  C21817517   1.892   3.135   8.260  0.2268 -0.0194  0.3045
  157SAPE  H18R17518   1.851   3.057   8.328 -0.0619  1.5842  2.0653
  157SAPE  H18S17519   1.813   3.174   8.193  1.2252 -1.0648 -1.5634
  157SAPE  C21917520   1.951   3.248   8.350 -0.3188 -0.2954  0.0898
  157SAPE  H19R17521   1.972   3.336   8.285 -0.6597  0.7150  1.3121
  157SAPE  H19S17522   2.053   3.217   8.380  0.7583  1.4468 -1.5354
  157SAPE  C22017523   1.859   3.284   8.468  0.2618 -0.1212 -0.4323
  157SAPE  H20R17524   1.772   3.344   8.435  2.3555  3.6362  0.3825
  157SAPE  H20S17525   1.905   3.354   8.541 -0.5941  0.3001 -0.2849
  157SAPE  H20T17526   1.819   3.191   8.514 -1.6612  1.5096  1.4432
  157SAPE   C3317527   2.264   3.419   6.650  0.1125  0.7110  0.4372
  157SAPE   H3X17528   2.374   3.406   6.657 -0.1588 -1.9676  0.9736
  157SAPE   H3Y17529   2.225   3.317   6.669 -0.7896  1.2695  1.7125
  157SAPE   C3417530   2.220   3.503   6.772  0.0295  0.5630 -0.2146
  157SAPE   H4X17531   2.111   3.499   6.789 -0.1196 -2.0754 -1.3582
  157SAPE   H4Y17532   2.242   3.610   6.756  1.3229  0.4780  0.8202
  157SAPE   C3517533   2.286   3.443   6.896 -0.1833 -0.6726  0.8512
  157SAPE   H5X17534   2.392   3.475   6.890 -0.4775  0.1067 -0.6233
  157SAPE   H5Y17535   2.285   3.333   6.883 -1.3174 -0.4085 -1.9278
  157SAPE   C3617536   2.220   3.480   7.028 -0.3843  0.2095 -0.7639
  157SAPE   H6X17537   2.123   3.428   7.043 -0.1451 -0.0100  0.0133
  157SAPE   H6Y17538   2.185   3.586   7.022 -3.7192 -0.7001  0.2103
  157SAPE   C3717539   2.300   3.448   7.154  0.0791  0.0373 -0.4519
  157SAPE   H7X17540   2.401   3.496   7.148 -0.2309  0.8017  0.2473
  157SAPE   H7Y17541   2.327   3.340   7.151  2.0060  0.3696  1.7809
  157SAPE   C3817542   2.222   3.484   7.284  0.6018 -0.0093 -0.2018
  157SAPE   H8X17543   2.124   3.438   7.261 -0.4759  1.9139  0.3492
  157SAPE   H8Y17544   2.216   3.594   7.295  0.9954 -0.0460  0.4133
  157SAPE   C3917545   2.285   3.421   7.410  0.4292 -0.3365  0.5272
  157SAPE   H9X17546   2.395   3.437   7.405  0.7227 -1.3991  2.5278
  157SAPE   H9Y17547   2.271   3.311   7.420  1.0194 -0.5239 -0.5878
  157SAPE  C31017548   2.228   3.491   7.531 -0.3434  0.5954 -0.3185
  157SAPE  H10X17549   2.118   3.483   7.519 -0.2970  1.6333 -1.6859
  157SAPE  H10Y17550   2.247   3.600   7.517  1.7117  0.1290 -1.7266
  157SAPE  C31117551   2.285   3.437   7.664  0.0909  0.3037  0.1969
  157SAPE  H11X17552   2.291   3.326   7.653  1.7311  0.3762  0.2107
  157SAPE  H11Y17553   2.211   3.442   7.747  0.0181  1.7213  0.0706
  157SAPE  C31217554   2.416   3.491   7.715 -0.2184 -0.2909  0.3147
  157SAPE  H12X17555   2.421   3.602   7.712  1.2947 -0.3483 -1.3321
  157SAPE  H12Y17556   2.479   3.458   7.629 -0.7236  1.5891 -0.8479
  157SAPE  C31317557   2.468   3.420   7.835 -0.6699 -0.2873  0.2830
  157SAPE  H13X17558   2.574   3.452   7.850 -1.8108  4.1636  0.0610
  157SAPE  H13Y17559   2.472   3.310   7.815  0.5168  0.1958 -2.7443
  157SAPE  C31417560   2.387   3.432   7.965  0.2581 -0.2002  0.2549
  157SAPE  H14X17561   2.287   3.388   7.945  1.0254 -0.6036 -3.2776
  157SAPE  H14Y17562   2.382   3.541   7.989  1.0811 -0.4771  1.8426
  157SAPE  C31517563   2.445   3.349   8.082 -0.6349 -0.3120  0.2654
  157SAPE  H15X17564   2.466   3.251   8.034  1.0009 -0.4695  1.2092
  157SAPE  H15Y17565   2.366   3.318   8.154 -1.5428  1.2266 -0.0239
  157SAPE  C31617566   2.567   3.410   8.148 -0.2894 -0.5368  0.0677
  157SAPE  H16X17567   2.546   3.510   8.192  0.4667  0.3532 -1.5302
  157SAPE  H16Y17568   2.638   3.419   8.064 -0.8556  1.9928 -0.2320
  157SAPE  C31717569   2.610   3.319   8.265  0.3584  0.7161  0.4909
  157SAPE  H17X17570   2.715   3.341   8.294  0.3568 -0.6530  1.6064
  157SAPE  H17Y17571   2.613   3.218   8.220  0.4647  0.3588  1.2981
  157SAPE  C31817572   2.520   3.320   8.389 -0.3070 -0.0684  0.6198
  157SAPE  H18X17573   2.413   3.296   8.369 -0.0990  0.9891 -2.2309
  157SAPE  H18Y17574   2.514   3.418   8.440 -0.3704  0.7646 -0.9123
  157SAPE  H18Z17575   2.564   3.249   8.462  1.8356 -0.8706 -1.3344
  158SAPE     N17576   2.134   0.389   6.204 -1.0783 -0.2464  0.1699
  158SAPE   HN117577   2.126   0.436   6.297  0.8659 -0.4084  0.4636
  158SAPE   HN217578   2.056   0.319   6.202  0.8360 -2.5000 -1.5633
  158SAPE   HN317579   2.232   0.356   6.206 -0.6450  0.9234 -0.9528
  158SAPE   C1217580   2.121   0.478   6.089 -0.3396 -0.0059  0.0580
  158SAPE  H12A17581   2.019   0.477   6.045 -0.1021  0.6154 -0.5341
  158SAPE  H12B17582   2.198   0.458   6.011 -0.9020 -2.8000  0.1005
  158SAPE   C1117583   2.130   0.623   6.132  0.6422 -0.2222  0.1298
  158SAPE  H11A17584   2.218   0.639   6.197  0.4008  2.3581 -0.0889
  158SAPE  H11B17585   2.039   0.647   6.191  1.3378 -0.9686  1.5444
  158SAPE     P17586   2.155   0.864   6.022  0.3290  0.1698 -0.2903
  158SAPE   O1317587   2.290   0.893   5.976 -0.1241  0.4420  0.0853
  158SAPE   O1417588   2.052   0.932   5.946  0.7471  0.5758 -0.1358
  158SAPE   O1217589   2.131   0.703   6.015 -0.1966 -0.7535  0.4588
  158SAPE   O1117590   2.130   0.901   6.175 -0.4147 -0.4278 -0.7502
  158SAPE    C117591   2.007   0.953   6.231  0.2137  0.2790 -0.4837
  158SAPE    HA17592   2.005   1.064   6.226 -0.9353  0.2926  0.1008
  158SAPE    HB17593   1.918   0.924   6.172 -2.2678  3.3302  1.4360
  158SAPE    C217594   1.981   0.926   6.385  0.2206  0.1617 -0.0349
  158SAPE    HS17595   1.959   0.817   6.389 -0.6105  0.2707 -1.1884
  158SAPE   O2117596   1.863   1.002   6.421 -0.0193 -0.3530 -0.0291
  158SAPE   C2117597   1.768   0.942   6.490 -0.2358 -0.0994 -0.6286
  158SAPE   O2217598   1.771   0.823   6.521 -0.1473 -0.7255  0.4445
  158SAPE   C2217599   1.663   1.049   6.527  0.4729  0.0913 -0.8858
  158SAPE   H2R17600   1.726   1.124   6.580  0.8556 -0.9877  0.2453
  158SAPE   H2S17601   1.634   1.093   6.430 -0.4620  0.5212 -0.4208
  158SAPE    C317602   2.104   0.957   6.478  0.3345  0.1709  0.2558
  158SAPE    HX17603   2.127   1.063   6.455 -0.2282 -0.0626 -1.5011
  158SAPE    HY17604   2.188   0.898   6.434 -0.6658 -0.8089 -0.3713
  158SAPE   O3117605   2.086   0.929   6.622 -0.0250 -0.1180 -0.1560
  158SAPE   C3117606   2.142   0.822   6.663 -0.3238  0.3463  0.3523
  158SAPE   O3217607   2.183   0.728   6.597 -0.2126  0.2952  0.1652
  158SAPE   C3217608   2.126   0.818   6.813  0.0557 -0.2714 -0.4664
  158SAPE   H2X17609   2.057   0.901   6.841 -0.0366 -0.5402  0.1115
  158SAPE   H2Y17610   2.229   0.841   6.848 -0.5082  0.4392  0.7785
  158SAPE   C2317611   1.552   1.005   6.618  0.1166  0.7140 -0.4947
  158SAPE   H3R17612   1.519   0.905   6.585 -0.8330  1.6856 -2.6657
  158SAPE   H3S17613   1.455   1.057   6.604 -2.1309 -2.8774  0.5282
  158SAPE   C2417614   1.570   1.003   6.775 -0.2407 -0.3471  0.2118
  158SAPE   H4R17615   1.467   1.000   6.816 -0.6059 -0.3507 -0.6961
  158SAPE   H4S17616   1.612   1.098   6.813  0.3757 -0.3944 -0.3521
  158SAPE   C2517617   1.664   0.888   6.816 -0.6564 -0.3486  0.3802
  158SAPE   H5R17618   1.702   0.829   6.731  0.6995 -1.3437  1.6326
  158SAPE   C2617619   1.708   0.855   6.937  0.0339  0.2162 -0.2045
  158SAPE   H6R17620   1.774   0.770   6.961  1.0806  2.0141  4.4291
  158SAPE   C2717621   1.693   0.931   7.066 -0.2183 -0.3758  0.7081
  158SAPE   H7R17622   1.664   1.036   7.049  1.5558  0.2489  1.2786
  158SAPE   H7S17623   1.789   0.939   7.122 -0.1816  0.4261  0.5415
  158SAPE   C2817624   1.593   0.861   7.153  0.1152  0.1600  0.5165
  158SAPE   H8R17625   1.613   0.753   7.161  0.0813  0.0562 -0.6279
  158SAPE   C2917626   1.485   0.912   7.223 -0.4838  0.1488 -0.5259
  158SAPE   H9R17627   1.412   0.839   7.262 -1.9642  0.4707 -2.5508
  158SAPE  C21017628   1.436   1.053   7.241  0.7011  0.8706 -1.0626
  158SAPE  H10R17629   1.525   1.119   7.240  0.5897  1.0302 -0.5725
  158SAPE  H10S17630   1.391   1.056   7.343  0.4691 -1.3217 -1.0484
  158SAPE  C21117631   1.326   1.091   7.141 -0.2196 -0.4961 -0.7042
  158SAPE  H11R17632   1.350   1.070   7.036  2.5949 -0.8780 -0.0856
  158SAPE  C21217633   1.200   1.122   7.171 -0.1984  0.5213 -0.2113
  158SAPE  H12R17634   1.139   1.168   7.091 -0.5894  1.2800  0.4994
  158SAPE  C21317635   1.143   1.131   7.311  0.3095  0.2642 -1.1768
  158SAPE  H13R17636   1.195   1.049   7.365  0.0177  0.2036 -0.9823
  158SAPE  H13S17637   1.036   1.100   7.312  0.2196  0.5680 -1.3130
  158SAPE  C21417638   1.164   1.258   7.387  0.5025  0.3176 -0.5566
  158SAPE  H14R17639   1.242   1.322   7.342  1.6872 -0.9546 -0.3786
  158SAPE  C21517640   1.105   1.291   7.506  0.7333 -0.3184 -0.0945
  158SAPE  H15R17641   1.143   1.381   7.557  1.1537 -0.7686  0.3977
  158SAPE  C21617642   1.009   1.202   7.583 -0.0112 -0.3325 -0.3196
  158SAPE  H16R17643   0.999   1.107   7.526  1.4019 -1.6394  1.5045
  158SAPE  H16S17644   0.918   1.266   7.589 -0.0212 -0.1114 -2.1987
  158SAPE  C21717645   1.049   1.151   7.727  0.4787 -0.3306 -0.1892
  158SAPE  H17R17646   0.976   1.087   7.782  1.6848 -1.4104  0.1843
  158SAPE  H17S17647   1.068   1.245   7.783  1.6228  1.3946 -3.2617
  158SAPE  C21817648   1.177   1.064   7.743  0.1870  0.1228  0.5602
  158SAPE  H18R17649   1.208   1.050   7.848 -0.5177 -1.9530  0.5287
  158SAPE  H18S17650   1.263   1.115   7.693 -0.0357  0.0144  0.0547
  158SAPE  C21917651   1.171   0.923   7.673 -0.1400  0.8165  0.1376
  158SAPE  H19R17652   1.166   0.934   7.562  1.3623  3.2763  0.2500
  158SAPE  H19S17653   1.077   0.868   7.694 -0.6958  1.2190 -1.1788
  158SAPE  C22017654   1.288   0.830   7.708  0.9565 -0.2024  0.2465
  158SAPE  H20R17655   1.275   0.806   7.815 -0.6953  1.0285  0.3476
  158SAPE  H20S17656   1.385   0.884   7.702  1.3643 -0.9241  0.1577
  158SAPE  H20T17657   1.301   0.734   7.653  0.6816 -0.0535 -0.0833
  158SAPE   C3317658   2.067   0.687   6.871 -0.3821  0.4309  0.4247
  158SAPE   H3X17659   2.108   0.595   6.827  0.6882 -0.1458  2.5016
  158SAPE   H3Y17660   1.960   0.680   6.841 -0.8482 -1.1292  2.2487
  158SAPE   C3417661   2.078   0.679   7.018 -0.5932  0.1769 -0.3604
  158SAPE   H4X17662   2.024   0.761   7.071 -0.4652 -0.4146  0.7131
  158SAPE   H4Y17663   2.181   0.686   7.058 -1.1457  0.9458  1.0160
  158SAPE   C3517664   2.011   0.551   7.063 -0.0786  0.0481 -0.4439
  158SAPE   H5X17665   2.032   0.465   6.995  2.7283 -1.0345  1.5827
  158SAPE   H5Y17666   1.901   0.566   7.068 -0.1353 -0.5708  0.6606
  158SAPE   C3617667   2.068   0.513   7.201 -0.4737  0.4414  0.1759
  158SAPE   H6X17668   2.178   0.508   7.190 -0.6346 -0.4822 -1.2244
  158SAPE   H6Y17669   2.042   0.406   7.217 -0.1933  0.3144 -0.2081
  158SAPE   C3717670   2.018   0.598   7.324 -0.2263  0.2763  0.5311
  158SAPE   H7X17671   2.082   0.685   7.352  1.2733 -1.6107  3.3890
  158SAPE   H7Y17672   1.911   0.627   7.316 -0.2655 -0.2174 -1.1362
  158SAPE   C3817673   2.021   0.514   7.450  0.6112 -0.7546  0.4024
  158SAPE   H8X17674   2.015   0.408   7.415 -2.0303  0.2362 -2.5973
  158SAPE   H8Y17675   1.931   0.523   7.514  0.5507  1.6042  0.0586
  158SAPE   C3917676   2.140   0.554   7.544  0.3638  0.5635 -0.2669
  158SAPE   H9X17677   2.126   0.662   7.569  0.7664  0.0238  2.6368
  158SAPE   H9Y17678   2.233   0.548   7.485  1.6846  0.4430  1.7239
  158SAPE  C31017679   2.136   0.453   7.662 -0.3484 -0.0567 -0.0468
  158SAPE  H10X17680   2.100   0.359   7.615  0.3432  0.1845 -1.0764
  158SAPE  H10Y17681   2.067   0.495   7.739  1.7895 -2.1219  3.2344
  158SAPE  C31117682   2.274   0.432   7.726 -0.1271  0.3107  0.3621
  158SAPE  H11X17683   2.362   0.434   7.658  0.5827 -0.0652  1.2497
  158SAPE  H11Y17684   2.272   0.333   7.777 -0.3707 -0.0290 -0.2961
  158SAPE  C31217685   2.309   0.548   7.823 -0.2724 -1.0872  0.2801
  158SAPE  H12X17686   2.247   0.536   7.915 -0.1767  1.9008  0.8369
  158SAPE  H12Y17687   2.305   0.654   7.791 -2.1133 -0.9173  0.9494
  158SAPE  C31317688   2.453   0.532   7.883  0.4661 -0.3773 -0.4715
  158SAPE  H13X17689   2.528   0.561   7.807 -0.5150  4.2850  0.0303
  158SAPE  H13Y17690   2.458   0.423   7.903 -1.0476  0.2342  4.6011
  158SAPE  C31417691   2.464   0.627   8.008 -0.1716 -0.1341 -0.2263
  158SAPE  H14X17692   2.378   0.622   8.078 -1.7851  2.4116 -1.8160
  158SAPE  H14Y17693   2.456   0.731   7.969  0.2854 -0.3781 -1.0063
  158SAPE  C31517694   2.602   0.616   8.075  0.3842 -0.1562 -0.6407
  158SAPE  H15X17695   2.673   0.625   7.989 -1.1477 -1.5503 -2.1338
  158SAPE  H15Y17696   2.602   0.508   8.099  1.0838  0.4882  2.7047
  158SAPE  C31617697   2.622   0.714   8.199 -0.0381  0.5225 -0.3923
  158SAPE  H16X17698   2.611   0.817   8.158  0.2654  0.4381 -0.6904
  158SAPE  H16Y17699   2.726   0.705   8.237 -0.4679  1.6501  1.1602
  158SAPE  C31717700   2.538   0.681   8.322 -0.5106 -0.0830  0.0259
  158SAPE  H17X17701   2.545   0.574   8.350  0.9057 -0.1958 -0.6675
  158SAPE  H17Y17702   2.432   0.710   8.306 -0.2486 -0.3522 -2.6895
  158SAPE  C31817703   2.583   0.765   8.445  0.5408 -0.2335 -0.2434
  158SAPE  H18X17704   2.692   0.746   8.458  0.8475 -0.5208 -2.7033
  158SAPE  H18Y17705   2.530   0.738   8.538 -0.1555  1.0747 -0.2299
  158SAPE  H18Z17706   2.575   0.874   8.421  2.1574  0.2504  1.2091
  159SAPE     N17707   1.889   4.146   6.354  0.1600 -0.3950 -0.0996
  159SAPE   HN117708   1.794   4.190   6.347  0.9811  2.0492  2.2439
  159SAPE   HN217709   1.892   4.051   6.312 -0.5719 -0.7847  0.7182
  159SAPE   HN317710   1.909   4.147   6.456  0.7110  2.0499 -0.1531
  159SAPE   C1217711   1.986   4.239   6.283 -0.0275  0.5953  0.1283
  159SAPE  H12A17712   1.929   4.272   6.194  0.9312  1.4748 -0.1871
  159SAPE  H12B17713   2.074   4.183   6.244  1.0399  2.1877  0.1192
  159SAPE   C1117714   2.034   4.372   6.358 -0.1331 -0.4860  0.1248
  159SAPE  H11A17715   2.111   4.353   6.436  0.8351  0.6830 -0.5254
  159SAPE  H11B17716   1.941   4.408   6.408 -0.2184  1.4838 -1.3524
  159SAPE     P17717   2.008   4.575   6.172 -0.0003  0.0664  0.0470
  159SAPE   O1317718   2.114   4.639   6.095  0.0091 -0.0966 -0.0729
  159SAPE   O1417719   1.911   4.499   6.095 -0.1804 -0.0485 -0.3551
  159SAPE   O1217720   2.083   4.475   6.263 -0.6064 -0.1028 -0.0103
  159SAPE   O1117721   1.931   4.667   6.273 -0.4271 -0.1746 -0.2972
  159SAPE    C117722   2.007   4.782   6.308 -0.1768  0.0305 -0.5422
  159SAPE    HA17723   2.052   4.835   6.222  2.4199  2.3932  2.0780
  159SAPE    HB17724   1.935   4.860   6.339  0.1106  0.6197 -1.3234
  159SAPE    C217725   2.104   4.764   6.427 -0.7003 -0.0227  0.2487
  159SAPE    HS17726   2.187   4.692   6.409  1.5976  2.2136  1.2685
  159SAPE   O2117727   2.023   4.735   6.544 -0.2412 -0.7754  0.4762
  159SAPE   C2117728   2.086   4.669   6.644  1.0756 -0.6849 -0.0401
  159SAPE   O2217729   2.197   4.622   6.626 -0.2994 -0.2606  0.1633
  159SAPE   C2217730   1.997   4.661   6.763 -0.6164  0.1369  0.1974
  159SAPE   H2R17731   1.923   4.581   6.744  0.8456 -2.1437  3.2012
  159SAPE   H2S17732   2.048   4.607   6.845  1.5663 -1.8693 -2.2900
  159SAPE    C317733   2.173   4.901   6.453  0.2948  0.1137 -0.1638
  159SAPE    HX17734   2.086   4.967   6.475  1.2149  0.9044  1.2473
  159SAPE    HY17735   2.238   4.943   6.373  0.5207 -0.4319 -0.2690
  159SAPE   O3117736   2.257   4.903   6.575  0.2906  0.1661  0.1171
  159SAPE   C3117737   2.388   4.876   6.568  0.6587 -0.3684  0.0511
  159SAPE   O3217738   2.444   4.857   6.462  0.3702  0.1301  0.1684
  159SAPE   C3217739   2.441   4.837   6.708 -0.8015 -0.3575 -0.4064
  159SAPE   H2X17740   2.548   4.809   6.697 -1.2815 -2.1236 -0.8649
  159SAPE   H2Y17741   2.393   4.741   6.734 -1.7710  0.1058 -0.4304
  159SAPE   C2317742   1.920   4.788   6.798  0.5549 -0.1353 -0.1658
  159SAPE   H3R17743   1.864   4.756   6.888  1.4232  0.4178  0.5968
  159SAPE   H3S17744   1.854   4.823   6.716  2.2478 -0.4128 -1.7150
  159SAPE   C2417745   2.010   4.907   6.840 -0.7948 -0.8781 -0.5482
  159SAPE   H4R17746   2.084   4.923   6.759  0.3793  0.3592  0.7233
  159SAPE   H4S17747   2.076   4.883   6.926  2.4380  3.2699 -1.5624
  159SAPE   C2517748   1.935   5.034   6.876 -0.6647 -0.4860  0.2780
  159SAPE   H5R17749   1.881   5.089   6.797 -3.0260 -2.6948  0.2200
  159SAPE   C2617750   1.900   5.079   6.997 -0.5771 -0.0022 -0.7840
  159SAPE   H6R17751   1.847   5.175   7.002 -0.0715  0.3027 -1.1170
  159SAPE   C2717752   1.931   5.000   7.127 -0.2455 -0.0429 -0.7907
  159SAPE   H7R17753   1.968   4.896   7.113 -0.9560 -0.6804  1.6088
  159SAPE   H7S17754   1.837   4.980   7.182  0.4456 -1.0796  0.0629
  159SAPE   C2817755   2.026   5.061   7.218 -0.6870 -0.6375 -0.2664
  159SAPE   H8R17756   2.130   5.061   7.183 -0.0215 -1.8146  1.5835
  159SAPE   C2917757   1.999   5.125   7.331  0.6799  0.6933  0.0393
  159SAPE   H9R17758   2.078   5.177   7.387 -0.7355 -1.2854  4.2933
  159SAPE  C21017759   1.869   5.135   7.414 -0.6477  1.0400  0.4365
  159SAPE  H10R17760   1.887   5.122   7.523 -1.2249 -1.9447  0.2810
  159SAPE  H10S17761   1.794   5.057   7.389 -0.5991  0.2411  2.5988
  159SAPE  C21117762   1.819   5.274   7.389  0.0131 -0.3589 -0.5986
  159SAPE  H11R17763   1.802   5.286   7.281  2.1909  0.2033 -0.9297
  159SAPE  C21217764   1.801   5.373   7.473  0.5920  0.0802  0.3566
  159SAPE  H12R17765   1.755   5.461   7.425  2.0580  1.3484  1.1956
  159SAPE  C21317766   1.824   5.369   7.619  0.0449  0.4669  0.1772
  159SAPE  H13R17767   1.926   5.330   7.643 -0.3829  0.2626  1.7910
  159SAPE  H13S17768   1.751   5.293   7.654  0.0150 -0.6566 -2.1790
  159SAPE  C21417769   1.813   5.509   7.671 -0.9151 -0.4310  0.1833
  159SAPE  H14R17770   1.914   5.551   7.685 -1.9106  1.9661  0.5913
  159SAPE  C21517771   1.703   5.587   7.697  0.0311  0.4329 -0.0245
  159SAPE  H15R17772   1.715   5.692   7.727 -0.2593 -0.1467  2.2796
  159SAPE  C21617773   1.556   5.544   7.683 -1.1706  0.1288  0.6041
  159SAPE  H16R17774   1.542   5.434   7.690 -0.3663  0.0044  0.3022
  159SAPE  H16S17775   1.511   5.580   7.587  0.3331  4.4079  1.2650
  159SAPE  C21717776   1.472   5.609   7.791  0.5960  0.3094 -0.0249
  159SAPE  H17R17777   1.454   5.714   7.758 -0.4408 -0.2302 -1.2817
  159SAPE  H17S17778   1.516   5.594   7.892 -1.3803  1.6769  1.1135
  159SAPE  C21817779   1.327   5.551   7.781  0.5970  0.2127 -0.7277
  159SAPE  H18R17780   1.322   5.440   7.794  0.5242  0.4649  2.0094
  159SAPE  H18S17781   1.281   5.586   7.686  0.3406  0.4282 -0.5256
  159SAPE  C21917782   1.236   5.622   7.885  0.2663  0.8815  0.0557
  159SAPE  H19R17783   1.282   5.603   7.984 -1.1606 -1.0518  0.4024
  159SAPE  H19S17784   1.135   5.575   7.884  0.7499 -0.2218 -1.0095
  159SAPE  C22017785   1.208   5.771   7.865  0.0823 -0.3372 -0.4072
  159SAPE  H20R17786   1.297   5.830   7.836  0.0675 -1.5677 -3.4020
  159SAPE  H20S17787   1.164   5.803   7.961  0.6417 -0.4670 -0.1068
  159SAPE  H20T17788   1.142   5.789   7.777  2.7324  0.1231 -2.4284
  159SAPE   C3317789   2.405   4.949   6.813 -0.7539  0.7160  0.1705
  159SAPE   H3X17790   2.297   4.971   6.818 -0.6283  1.2624  0.5693
  159SAPE   H3Y17791   2.462   5.041   6.789  0.7791 -0.4650 -0.9188
  159SAPE   C3417792   2.437   4.909   6.961 -0.6516  0.0091 -0.6596
  159SAPE   H4X17793   2.409   4.985   7.037  1.5481  0.3414 -0.0998
  159SAPE   H4Y17794   2.547   4.894   6.969 -0.4689  1.3856 -0.3882
  159SAPE   C3517795   2.379   4.771   7.004  0.8096 -0.2479  0.1564
  159SAPE   H5X17796   2.434   4.687   6.955 -0.2226 -1.3376  0.8096
  159SAPE   H5Y17797   2.271   4.759   6.985  0.3748 -0.0655  2.2764
  159SAPE   C3617798   2.404   4.747   7.158 -0.2466  0.0012 -0.2630
  159SAPE   H6X17799   2.351   4.656   7.193  0.0529  0.0720  0.3918
  159SAPE   H6Y17800   2.358   4.830   7.216 -0.9878 -0.4764 -0.1596
  159SAPE   C3717801   2.552   4.730   7.196 -0.4248  0.3679 -0.3099
  159SAPE   H7X17802   2.584   4.829   7.232 -0.2601 -0.0012  0.5885
  159SAPE   H7Y17803   2.618   4.717   7.108 -1.4068 -1.4058 -0.8511
  159SAPE   C3817804   2.581   4.643   7.320  0.8013 -0.0873 -0.3046
  159SAPE   H8X17805   2.685   4.666   7.352  0.4742 -0.5130  1.1760
  159SAPE   H8Y17806   2.571   4.538   7.286 -2.4044 -0.3339  0.9755
  159SAPE   C3917807   2.480   4.662   7.442  0.1526  0.2438 -0.2534
  159SAPE   H9X17808   2.518   4.591   7.520 -1.8158 -0.0542  0.4793
  159SAPE   H9Y17809   2.377   4.628   7.420  0.6127 -1.0053 -0.5713
  159SAPE  C31017810   2.492   4.797   7.504  0.2047  0.3094  0.6834
  159SAPE  H10X17811   2.450   4.863   7.426 -4.5828 -3.2897 -0.2154
  159SAPE  H10Y17812   2.599   4.828   7.506  0.3346 -0.0967  0.1993
  159SAPE  C31117813   2.397   4.809   7.629 -0.4236 -0.2838  0.5243
  159SAPE  H11X17814   2.303   4.753   7.612 -1.7191  2.1219 -0.7672
  159SAPE  H11Y17815   2.359   4.913   7.635  1.6815  0.7048 -1.5362
  159SAPE  C31217816   2.465   4.758   7.753 -0.2332 -0.4987  0.1384
  159SAPE  H12X17817   2.551   4.825   7.774 -1.2464  0.5863  0.9970
  159SAPE  H12Y17818   2.504   4.655   7.740 -0.9900 -0.6767 -0.7998
  159SAPE  C31317819   2.358   4.761   7.860 -0.2284  0.4764  0.4771
  159SAPE  H13X17820   2.289   4.681   7.825  0.2184  1.1956 -2.2900
  159SAPE  H13Y17821   2.297   4.853   7.864 -0.1962  0.4708  1.1992
  159SAPE  C31417822   2.418   4.742   8.000  0.1864  0.4645  0.3499
  159SAPE  H14X17823   2.470   4.840   8.010 -0.8064  1.3173 -1.9269
  159SAPE  H14Y17824   2.496   4.665   8.010  0.6342  0.3520 -3.0083
  159SAPE  C31517825   2.310   4.722   8.111 -0.2549 -0.1482 -0.0037
  159SAPE  H15X17826   2.287   4.613   8.107  0.9648 -0.3840 -1.5916
  159SAPE  H15Y17827   2.211   4.768   8.089 -0.1391 -0.3118 -0.9198
  159SAPE  C31617828   2.374   4.742   8.249  0.4061  0.8026  0.3005
  159SAPE  H16X17829   2.372   4.853   8.253 -3.3622  0.9119 -0.6485
  159SAPE  H16Y17830   2.477   4.699   8.246 -0.4793 -1.5472  1.0706
  159SAPE  C31717831   2.280   4.682   8.359 -0.1609 -0.1195 -0.4823
  159SAPE  H17X17832   2.299   4.573   8.358 -0.5039 -0.1865  0.1898
  159SAPE  H17Y17833   2.176   4.706   8.327 -1.2753  1.0522  3.4127
  159SAPE  C31817834   2.286   4.752   8.492  0.7688 -0.5547 -0.0634
  159SAPE  H18X17835   2.390   4.757   8.533  0.9832  1.4814 -0.7523
  159SAPE  H18Y17836   2.225   4.708   8.574 -2.3735  3.4458  0.0406
  159SAPE  H18Z17837   2.251   4.857   8.484 -0.3214 -0.9791 -1.1575
  160SAPE     N17838   2.839   2.520   6.501 -0.5470  0.0015 -0.2132
  160SAPE   HN117839   2.890   2.458   6.434  1.2391 -0.4764  1.4967
  160SAPE   HN217840   2.915   2.579   6.541  0.1028 -1.1952  0.3715
  160SAPE   HN317841   2.792   2.457   6.569  1.0244  0.0576  0.9914
  160SAPE   C1217842   2.742   2.603   6.415  0.3813  0.1688 -0.2585
  160SAPE  H12A17843   2.805   2.666   6.348  0.7693 -0.8227 -0.8458
  160SAPE  H12B17844   2.703   2.678   6.487  0.6929 -0.9723  1.1440
  160SAPE   C1117845   2.636   2.515   6.349  0.2085 -0.0274 -0.7437
  160SAPE  H11A17846   2.678   2.455   6.266 -1.0586  0.2819 -1.6341
  160SAPE  H11B17847   2.552   2.569   6.300 -0.5882 -2.4068 -2.1802
  160SAPE     P17848   2.466   2.324   6.406 -0.5037 -0.0797 -0.2102
  160SAPE   O1317849   2.344   2.400   6.415 -0.2388 -0.1224  0.1282
  160SAPE   O1417850   2.508   2.260   6.282  0.2262  0.1914  0.0842
  160SAPE   O1217851   2.581   2.427   6.447 -0.6786  0.2246 -0.0736
  160SAPE   O1117852   2.461   2.215   6.518  0.1379 -0.1270  0.5015
  160SAPE    C117853   2.577   2.154   6.566 -0.4954  0.1737 -0.9262
  160SAPE    HA17854   2.669   2.210   6.541 -1.8408  2.6376 -0.6123
  160SAPE    HB17855   2.584   2.141   6.676 -1.6398 -1.7159 -1.0265
  160SAPE    C217856   2.597   2.003   6.510  0.0174 -0.6787 -0.5850
  160SAPE    HS17857   2.575   2.002   6.401  0.0311 -1.7948 -0.5824
  160SAPE   O2117858   2.501   1.915   6.571  0.5665 -0.1761 -0.3580
  160SAPE   C2117859   2.486   1.800   6.515 -0.9920  0.6303 -0.2082
  160SAPE   O2217860   2.511   1.777   6.399  0.2329  0.0463 -0.0334
  160SAPE   C2217861   2.422   1.703   6.623 -0.3699 -0.4892 -0.3867
  160SAPE   H2R17862   2.504   1.700   6.698  0.7540  2.3383 -1.3597
  160SAPE   H2S17863   2.337   1.764   6.658 -0.0303  1.5535 -2.8595
  160SAPE    C317864   2.749   1.961   6.532 -0.2110  0.1804 -0.3769
  160SAPE    HX17865   2.828   2.031   6.500  1.9755 -0.9969  2.0583
  160SAPE    HY17866   2.770   1.877   6.463  2.2453  0.4256  0.0089
  160SAPE   O3117867   2.763   1.919   6.671  0.3029  0.0024  0.4651
  160SAPE   C3117868   2.825   2.004   6.751 -0.5463  0.3148  1.1081
  160SAPE   O3217869   2.858   2.119   6.724 -0.0956 -0.1194  0.2073
  160SAPE   C3217870   2.820   1.944   6.891  0.3787  0.1785 -0.5726
  160SAPE   H2X17871   2.922   1.956   6.933  0.3159 -0.0339 -0.3598
  160SAPE   H2Y17872   2.793   1.836   6.887  0.1683  0.2383 -0.7365
  160SAPE   C2317873   2.378   1.556   6.580  1.1253 -0.0781 -0.1294
  160SAPE   H3R17874   2.452   1.505   6.515  3.1979  1.0467  1.2472
  160SAPE   H3S17875   2.281   1.556   6.526  2.0134 -3.0965 -1.9878
  160SAPE   C2417876   2.358   1.454   6.694 -0.2472  0.4360  0.2021
  160SAPE   H4R17877   2.320   1.357   6.653  1.3686 -0.2047  0.1558
  160SAPE   H4S17878   2.274   1.478   6.763  0.3917  0.0022  1.1504
  160SAPE   C2517879   2.483   1.422   6.775  0.1547 -0.3067  0.1770
  160SAPE   H5R17880   2.561   1.366   6.721  0.8652 -0.1644  1.0429
  160SAPE   C2617881   2.503   1.470   6.903 -0.0995 -0.5861 -0.3648
  160SAPE   H6R17882   2.596   1.441   6.953 -0.7810 -2.7293 -0.2341
  160SAPE   C2717883   2.403   1.554   6.985 -0.0644  0.3148 -0.0634
  160SAPE   H7R17884   2.315   1.497   7.021  0.4950  0.0911  0.9885
  160SAPE   H7S17885   2.358   1.630   6.918  1.0157 -0.2712 -1.5076
  160SAPE   C2817886   2.460   1.641   7.095 -0.2538 -0.1913  0.2306
  160SAPE   H8R17887   2.518   1.730   7.064 -0.5428  0.4725  1.5114
  160SAPE   C2917888   2.447   1.631   7.227 -0.0529 -0.1927 -0.2261
  160SAPE   H9R17889   2.477   1.715   7.291 -1.2823 -0.6135  0.9312
  160SAPE  C21017890   2.376   1.520   7.297 -0.3873 -0.0443  0.0450
  160SAPE  H10R17891   2.437   1.482   7.382 -1.7443 -1.8342  0.2832
  160SAPE  H10S17892   2.368   1.431   7.231  2.4415 -0.1428 -0.2588
  160SAPE  C21117893   2.234   1.569   7.340  0.0934  0.0822  0.8876
  160SAPE  H11R17894   2.179   1.620   7.260  0.6329  0.3744  0.7023
  160SAPE  C21217895   2.167   1.563   7.457 -0.1977  0.6599 -0.0530
  160SAPE  H12R17896   2.063   1.594   7.474 -0.9949 -2.6809  2.2079
  160SAPE  C21317897   2.226   1.502   7.579 -0.0204  0.1231 -0.4040
  160SAPE  H13R17898   2.318   1.444   7.557  0.1875  0.4326 -0.3619
  160SAPE  H13S17899   2.141   1.435   7.606  1.3940 -0.4646  3.2774
  160SAPE  C21417900   2.263   1.599   7.690 -0.2137 -0.0915 -1.0527
  160SAPE  H14R17901   2.304   1.693   7.652 -1.3008  0.7137 -0.2903
  160SAPE  C21517902   2.242   1.574   7.819 -0.0578  0.5917 -0.8752
  160SAPE  H15R17903   2.280   1.639   7.900  1.2703 -2.3506  1.0398
  160SAPE  C21617904   2.181   1.439   7.870  0.9942  0.0117 -0.0323
  160SAPE  H16R17905   2.261   1.377   7.914  1.4867 -0.4312 -1.4877
  160SAPE  H16S17906   2.131   1.382   7.789  1.6201  0.2705 -0.6104
  160SAPE  C21717907   2.085   1.448   7.995  0.1532 -0.3221  0.5959
  160SAPE  H17R17908   2.055   1.344   8.022 -2.8448  0.5475  0.9821
  160SAPE  H17S17909   1.991   1.501   7.972  1.0442  0.1062 -2.4696
  160SAPE  C21817910   2.158   1.510   8.114 -0.4695 -1.2224  0.1647
  160SAPE  H18R17911   2.186   1.613   8.087  0.9910 -1.6976 -0.2057
  160SAPE  H18S17912   2.252   1.452   8.122 -0.3605 -1.3231 -1.4808
  160SAPE  C21917913   2.066   1.500   8.240  0.1158  0.1987  0.4571
  160SAPE  H19R17914   2.042   1.393   8.260  0.4789 -0.1015 -0.6358
  160SAPE  H19S17915   1.969   1.542   8.205 -0.2721 -1.2096 -0.2391
  160SAPE  C22017916   2.116   1.578   8.366 -0.1309  0.5757  0.8762
  160SAPE  H20R17917   2.217   1.533   8.380 -0.7767 -1.1722  0.2327
  160SAPE  H20S17918   2.060   1.566   8.461 -0.8906  0.1913  0.3902
  160SAPE  H20T17919   2.118   1.686   8.342  1.1188  0.1466 -1.3132
  160SAPE   C3317920   2.715   2.018   6.980  0.3398  0.1421 -0.1461
  160SAPE   H3X17921   2.611   2.010   6.941  0.1461 -0.6903  0.5151
  160SAPE   H3Y17922   2.737   2.126   6.994  2.5967 -0.4391  1.2981
  160SAPE   C3417923   2.726   1.955   7.120  0.6212 -0.5084  0.4571
  160SAPE   H4X17924   2.827   1.964   7.164 -0.5895  3.1044  3.0006
  160SAPE   H4Y17925   2.688   1.851   7.112 -0.1204 -0.1950 -0.2926
  160SAPE   C3517926   2.637   2.026   7.226 -0.4597  0.0274  0.2794
  160SAPE   H5X17927   2.533   2.019   7.187  0.1501 -1.3688 -1.2323
  160SAPE   H5Y17928   2.658   2.132   7.248  1.9914 -0.7377  1.9756
  160SAPE   C3617929   2.645   1.954   7.358 -0.2027  0.0149  0.6621
  160SAPE   H6X17930   2.743   1.974   7.408 -1.1635  2.7699  1.5982
  160SAPE   H6Y17931   2.644   1.843   7.352 -0.2527 -0.1453  2.7892
  160SAPE   C3717932   2.530   1.986   7.453  0.1033 -0.2515  1.0978
  160SAPE   H7X17933   2.433   1.953   7.410  1.5770 -1.3519 -1.6210
  160SAPE   H7Y17934   2.515   2.093   7.478 -1.7037 -0.0450 -0.6229
  160SAPE   C3817935   2.538   1.898   7.580  0.2149  0.3233  0.3374
  160SAPE   H8X17936   2.639   1.925   7.618 -0.0688  2.3244 -0.2521
  160SAPE   H8Y17937   2.526   1.789   7.564  0.1648  0.0517  2.0368
  160SAPE   C3917938   2.415   1.935   7.668 -0.0609 -0.3594 -0.4909
  160SAPE   H9X17939   2.322   1.881   7.639 -0.3867 -0.0051 -0.1149
  160SAPE   H9Y17940   2.394   2.043   7.654  0.0065 -0.5134 -2.0463
  160SAPE  C31017941   2.443   1.905   7.806 -0.7650 -1.0297  0.3805
  160SAPE  H10X17942   2.536   1.944   7.853  0.9532 -1.0069 -2.7984
  160SAPE  H10Y17943   2.460   1.796   7.823  2.4523 -0.9539 -1.4866
  160SAPE  C31117944   2.336   1.951   7.898  0.3191 -0.2790  0.0418
  160SAPE  H11X17945   2.240   1.904   7.867  0.1053  0.0636  0.1773
  160SAPE  H11Y17946   2.321   2.059   7.878  3.7641  0.0791 -1.1663
  160SAPE  C31217947   2.361   1.914   8.044  0.1596  0.0703 -0.1327
  160SAPE  H12X17948   2.457   1.964   8.069  0.1536  0.0954 -0.1599
  160SAPE  H12Y17949   2.378   1.804   8.054  0.2403  0.1498  0.7216
  160SAPE  C31317950   2.260   1.964   8.150  0.5854 -0.1615 -0.0032
  160SAPE  H13X17951   2.294   1.921   8.246  1.2224 -2.3381 -1.1333
  160SAPE  H13Y17952   2.157   1.923   8.134  0.3416  0.4649 -0.0697
  160SAPE  C31417953   2.243   2.119   8.165  0.0549 -0.7763 -0.2067
  160SAPE  H14X17954   2.198   2.156   8.071  0.8752 -3.6460 -1.8365
  160SAPE  H14Y17955   2.348   2.156   8.177 -0.4858  0.2634  1.8800
  160SAPE  C31517956   2.164   2.166   8.289 -0.0021  0.7552 -0.6470
  160SAPE  H15X17957   2.151   2.277   8.290  0.8121  0.8568  0.6038
  160SAPE  H15Y17958   2.214   2.138   8.384 -0.2790 -1.9122 -1.2253
  160SAPE  C31617959   2.023   2.107   8.287  0.2714 -0.6647 -0.2095
  160SAPE  H16X17960   2.018   1.996   8.295  0.8327 -0.7695 -1.1753
  160SAPE  H16Y17961   1.979   2.137   8.190 -0.5489  0.2395  0.4335
  160SAPE  C31717962   1.927   2.159   8.399 -0.8296 -0.7875 -0.9998
  160SAPE  H17X17963   1.932   2.270   8.392  2.3784 -0.6970  1.0017
  160SAPE  H17Y17964   1.977   2.127   8.493 -1.2111 -0.7571 -0.7862
  160SAPE  C31817965   1.786   2.118   8.404  0.1844 -0.0982  0.5116
  160SAPE  H18X17966   1.733   2.133   8.307  1.6349 -2.4773 -0.7281
  160SAPE  H18Y17967   1.723   2.175   8.476 -0.1067  1.4115 -0.8798
  160SAPE  H18Z17968   1.764   2.013   8.433 -2.7414  0.6034  1.1270
  161SOPE     N17969   3.178   5.760  10.827 -0.2519  0.3618 -0.4520
  161SOPE   HN117970   3.227   5.692  10.765  0.8707  0.3093  0.4370
  161SOPE   HN217971   3.241   5.789  10.905  0.3034 -1.1009 -0.3200
  161SOPE   HN317972   3.105   5.696  10.864  1.9555 -2.5030 -0.6459
  161SOPE   C1217973   3.127   5.880  10.744  0.3779 -0.5909 -0.6650
  161SOPE  H12A17974   3.028   5.902  10.788 -0.1722 -1.7903 -1.2514
  161SOPE  H12B17975   3.098   5.848  10.641 -0.1307  3.3344 -1.9063
  161SOPE   C1117976   3.227   5.997  10.748 -0.4859  0.6654 -0.2046
  161SOPE  H11A17977   3.232   6.030  10.854 -1.6897 -0.0115  0.0784
  161SOPE  H11B17978   3.178   6.076  10.688 -0.4541 -1.0949 -2.7273
  161SOPE     P17979   3.410   6.013  10.566 -0.0452 -0.0656 -0.3292
  161SOPE   O1317980   3.518   5.928  10.521 -1.2361 -0.1129  0.7840
  161SOPE   O1417981   3.437   6.157  10.579 -0.4026 -0.4271  0.6219
  161SOPE   O1217982   3.360   5.961  10.703 -0.0185  0.1857 -0.2685
  161SOPE   O1117983   3.290   5.990  10.462 -0.1841 -0.6502  0.2143
  161SOPE    C117984   3.260   5.851  10.433 -0.2442  0.6106 -0.2602
  161SOPE    HA17985   3.151   5.843  10.413  0.1317 -0.5800 -2.0756
  161SOPE    HB17986   3.281   5.779  10.515 -0.8497 -0.6598 -1.1955
  161SOPE    C217987   3.341   5.799  10.311  0.5545 -0.1896 -0.1313
  161SOPE    HS17988   3.447   5.821  10.335  0.0593  2.0232  0.2949
  161SOPE   O2117989   3.286   5.866  10.194  0.1559  0.6218 -0.5293
  161SOPE   C2117990   3.375   5.894  10.096 -0.5855 -0.1503  0.0393
  161SOPE   O2217991   3.495   5.881  10.112 -0.2909 -0.2449  0.7098
  161SOPE   C2217992   3.302   5.931   9.973  0.0618 -0.0798 -0.5141
  161SOPE   H2R17993   3.233   6.010  10.011 -0.0673 -0.7632  0.7265
  161SOPE   H2S17994   3.238   5.850   9.931 -0.3503  0.2173 -0.4645
  161SOPE    C317995   3.327   5.643  10.304 -1.0747 -0.3353 -0.4723
  161SOPE    HX17996   3.223   5.617  10.332 -0.4016 -1.3939  1.1542
  161SOPE    HY17997   3.388   5.605  10.388  0.1837 -0.3202 -1.3483
  161SOPE   O3117998   3.356   5.592  10.175 -0.0529  0.0240 -0.2395
  161SOPE   C3117999   3.477   5.546  10.156 -0.0199  0.4408 -0.3868
  161SOPE   O3218000   3.557   5.514  10.246  0.1704 -0.2154 -0.6889
  161SOPE   C3218001   3.501   5.520  10.006 -0.0956 -0.3621  0.0640
  161SOPE   H2X18002   3.418   5.562   9.946  0.0777 -1.4802 -0.9975
  161SOPE   H2Y18003   3.491   5.411   9.992 -1.1219 -0.0221 -2.3221
  161SOPE   C2318004   3.370   5.992   9.848 -0.5008 -0.1996  0.2870
  161SOPE   H3R18005   3.434   5.910   9.809 -4.5892 -2.5983 -2.0195
  161SOPE   H3S18006   3.436   6.074   9.885  0.9195 -0.6804 -1.0372
  161SOPE   C2418007   3.277   6.034   9.735 -0.5220 -0.1440  0.4648
  161SOPE   H4R18008   3.197   6.097   9.780 -0.6937 -0.7263  0.9821
  161SOPE   H4S18009   3.334   6.089   9.658  1.1120  1.1399  2.4716
  161SOPE   C2518010   3.222   5.914   9.656  0.4597 -1.5896  0.3405
  161SOPE   H5R18011   3.288   5.825   9.653  1.4740 -1.0192  2.9916
  161SOPE   H5S18012   3.133   5.866   9.703  0.2465 -1.8955 -0.3660
  161SOPE   C2618013   3.172   5.961   9.518 -0.5672  0.0752  0.8671
  161SOPE   H6R18014   3.101   6.046   9.529 -0.5133  0.2524 -0.0813
  161SOPE   H6S18015   3.257   6.002   9.460  0.1361  0.7227  2.2941
  161SOPE   C2718016   3.092   5.856   9.430 -0.7071  1.0362 -0.4792
  161SOPE   H7R18017   3.164   5.790   9.376  0.2349  1.0410  0.7419
  161SOPE   H7S18018   3.028   5.795   9.496 -0.2467 -1.4521 -2.1870
  161SOPE   C2818019   3.005   5.917   9.322 -0.2807 -0.3016  0.4483
  161SOPE   H8R18020   2.927   5.988   9.357 -0.1440  0.0168  0.1161
  161SOPE   H8S18021   3.067   5.981   9.256 -2.5978 -0.6537 -2.2271
  161SOPE   C2918022   2.942   5.802   9.248 -0.2047 -0.0954  0.1706
  161SOPE   H9118023   2.886   5.729   9.309 -0.6239 -1.2376 -1.5298
  161SOPE  C21018024   2.965   5.765   9.121 -0.2592  0.9249  0.2396
  161SOPE  H10118025   2.900   5.682   9.087  1.2850 -0.2049 -0.0379
  161SOPE  C21118026   3.049   5.838   9.020 -0.4772  0.2693 -0.0543
  161SOPE  H11R18027   3.105   5.757   8.969  2.0805  0.6212  1.9977
  161SOPE  H11S18028   3.124   5.902   9.072 -2.2102  2.4335 -0.0385
  161SOPE  C21218029   2.958   5.927   8.928  0.4233  1.2150 -0.1471
  161SOPE  H12R18030   3.022   5.992   8.864  1.6938  0.6505  0.5010
  161SOPE  H12S18031   2.902   6.004   8.986 -0.1229  0.7554 -0.0569
  161SOPE  C21318032   2.850   5.855   8.847 -0.0364  0.5878 -0.1509
  161SOPE  H13R18033   2.785   5.781   8.900 -3.0852  1.3178 -2.5665
  161SOPE  H13S18034   2.907   5.792   8.775 -0.4020 -0.0854  0.1350
  161SOPE  C21418035   2.753   5.945   8.771 -0.3588  0.2871 -0.4857
  161SOPE  H14R18036   2.808   6.022   8.713 -0.8855  1.4964  0.5852
  161SOPE  H14S18037   2.687   6.005   8.836 -0.0999  0.6710 -0.5760
  161SOPE  C21518038   2.680   5.874   8.657  0.2881 -0.2978 -0.9431
  161SOPE  H15R18039   2.612   5.946   8.608 -1.3106  0.1757  1.7664
  161SOPE  H15S18040   2.616   5.801   8.710 -0.5852  3.0821  3.1540
  161SOPE  C21618041   2.775   5.807   8.547 -0.2953 -0.4527 -0.4809
  161SOPE  H16R18042   2.855   5.758   8.607  0.3906  0.3737 -0.6893
  161SOPE  H16S18043   2.835   5.875   8.482  0.1601 -0.0453  0.3563
  161SOPE  C21718044   2.708   5.698   8.471 -0.3211  0.1476  0.4430
  161SOPE  H17R18045   2.624   5.736   8.409  0.6349  0.3633 -0.7542
  161SOPE  H17S18046   2.669   5.622   8.542  0.6592 -2.4618 -1.6745
  161SOPE  C21818047   2.795   5.608   8.379 -0.0432  0.1824  0.0774
  161SOPE  H18R18048   2.883   5.584   8.443  1.2304  0.0556 -1.6326
  161SOPE  H18S18049   2.824   5.664   8.287  2.6905 -0.0271  0.7004
  161SOPE  H18T18050   2.732   5.523   8.349 -1.3696  0.8741  0.8332
  161SOPE   C3318051   3.630   5.572   9.933  0.5678  0.1820 -0.4516
  161SOPE   H3X18052   3.712   5.524   9.990  0.0476 -0.3300 -0.1198
  161SOPE   H3Y18053   3.627   5.683   9.935  0.7849  0.1779  1.0312
  161SOPE   C3418054   3.644   5.529   9.783  0.8404  0.8622  0.2314
  161SOPE   H4X18055   3.644   5.418   9.782 -1.6134  0.7996 -0.7471
  161SOPE   H4Y18056   3.740   5.560   9.735  0.2192  0.3727 -1.4160
  161SOPE   C3518057   3.532   5.564   9.692  0.2029  0.5034  0.4722
  161SOPE   H5X18058   3.536   5.675   9.698  0.3212  0.4325  2.3269
  161SOPE   H5Y18059   3.433   5.546   9.738 -0.6415  1.4632 -0.9392
  161SOPE   C3618060   3.531   5.514   9.542  0.8368 -0.6465 -0.5755
  161SOPE   H6X18061   3.523   5.403   9.534 -0.2996 -0.7250  1.0728
  161SOPE   H6Y18062   3.626   5.550   9.499  1.3510  0.9852  1.7316
  161SOPE   C3718063   3.407   5.573   9.468 -0.6674  0.5425 -0.4841
  161SOPE   H7X18064   3.422   5.680   9.494  3.1370  0.1122 -0.3859
  161SOPE   H7Y18065   3.311   5.528   9.503 -0.8079 -1.7308 -3.4197
  161SOPE   C3818066   3.427   5.568   9.320  0.0320  0.0770 -0.6937
  161SOPE   H8X18067   3.329   5.576   9.268 -1.4443 -1.2358  1.6912
  161SOPE   H8Y18068   3.462   5.464   9.298 -0.6416 -0.1243 -0.8244
  161SOPE   C3918069   3.521   5.671   9.255  0.1464  0.6006 -0.4816
  161SOPE   H9X18070   3.627   5.665   9.289 -0.3390 -2.7255  0.8041
  161SOPE   H9Y18071   3.473   5.769   9.275 -0.5131 -0.1701  2.1947
  161SOPE  C31018072   3.521   5.663   9.103 -0.0546 -0.1732  0.0094
  161SOPE  H10X18073   3.421   5.621   9.082 -0.0148  0.0130 -0.5957
  161SOPE  H10Y18074   3.597   5.591   9.065 -0.2547  0.1006 -0.9530
  161SOPE  C31118075   3.544   5.801   9.036  0.1100  0.5654  0.0988
  161SOPE  H11X18076   3.651   5.829   9.021 -0.3531  0.9303 -3.1563
  161SOPE  H11Y18077   3.497   5.885   9.091 -0.2829  0.2326  0.2751
  161SOPE  C31218078   3.476   5.801   8.903 -0.2291  0.8328 -0.1395
  161SOPE  H12X18079   3.366   5.784   8.912 -0.4429  0.5559 -2.5883
  161SOPE  H12Y18080   3.514   5.711   8.850 -1.1400  1.0646 -1.2126
  161SOPE  C31318081   3.508   5.929   8.822  0.1465  0.6661 -0.2519
  161SOPE  H13X18082   3.617   5.938   8.840 -0.1988  3.3622  0.8849
  161SOPE  H13Y18083   3.469   6.015   8.880 -0.7012 -1.2862  2.2719
  161SOPE  C31418084   3.458   5.908   8.680 -0.0536 -0.1151 -0.4140
  161SOPE  H14X18085   3.518   5.827   8.634 -0.0022 -1.0386  1.1932
  161SOPE  H14Y18086   3.472   6.008   8.633  3.8039  0.5233  1.7128
  161SOPE  C31518087   3.314   5.878   8.682  0.2103  0.6681  0.4309
  161SOPE  H15X18088   3.279   5.909   8.783  2.3789  0.7478  1.2170
  161SOPE  H15Y18089   3.298   5.768   8.684 -1.1215  0.7498 -2.1062
  161SOPE  C31618090   3.227   5.941   8.578 -0.3629  0.2902 -0.1568
  161SOPE  H16X18091   3.125   5.898   8.583 -0.1449 -0.0551  2.2568
  161SOPE  H16Y18092   3.264   5.908   8.478  1.5690  0.5754  0.4134
  161SOPE  C31718093   3.214   6.091   8.582  0.2942 -0.6931 -0.6863
  161SOPE  H17X18094   3.308   6.138   8.545  0.5016  1.2934  2.0602
  161SOPE  H17Y18095   3.216   6.130   8.686 -1.4674  2.2933 -1.6695
  161SOPE  C31818096   3.088   6.150   8.501  0.5224 -0.1694  0.1800
  161SOPE  H18X18097   3.048   6.076   8.428  1.4875 -0.9758  0.4581
  161SOPE  H18Y18098   3.123   6.236   8.440  3.0698 -1.0006  0.3664
  161SOPE  H18Z18099   3.006   6.177   8.572 -0.1964 -1.8016  0.0329
  162SOPE     N18100   4.711   5.610  11.062  0.0951  0.0668 -0.0015
  162SOPE   HN118101   4.674   5.680  10.995 -0.8562 -1.5311 -1.2143
  162SOPE   HN218102   4.639   5.571  11.126  0.5629 -1.4128 -0.3412
  162SOPE   HN318103   4.771   5.673  11.119 -0.4687  0.5718  0.0446
  162SOPE   C1218104   4.792   5.506  10.992 -0.2365  0.4609  0.2900
  162SOPE  H12A18105   4.775   5.415  11.053 -1.9257 -0.1976 -1.0974
  162SOPE  H12B18106   4.898   5.541  10.994 -0.5465  1.4063  0.9079
  162SOPE   C1118107   4.720   5.466  10.862  0.5526  0.2129  0.1094
  162SOPE  H11A18108   4.612   5.489  10.879  0.6734  1.9717 -1.1751
  162SOPE  H11B18109   4.725   5.360  10.829  2.5321 -1.3317  4.5724
  162SOPE     P18110   4.894   5.531  10.680 -0.0711  0.2981  0.4771
  162SOPE   O1318111   4.934   5.387  10.695  0.3828 -0.2751 -0.1427
  162SOPE   O1418112   4.990   5.639  10.716  0.2036  0.3504 -0.2582
  162SOPE   O1218113   4.762   5.556  10.757 -0.0108 -0.0887 -0.0373
  162SOPE   O1118114   4.839   5.554  10.536 -0.0125  0.5701  0.1408
  162SOPE    C118115   4.729   5.474  10.497  0.0213  0.3297  1.0497
  162SOPE    HA18116   4.639   5.522  10.540  0.2626 -0.4467  2.4807
  162SOPE    HB18117   4.735   5.370  10.535 -1.0419 -0.2951 -0.3802
  162SOPE    C218118   4.724   5.460  10.341  0.2161  0.2591  0.7288
  162SOPE    HS18119   4.642   5.388  10.322  3.0892 -2.4956 -2.3421
  162SOPE   O2118120   4.847   5.412  10.278  0.0883 -0.3245 -0.1826
  162SOPE   C2118121   4.855   5.284  10.258  0.1343  0.1570  0.0764
  162SOPE   O2218122   4.775   5.201  10.293 -0.3568  0.1210  0.1227
  162SOPE   C2218123   4.988   5.255  10.187 -0.2751 -0.1997 -0.1684
  162SOPE   H2R18124   4.993   5.146  10.166 -0.6354 -0.3402  0.4472
  162SOPE   H2S18125   5.064   5.281  10.264 -1.5430 -2.1826  1.8768
  162SOPE    C318126   4.687   5.602  10.284  0.1724 -0.7607  0.3572
  162SOPE    HX18127   4.767   5.676  10.305 -1.0904  0.7994 -0.1204
  162SOPE    HY18128   4.605   5.640  10.347  1.1177 -1.4569  2.0641
  162SOPE   O3118129   4.652   5.603  10.144  0.0229 -0.4638 -0.0313
  162SOPE   C3118130   4.743   5.654  10.058 -0.1927  0.2604 -0.8417
  162SOPE   O3218131   4.847   5.705  10.091  0.2064  0.4505  0.4162
  162SOPE   C3218132   4.686   5.648   9.920 -0.3735 -0.2518  0.4031
  162SOPE   H2X18133   4.599   5.580   9.923 -0.5137 -0.0983 -0.0949
  162SOPE   H2Y18134   4.764   5.625   9.844  1.1322  1.0655  1.4734
  162SOPE   C2318135   5.005   5.331  10.053  0.0688  0.6713  0.5554
  162SOPE   H3R18136   5.109   5.320  10.015 -0.4210  0.6152 -0.8375
  162SOPE   H3S18137   4.972   5.435  10.076 -0.8026  0.6838 -0.6824
  162SOPE   C2418138   4.914   5.258   9.947 -0.4637  0.1474  0.1825
  162SOPE   H4R18139   4.948   5.154   9.926 -2.2838 -0.2324 -1.1202
  162SOPE   H4S18140   4.809   5.248   9.982 -0.1351 -2.0793  0.6802
  162SOPE   C2518141   4.918   5.337   9.816  0.1290  0.1630  0.9310
  162SOPE   H5R18142   4.886   5.441   9.840 -0.1762  0.1554  0.5694
  162SOPE   H5S18143   5.021   5.343   9.777 -0.7358  0.2772 -1.4875
  162SOPE   C2618144   4.834   5.273   9.696  0.2022 -0.3484  0.5252
  162SOPE   H6R18145   4.891   5.183   9.668  1.1399  0.1715  0.7289
  162SOPE   H6S18146   4.739   5.238   9.743 -0.2345  2.1896  1.7543
  162SOPE   C2718147   4.809   5.361   9.571  0.3960 -0.0434  0.3435
  162SOPE   H7R18148   4.793   5.295   9.483 -1.5087  1.7755 -0.7816
  162SOPE   H7S18149   4.712   5.415   9.579  0.6096  0.1798  1.4666
  162SOPE   C2818150   4.920   5.460   9.537  0.3568  0.1577  0.1332
  162SOPE   H8R18151   4.874   5.519   9.455  0.1312 -0.7043 -0.3834
  162SOPE   H8S18152   4.942   5.535   9.616  0.3057 -1.3583  1.6547
  162SOPE   C2918153   5.035   5.382   9.482 -0.8706 -0.3008 -0.2266
  162SOPE   H9118154   5.038   5.284   9.532  0.6938  0.4133  1.1768
  162SOPE  C21018155   5.122   5.418   9.384  0.0960  0.2626  0.3024
  162SOPE  H10118156   5.204   5.355   9.348  0.3198  2.3028 -3.1038
  162SOPE  C21118157   5.119   5.550   9.322  0.7879  0.0406  0.5028
  162SOPE  H11R18158   5.214   5.602   9.344  1.0649 -0.0484 -0.4101
  162SOPE  H11S18159   5.045   5.622   9.364  2.1955  1.1349  1.1850
  162SOPE  C21218160   5.113   5.549   9.164 -0.2669 -0.1939 -0.7181
  162SOPE  H12R18161   5.203   5.487   9.142  0.9966  1.3988 -0.2495
  162SOPE  H12S18162   5.134   5.643   9.109 -0.6994 -1.0950 -2.4658
  162SOPE  C21318163   4.989   5.474   9.106 -0.2868  0.8378  0.5103
  162SOPE  H13R18164   4.894   5.530   9.117  0.0685  1.4777  0.3468
  162SOPE  H13S18165   4.981   5.373   9.152  0.2218 -0.5455 -2.2385
  162SOPE  C21418166   5.007   5.447   8.953 -0.2198  0.5230  0.0405
  162SOPE  H14R18167   5.105   5.397   8.946  1.1233  2.5778  2.4886
  162SOPE  H14S18168   5.029   5.551   8.919  3.6194  1.1992  3.7766
  162SOPE  C21518169   4.888   5.379   8.893  0.7681  0.8068  0.7823
  162SOPE  H15R18170   4.863   5.290   8.954  0.9962 -0.1382 -0.4794
  162SOPE  H15S18171   4.914   5.342   8.792  1.4785  1.1587  0.8314
  162SOPE  C21618172   4.770   5.464   8.867  0.4662 -0.5225 -0.2741
  162SOPE  H16R18173   4.804   5.550   8.805  2.8648 -0.6304  0.7792
  162SOPE  H16S18174   4.717   5.520   8.947  1.6547  1.0877 -0.5651
  162SOPE  C21718175   4.654   5.385   8.809  0.0528 -0.5630  0.2110
  162SOPE  H17R18176   4.611   5.323   8.891  0.0053 -1.9122 -0.8036
  162SOPE  H17S18177   4.685   5.317   8.727 -0.2496  1.6135 -1.8016
  162SOPE  C21818178   4.534   5.465   8.757 -0.1456 -0.1760 -0.9549
  162SOPE  H18R18179   4.555   5.532   8.671 -0.2131 -0.3665 -1.1201
  162SOPE  H18S18180   4.489   5.516   8.844 -0.8268 -0.9391 -0.8565
  162SOPE  H18T18181   4.450   5.405   8.718 -1.4662  2.5129 -2.5604
  162SOPE   C3318182   4.642   5.789   9.871 -0.6509  0.7124  0.7105
  162SOPE   H3X18183   4.736   5.847   9.881  0.9234 -1.3949 -0.8484
  162SOPE   H3Y18184   4.562   5.832   9.935 -1.9140 -1.2046  0.4967
  162SOPE   C3418185   4.586   5.796   9.735 -0.2797 -0.3478  0.4052
  162SOPE   H4X18186   4.510   5.877   9.727 -0.4166 -0.3499  1.5206
  162SOPE   H4Y18187   4.527   5.703   9.719 -0.1339 -0.6056  1.3394
  162SOPE   C3518188   4.689   5.805   9.624  0.0084  0.0142 -0.4945
  162SOPE   H5X18189   4.772   5.733   9.640  1.8091  1.7111 -1.8703
  162SOPE   H5Y18190   4.735   5.906   9.625 -0.9131  0.4386 -0.1952
  162SOPE   C3618191   4.629   5.790   9.480 -0.5460  0.0842 -0.0228
  162SOPE   H6X18192   4.524   5.828   9.487 -0.3323  0.8793 -0.8687
  162SOPE   H6Y18193   4.616   5.683   9.456 -1.5062  0.3925 -0.9951
  162SOPE   C3718194   4.714   5.859   9.370  0.7484  0.2336  0.1752
  162SOPE   H7X18195   4.804   5.795   9.369  0.0881 -0.7496  1.1280
  162SOPE   H7Y18196   4.735   5.963   9.402 -0.7450  0.8494 -0.7243
  162SOPE   C3818197   4.641   5.860   9.234  0.8753  0.2981 -0.0472
  162SOPE   H8X18198   4.545   5.913   9.251  0.9434  1.3479 -2.5704
  162SOPE   H8Y18199   4.621   5.758   9.194  2.2189  0.6961 -1.8604
  162SOPE   C3918200   4.710   5.944   9.124 -0.5404 -0.0304 -1.0994
  162SOPE   H9X18201   4.805   5.894   9.098  1.2481  2.0464  0.9709
  162SOPE   H9Y18202   4.747   6.039   9.167 -0.6157 -0.0910 -0.8974
  162SOPE  C31018203   4.631   5.976   9.002 -0.3850  0.3488  0.3589
  162SOPE  H10X18204   4.675   6.054   8.936 -1.5094  1.4034  0.8172
  162SOPE  H10Y18205   4.536   6.014   9.047 -1.8649 -0.3462 -1.9984
  162SOPE  C31118206   4.581   5.858   8.913 -1.1380 -0.7683  0.0293
  162SOPE  H11X18207   4.497   5.893   8.850  0.7451  1.6975 -1.3258
  162SOPE  H11Y18208   4.546   5.779   8.982 -0.0242 -1.5041 -0.2282
  162SOPE  C31218209   4.691   5.802   8.821  0.0102 -0.1477 -0.2911
  162SOPE  H12X18210   4.654   5.722   8.753  0.5345  0.9716 -1.9714
  162SOPE  H12Y18211   4.771   5.754   8.881 -1.7102 -1.1610  1.2480
  162SOPE  C31318212   4.755   5.907   8.724 -1.0120 -0.1290 -0.0602
  162SOPE  H13X18213   4.828   5.854   8.659 -1.7868 -1.9537  0.5044
  162SOPE  H13Y18214   4.812   5.983   8.782  0.8257 -0.9026 -0.7590
  162SOPE  C31418215   4.651   5.971   8.635  0.1288 -0.0385 -0.8882
  162SOPE  H14X18216   4.701   6.056   8.584  0.2448  1.1749  1.1420
  162SOPE  H14Y18217   4.579   6.021   8.703  0.7672  0.4810 -0.5812
  162SOPE  C31518218   4.575   5.877   8.537 -0.4591 -0.7239  1.0921
  162SOPE  H15X18219   4.537   5.788   8.593  1.4190 -2.2957  0.0000
  162SOPE  H15Y18220   4.648   5.846   8.459 -0.3221  0.2665  0.8141
  162SOPE  C31618221   4.467   5.945   8.455 -0.0931  0.2776  0.1888
  162SOPE  H16X18222   4.416   5.881   8.380  0.8087  0.9673 -1.0357
  162SOPE  H16Y18223   4.503   6.034   8.400 -2.1039 -0.4997 -2.6230
  162SOPE  C31718224   4.352   5.975   8.553  0.3535  0.6078 -0.5331
  162SOPE  H17X18225   4.380   6.052   8.629  0.1496  1.5033 -1.3458
  162SOPE  H17Y18226   4.335   5.881   8.610  0.4901  0.6726 -0.3854
  162SOPE  C31818227   4.218   6.020   8.486 -0.0463 -0.1911 -0.2265
  162SOPE  H18X18228   4.191   5.937   8.418 -0.4046  0.3188 -0.7205
  162SOPE  H18Y18229   4.238   6.108   8.421  0.0210  0.5238  0.7491
  162SOPE  H18Z18230   4.144   6.037   8.566 -0.1418 -2.0808  0.1275
  163SOPE     N18231   6.123   4.039  10.954  0.7482 -0.5243 -0.0914
  163SOPE   HN118232   6.159   4.010  10.860 -0.3769  0.7149 -0.9307
  163SOPE   HN218233   6.064   3.962  10.991 -2.2612  1.8194  0.3324
  163SOPE   HN318234   6.062   4.119  10.927 -1.4723 -2.2453 -0.4989
  163SOPE   C1218235   6.221   4.095  11.054 -0.1118  1.0131 -0.3091
  163SOPE  H12A18236   6.303   4.020  11.055 -2.0099 -1.1855  0.5155
  163SOPE  H12B18237   6.171   4.098  11.153 -1.1779 -1.7659 -0.6754
  163SOPE   C1118238   6.292   4.218  10.993 -0.1371  0.4767 -0.2238
  163SOPE  H11A18239   6.372   4.258  11.058  0.8435  1.2336 -1.8210
  163SOPE  H11B18240   6.218   4.301  10.999 -1.3233 -0.5462 -0.1068
  163SOPE     P18241   6.479   4.123  10.823 -0.5981 -0.3230  0.0893
  163SOPE   O1318242   6.489   4.004  10.914  0.2598  0.1206 -0.2111
  163SOPE   O1418243   6.594   4.215  10.838  0.1929 -0.5537 -0.1169
  163SOPE   O1218244   6.343   4.201  10.861 -0.0872  0.5324 -0.6467
  163SOPE   O1118245   6.449   4.090  10.675 -0.1205 -0.0561  0.6772
  163SOPE    C118246   6.487   4.178  10.571  0.0079 -0.2033 -0.6970
  163SOPE    HA18247   6.592   4.216  10.575  0.1904 -0.7565 -0.0883
  163SOPE    HB18248   6.422   4.268  10.559  0.9426  0.4893 -0.7329
  163SOPE    C218249   6.497   4.100  10.436  0.0758  0.0675 -0.5749
  163SOPE    HS18250   6.510   4.180  10.359  1.2146  1.0421  0.5976
  163SOPE   O2118251   6.373   4.021  10.415 -0.2984  0.0793  0.0080
  163SOPE   C2118252   6.269   4.092  10.372  0.0143  0.1070 -0.7684
  163SOPE   O2218253   6.274   4.211  10.346  0.1165 -0.0474  0.0518
  163SOPE   C2218254   6.151   3.994  10.338  0.2567 -0.7473 -0.1549
  163SOPE   H2R18255   6.065   4.041  10.390  0.6785  2.1270 -1.8536
  163SOPE   H2S18256   6.176   3.890  10.370 -0.2903 -1.0337 -0.6289
  163SOPE    C318257   6.619   4.003  10.428  0.4524  0.0697 -0.2275
  163SOPE    HX18258   6.606   3.933  10.513 -0.2821  2.1475  1.4489
  163SOPE    HY18259   6.706   4.066  10.454  0.9488 -0.3712 -0.7938
  163SOPE   O3118260   6.636   3.930  10.303 -0.3898  0.5094 -0.2168
  163SOPE   C3118261   6.745   3.967  10.228 -0.4541 -0.5178  0.2066
  163SOPE   O3218262   6.820   4.058  10.253  0.0018 -0.7113  0.2583
  163SOPE   C3218263   6.754   3.880  10.103  0.0899 -0.0221  0.0219
  163SOPE   H2X18264   6.646   3.861  10.084 -0.2353 -1.9674  3.0890
  163SOPE   H2Y18265   6.797   3.780  10.127 -3.2057 -2.7573 -3.9501
  163SOPE   C2318266   6.114   3.981  10.188 -0.5892 -0.1816  0.7674
  163SOPE   H3R18267   6.076   3.878  10.169 -3.1293  0.8763 -0.4642
  163SOPE   H3S18268   6.204   3.995  10.125 -1.7942  2.4747 -0.5052
  163SOPE   C2418269   6.019   4.090  10.147  0.6256  0.6265 -0.3102
  163SOPE   H4R18270   5.932   4.086  10.216  1.1941  0.5717  0.4159
  163SOPE   H4S18271   6.062   4.191  10.164 -1.7444  1.9103 -1.4677
  163SOPE   C2518272   5.966   4.082  10.001  0.1678  0.2161  1.1663
  163SOPE   H5R18273   5.855   4.076  10.008  0.0425  0.5237 -0.2656
  163SOPE   H5S18274   5.986   4.178   9.949 -0.0157  0.3148  1.2745
  163SOPE   C2618275   6.015   3.963   9.909 -0.4985 -0.4481 -0.1118
  163SOPE   H6R18276   6.121   3.989   9.885 -0.2019  1.2056  2.6055
  163SOPE   H6S18277   6.018   3.870   9.969 -1.6160 -1.2060 -1.1693
  163SOPE   C2718278   5.935   3.928   9.789  0.0528 -0.6809  0.4261
  163SOPE   H7R18279   5.884   3.834   9.820  0.0041 -0.8758 -0.2282
  163SOPE   H7S18280   5.853   3.995   9.758  0.1552  0.0978  1.7601
  163SOPE   C2818281   6.021   3.895   9.665 -0.1444 -0.2362 -0.5404
  163SOPE   H8R18282   6.095   3.817   9.694 -1.0748 -1.5707 -1.5823
  163SOPE   H8S18283   5.940   3.845   9.607  0.0087 -2.1438  0.7759
  163SOPE   C2918284   6.076   4.020   9.599  0.0204 -0.2656 -0.5341
  163SOPE   H9118285   6.114   4.095   9.671 -1.3112  0.8592 -0.9485
  163SOPE  C21018286   6.064   4.057   9.474 -0.0258 -0.0827 -0.1441
  163SOPE  H10118287   6.111   4.150   9.438  1.6765 -1.7783 -2.5953
  163SOPE  C21118288   6.010   3.972   9.360  0.0424  0.1362 -0.1257
  163SOPE  H11R18289   5.917   4.020   9.321 -1.0080  0.2270  2.2586
  163SOPE  H11S18290   5.981   3.872   9.399 -1.9470  0.9040  0.5049
  163SOPE  C21218291   6.114   3.956   9.249  0.5797  0.7377 -0.0602
  163SOPE  H12R18292   6.206   3.913   9.294 -0.5702  0.5614  2.2543
  163SOPE  H12S18293   6.134   4.056   9.205 -0.1711  0.0116 -2.1863
  163SOPE  C21318294   6.059   3.875   9.135  0.9299  0.0255 -0.0590
  163SOPE  H13R18295   5.978   3.928   9.080 -0.4962  0.1828  2.0784
  163SOPE  H13S18296   6.010   3.786   9.181  0.3883 -0.8385 -2.1867
  163SOPE  C21418297   6.167   3.829   9.031  0.9361  0.3407  0.8601
  163SOPE  H14R18298   6.238   3.769   9.091 -0.2648 -0.1760  1.8285
  163SOPE  H14S18299   6.200   3.923   8.983 -2.8536  0.5559 -1.7955
  163SOPE  C21518300   6.115   3.732   8.920 -0.3989 -0.0557  0.2182
  163SOPE  H15R18301   6.050   3.792   8.852  0.5026  1.1308  0.3530
  163SOPE  H15S18302   6.051   3.654   8.965  0.3231 -0.9736 -0.3061
  163SOPE  C21618303   6.228   3.674   8.836  0.2445  0.0936 -0.0548
  163SOPE  H16R18304   6.323   3.662   8.893  0.2238 -1.5236 -0.2929
  163SOPE  H16S18305   6.242   3.755   8.761 -1.0387 -0.0164 -0.4262
  163SOPE  C21718306   6.192   3.547   8.753 -0.7559  0.7058 -0.4352
  163SOPE  H17R18307   6.104   3.565   8.687 -0.6776 -0.0139 -0.7431
  163SOPE  H17S18308   6.173   3.466   8.826  0.6184  0.5882 -0.1785
  163SOPE  C21818309   6.300   3.490   8.655 -0.1282 -0.4557  0.5939
  163SOPE  H18R18310   6.312   3.560   8.570 -0.6394  0.6939  1.4403
  163SOPE  H18S18311   6.276   3.386   8.624  0.6370 -1.3347  2.7523
  163SOPE  H18T18312   6.394   3.493   8.715  0.4821 -0.4407 -0.3464
  163SOPE   C3318313   6.829   3.932   9.978 -1.1291 -0.2395 -0.0035
  163SOPE   H3X18314   6.939   3.943   9.994 -1.1697 -1.7998  1.7282
  163SOPE   H3Y18315   6.776   4.029   9.964 -0.8837 -0.3425 -1.8382
  163SOPE   C3418316   6.796   3.853   9.849  0.0697  0.4115 -0.1143
  163SOPE   H4X18317   6.688   3.833   9.833  0.9515 -2.7737 -3.7280
  163SOPE   H4Y18318   6.837   3.753   9.870  0.7848  0.9662  1.2351
  163SOPE   C3518319   6.863   3.918   9.730 -0.0388 -0.0211  0.4549
  163SOPE   H5X18320   6.971   3.911   9.753 -0.4821 -0.0564  2.6976
  163SOPE   H5Y18321   6.834   4.025   9.730 -2.4743 -0.6240  0.2888
  163SOPE   C3618322   6.839   3.849   9.587  0.3060  0.7785 -0.0881
  163SOPE   H6X18323   6.736   3.879   9.558 -0.0090 -1.2164 -1.1965
  163SOPE   H6Y18324   6.850   3.740   9.604 -0.2782  0.3680 -2.0772
  163SOPE   C3718325   6.942   3.893   9.477  0.3259  0.1053 -0.2310
  163SOPE   H7X18326   7.041   3.843   9.484 -0.2468 -2.0052 -4.0179
  163SOPE   H7Y18327   6.963   4.001   9.492  4.9894 -0.8783  1.9696
  163SOPE   C3818328   6.879   3.856   9.345 -0.5330  0.8193 -0.2610
  163SOPE   H8X18329   6.783   3.911   9.334  0.1271  1.8939 -0.7078
  163SOPE   H8Y18330   6.860   3.747   9.350  1.2678  0.5114  1.3124
  163SOPE   C3918331   6.974   3.887   9.231  0.1765 -1.3397 -0.6744
  163SOPE   H9X18332   7.078   3.869   9.264 -0.2542 -1.1816  0.8277
  163SOPE   H9Y18333   6.966   3.994   9.203  1.2063 -1.3785 -1.1734
  163SOPE  C31018334   6.943   3.801   9.114  0.4173 -0.6233 -0.7307
  163SOPE  H10X18335   6.840   3.823   9.081  0.7140  0.0473 -1.2294
  163SOPE  H10Y18336   6.935   3.694   9.143  0.7513 -0.6593 -0.7681
  163SOPE  C31118337   7.050   3.817   9.007 -0.1035  0.2573  1.2142
  163SOPE  H11X18338   7.154   3.832   9.043  0.2445  0.6721  0.0662
  163SOPE  H11Y18339   7.029   3.919   8.967  0.5864  1.0110  2.6545
  163SOPE  C31218340   7.045   3.698   8.908  0.6408 -0.1006  0.4691
  163SOPE  H12X18341   6.943   3.697   8.863  0.6383  1.2474  0.4254
  163SOPE  H12Y18342   7.081   3.602   8.952  0.9209 -0.3877 -0.3655
  163SOPE  C31318343   7.136   3.725   8.784 -0.1525  0.3577 -0.7560
  163SOPE  H13X18344   7.231   3.752   8.834  0.2007  1.1575 -1.8367
  163SOPE  H13Y18345   7.103   3.807   8.716 -0.8404 -0.5921 -1.6055
  163SOPE  C31418346   7.164   3.597   8.703 -0.8699 -0.4423  0.4509
  163SOPE  H14X18347   7.067   3.550   8.675 -0.9118  0.5438 -1.1978
  163SOPE  H14Y18348   7.215   3.527   8.773 -1.4315 -0.0070  1.3134
  163SOPE  C31518349   7.236   3.621   8.567  0.1250  0.0890  0.9778
  163SOPE  H15X18350   7.322   3.688   8.589  0.6625 -0.9747  2.1986
  163SOPE  H15Y18351   7.171   3.687   8.504  2.3968  2.4676  0.9402
  163SOPE  C31618352   7.274   3.489   8.502  0.1613 -0.2954  0.4470
  163SOPE  H16X18353   7.202   3.410   8.532 -0.7720  0.4852  0.2846
  163SOPE  H16Y18354   7.368   3.452   8.549  0.5019  0.6263  0.5056
  163SOPE  C31718355   7.277   3.478   8.351  0.4162 -0.2246 -0.0519
  163SOPE  H17X18356   7.348   3.551   8.307  0.0371 -0.1751 -0.5961
  163SOPE  H17Y18357   7.172   3.499   8.322  0.2637 -0.7988  0.0748
  163SOPE  C31818358   7.297   3.342   8.290 -0.0870 -0.7861  0.4847
  163SOPE  H18X18359   7.232   3.317   8.204  1.8082  2.6868 -2.2266
  163SOPE  H18Y18360   7.267   3.262   8.361 -2.9809 -2.3805 -2.2473
  163SOPE  H18Z18361   7.400   3.320   8.255 -0.0779  0.1454 -0.0952
  164SOPE     N18362   5.639   2.301  10.571  0.2186 -0.1063  0.0377
  164SOPE   HN118363   5.680   2.258  10.486 -3.0910 -1.1123 -1.2372
  164SOPE   HN218364   5.700   2.382  10.595 -0.6866  1.0459 -1.3555
  164SOPE   HN318365   5.629   2.238  10.653  1.0076 -0.0052  0.2199
  164SOPE   C1218366   5.496   2.356  10.533 -0.4315 -0.3447 -0.6250
  164SOPE  H12A18367   5.524   2.439  10.465  0.7686 -1.0068 -0.9962
  164SOPE  H12B18368   5.462   2.407  10.625  0.6224  0.7879 -0.8355
  164SOPE   C1118369   5.405   2.251  10.474 -0.1371 -0.4838 -0.4108
  164SOPE  H11A18370   5.467   2.201  10.396  1.1030 -2.4638  1.6981
  164SOPE  H11B18371   5.318   2.302  10.427  0.4530 -0.8455 -1.9301
  164SOPE     P18372   5.228   2.182  10.652 -0.0753  0.0078  0.3671
  164SOPE   O1318373   5.216   2.320  10.697 -0.2013 -0.8646  0.1347
  164SOPE   O1418374   5.209   2.087  10.764 -0.2349  0.0863 -0.0150
  164SOPE   O1218375   5.370   2.155  10.579 -0.3166  0.0039  0.1288
  164SOPE   O1118376   5.132   2.151  10.534  0.3231  0.9758  0.0280
  164SOPE    C118377   5.087   2.017  10.505  0.0656  0.1521 -0.0495
  164SOPE    HA18378   4.987   2.004  10.551 -0.3132  2.7033  0.0068
  164SOPE    HB18379   5.152   1.945  10.558  1.5125  0.9577 -0.6663
  164SOPE    C218380   5.078   1.981  10.358 -0.1030 -0.2578 -0.2762
  164SOPE    HS18381   5.171   2.019  10.311 -2.4343  3.3262 -2.5870
  164SOPE   O2118382   4.965   2.040  10.292 -0.1429  0.2750 -0.4512
  164SOPE   C2118383   4.988   2.155  10.236  0.1294  0.5279 -0.1338
  164SOPE   O2218384   5.094   2.200  10.201 -0.0712 -0.3653 -0.6975
  164SOPE   C2218385   4.844   2.222  10.210 -0.6535  0.7466  0.4113
  164SOPE   H2R18386   4.835   2.315  10.270  0.6538  1.8991 -1.1089
  164SOPE   H2S18387   4.764   2.156  10.251  0.5185 -1.4421 -0.6685
  164SOPE    C318388   5.079   1.837  10.331  0.6940  0.0003 -0.1640
  164SOPE    HX18389   4.995   1.786  10.384  1.1159 -1.1713 -0.5807
  164SOPE    HY18390   5.173   1.796  10.374  0.6452 -1.3373 -1.2797
  164SOPE   O3118391   5.081   1.801  10.191  0.1188 -0.3485  0.3101
  164SOPE   C3118392   4.968   1.766  10.138  0.4792  0.4705  0.5130
  164SOPE   O3218393   4.859   1.750  10.192  0.2831  0.4791 -0.0397
  164SOPE   C3218394   4.980   1.720   9.993 -0.3852 -0.1502  0.2049
  164SOPE   H2X18395   5.060   1.644   9.979  0.9888  1.2490  0.2372
  164SOPE   H2Y18396   5.029   1.802   9.936  2.9939 -2.0843  0.0346
  164SOPE   C2318397   4.804   2.240  10.063 -0.1998  0.3555 -0.3953
  164SOPE   H3R18398   4.880   2.303  10.011 -0.6928  1.5272  0.2563
  164SOPE   H3S18399   4.706   2.293  10.066  0.8548  2.3942  1.4833
  164SOPE   C2418400   4.773   2.120   9.974 -0.3085 -0.3423  0.6181
  164SOPE   H4R18401   4.855   2.047   9.966 -1.6371 -2.2637  3.0990
  164SOPE   H4S18402   4.700   2.058  10.030 -2.0461  0.1876 -0.9710
  164SOPE   C2518403   4.730   2.163   9.834 -0.1694 -0.7173  0.2922
  164SOPE   H5R18404   4.632   2.214   9.841  0.4163  0.2712  1.6103
  164SOPE   H5S18405   4.802   2.241   9.801 -2.4886  2.0693  1.4411
  164SOPE   C2618406   4.717   2.048   9.729 -0.7567  0.4175  0.7799
  164SOPE   H6R18407   4.822   2.023   9.702 -0.3831 -0.6283  2.9727
  164SOPE   H6S18408   4.676   1.963   9.788 -2.0310  0.5766  0.1364
  164SOPE   C2718409   4.642   2.076   9.602  0.5929 -0.2868 -0.8742
  164SOPE   H7R18410   4.538   2.097   9.635  1.1290 -0.6657  1.1985
  164SOPE   H7S18411   4.678   2.169   9.553  0.2524  0.1395 -0.3318
  164SOPE   C2818412   4.633   1.964   9.501  0.1462 -0.7699 -0.7549
  164SOPE   H8R18413   4.733   1.939   9.458  0.2284 -0.5110 -0.7154
  164SOPE   H8S18414   4.591   1.874   9.551 -0.3097 -1.1067 -1.7234
  164SOPE   C2918415   4.525   1.994   9.401 -0.2420  0.4969  0.3850
  164SOPE   H9118416   4.430   2.014   9.453  0.6609 -1.1549  2.8040
  164SOPE  C21018417   4.532   1.983   9.268 -0.4412  0.7402  0.7619
  164SOPE  H10118418   4.443   1.999   9.205  1.2112 -0.1697 -1.9722
  164SOPE  C21118419   4.651   1.939   9.180  0.6140  0.4511  0.5672
  164SOPE  H11R18420   4.743   1.935   9.242  1.1960 -0.2871 -0.2985
  164SOPE  H11S18421   4.667   2.023   9.109 -1.9208  0.7068  0.2154
  164SOPE  C21218422   4.626   1.796   9.115  0.3670 -0.3202 -0.3405
  164SOPE  H12R18423   4.541   1.791   9.043  0.8973 -0.5644 -0.9676
  164SOPE  H12S18424   4.585   1.726   9.191  1.0183 -1.4592 -0.9985
  164SOPE  C21318425   4.769   1.748   9.058 -0.5649 -0.5334  0.2422
  164SOPE  H13R18426   4.846   1.711   9.128  0.2095  2.2361  0.9752
  164SOPE  H13S18427   4.815   1.839   9.014 -2.2605 -0.1246 -0.7897
  164SOPE  C21418428   4.771   1.650   8.939 -0.1422  0.6740 -0.7020
  164SOPE  H14R18429   4.739   1.549   8.972  2.0283  0.5001  1.0843
  164SOPE  H14S18430   4.878   1.640   8.912 -0.6119  1.1577 -2.9129
  164SOPE  C21518431   4.681   1.689   8.826 -0.5007  0.8189  0.7202
  164SOPE  H15R18432   4.688   1.798   8.805 -1.6116  0.6403 -0.7717
  164SOPE  H15S18433   4.575   1.679   8.858 -0.9684  2.8003 -0.0133
  164SOPE  C21618434   4.715   1.610   8.696 -0.8593 -0.6241  0.2523
  164SOPE  H16R18435   4.699   1.500   8.703  1.2588 -1.0113 -0.3298
  164SOPE  H16S18436   4.823   1.621   8.675 -0.7406  0.2209  1.2173
  164SOPE  C21718437   4.629   1.646   8.575 -0.1717 -0.3502  0.0118
  164SOPE  H17R18438   4.650   1.751   8.545 -2.1654  0.4917  1.3509
  164SOPE  H17S18439   4.523   1.637   8.605 -0.5030 -2.5688 -1.5506
  164SOPE  C21818440   4.660   1.572   8.440 -0.0447 -0.1004  0.0735
  164SOPE  H18R18441   4.769   1.577   8.416  0.1592  0.2628  1.0102
  164SOPE  H18S18442   4.617   1.625   8.353  0.0062 -0.2647 -0.0523
  164SOPE  H18T18443   4.618   1.469   8.434  1.0569 -0.5723  0.1501
  164SOPE   C3318444   4.852   1.690   9.906 -0.5793  0.9280 -0.4666
  164SOPE   H3X18445   4.773   1.768   9.918 -0.2304  1.2991 -0.5569
  164SOPE   H3Y18446   4.812   1.590   9.934  1.1508 -0.0975 -1.5256
  164SOPE   C3418447   4.895   1.679   9.750  0.0397 -0.0707 -0.0387
  164SOPE   H4X18448   4.977   1.612   9.719  0.1212  0.0231 -0.0258
  164SOPE   H4Y18449   4.927   1.778   9.712  0.9235  0.0683  1.0266
  164SOPE   C3518450   4.769   1.632   9.670 -0.2190 -0.0673 -0.6308
  164SOPE   H5X18451   4.699   1.718   9.669  0.7260  0.7178 -0.8012
  164SOPE   H5Y18452   4.729   1.545   9.727  1.2935 -1.7226 -1.9595
  164SOPE   C3618453   4.802   1.601   9.522 -0.4231  0.5765 -0.5025
  164SOPE   H6X18454   4.841   1.497   9.525 -0.2111  0.4725 -3.3822
  164SOPE   H6Y18455   4.879   1.665   9.473 -0.2015 -0.8367 -2.1085
  164SOPE   C3718456   4.672   1.584   9.436  0.8586 -0.2606  0.8874
  164SOPE   H7X18457   4.625   1.679   9.401  1.5637  0.4133  1.7263
  164SOPE   H7Y18458   4.609   1.548   9.520  1.3846 -3.2139  0.1022
  164SOPE   C3818459   4.705   1.469   9.330 -0.2379 -0.1425 -0.0354
  164SOPE   H8X18460   4.745   1.384   9.390  0.6416  0.5829  0.4429
  164SOPE   H8Y18461   4.791   1.508   9.271  0.3176  1.9213  1.9813
  164SOPE   C3918462   4.603   1.428   9.225  0.1114 -0.7159  0.3472
  164SOPE   H9X18463   4.581   1.510   9.153 -1.2959 -1.4870 -0.1339
  164SOPE   H9Y18464   4.505   1.423   9.276  1.6054  0.7002  3.6438
  164SOPE  C31018465   4.638   1.304   9.137  0.4707  0.7169 -0.4250
  164SOPE  H10X18466   4.672   1.226   9.209  0.2854  1.0115 -0.0132
  164SOPE  H10Y18467   4.726   1.326   9.073  3.3088  3.5601  3.9190
  164SOPE  C31118468   4.520   1.238   9.060 -0.0325  0.2259  0.3031
  164SOPE  H11X18469   4.571   1.148   9.020  3.2452  1.4361  1.3630
  164SOPE  H11Y18470   4.491   1.295   8.969 -1.4987 -1.4629 -0.3365
  164SOPE  C31218471   4.390   1.202   9.135  0.1356  0.1795  0.4613
  164SOPE  H12X18472   4.337   1.136   9.063  0.6286 -1.3281  1.4207
  164SOPE  H12Y18473   4.331   1.294   9.150  2.1864  1.3302  2.0269
  164SOPE  C31318474   4.393   1.133   9.275 -0.6243  0.1603  0.0755
  164SOPE  H13X18475   4.301   1.084   9.313 -1.3596  1.1062 -0.4478
  164SOPE  H13Y18476   4.418   1.216   9.345 -1.8512 -0.6549  1.5461
  164SOPE  C31418477   4.484   1.013   9.281  0.0168  0.7542 -0.2484
  164SOPE  H14X18478   4.577   1.034   9.224  1.4503 -0.6880  1.4151
  164SOPE  H14Y18479   4.434   0.928   9.231  2.3213  0.3378 -2.0402
  164SOPE  C31518480   4.549   0.978   9.422  0.0637  0.0260  0.6649
  164SOPE  H15X18481   4.617   0.891   9.417 -0.0636 -0.1116  1.2996
  164SOPE  H15Y18482   4.469   0.952   9.495  0.3477 -2.5815  0.1300
  164SOPE  C31618483   4.634   1.085   9.481  0.0131 -0.4972  0.5274
  164SOPE  H16X18484   4.583   1.178   9.449 -3.4664 -2.3451  0.2147
  164SOPE  H16Y18485   4.736   1.079   9.438  0.1302  0.1255  0.7107
  164SOPE  C31718486   4.654   1.069   9.633 -0.0535  0.9114  0.0997
  164SOPE  H17X18487   4.700   0.968   9.648 -1.7250  0.1398  0.2538
  164SOPE  H17Y18488   4.562   1.054   9.694  0.5614  0.1686  0.8891
  164SOPE  C31818489   4.745   1.175   9.701  0.0072 -0.9704  0.2819
  164SOPE  H18X18490   4.848   1.148   9.670 -0.2159  0.0757 -1.5174
  164SOPE  H18Y18491   4.728   1.181   9.811 -0.2472  1.2107  0.1663
  164SOPE  H18Z18492   4.712   1.272   9.657  1.3234 -0.6949 -0.1399
  165SOPE     N18493   6.723   0.552  10.621 -0.0178 -0.1249  0.0560
  165SOPE   HN118494   6.738   0.450  10.607  0.4739 -0.0411 -0.0396
  165SOPE   HN218495   6.802   0.580  10.682  2.3076 -0.1219 -2.7529
  165SOPE   HN318496   6.630   0.567  10.665  0.5844  1.6750  0.8171
  165SOPE   C1218497   6.733   0.640  10.501  0.2580  0.3010 -0.0701
  165SOPE  H12A18498   6.814   0.602  10.435 -0.1218 -3.5022  1.4036
  165SOPE  H12B18499   6.757   0.742  10.539 -0.8041 -0.2767  2.3676
  165SOPE   C1118500   6.596   0.648  10.426 -0.3356  0.5869 -0.3611
  165SOPE  H11A18501   6.578   0.550  10.378 -1.5802  1.7160 -2.3266
  165SOPE  H11B18502   6.605   0.721  10.343  1.3698  1.3276  0.4263
  165SOPE     P18503   6.344   0.706  10.461 -0.3971  0.3584  0.0817
  165SOPE   O1318504   6.283   0.831  10.516  0.2138 -0.2485  0.5163
  165SOPE   O1418505   6.278   0.579  10.489  0.8351 -0.2310  0.5483
  165SOPE   O1218506   6.492   0.685  10.522 -0.1416  0.3397 -0.2489
  165SOPE   O1118507   6.364   0.716  10.305  0.1525 -0.1777  0.1129
  165SOPE    C118508   6.286   0.808  10.233  0.2009 -0.0211 -0.3243
  165SOPE    HA18509   6.200   0.858  10.283 -0.4060 -0.0219 -1.3582
  165SOPE    HB18510   6.258   0.757  10.139  2.7767 -0.9865 -0.6434
  165SOPE    C218511   6.377   0.925  10.190 -0.3471  0.1645 -0.1362
  165SOPE    HS18512   6.419   0.956  10.288  1.5239  0.3499 -0.9656
  165SOPE   O2118513   6.298   1.022  10.125 -0.1343 -0.1676  0.1801
  165SOPE   C2118514   6.335   1.153  10.121 -0.0215  0.3592  0.3657
  165SOPE   O2218515   6.409   1.201  10.201  0.1550  0.0348  0.0375
  165SOPE   C2218516   6.278   1.226   9.998  0.2680  0.5207  0.1279
  165SOPE   H2R18517   6.169   1.205  10.000  0.2519  0.5660 -0.2271
  165SOPE   H2S18518   6.329   1.176   9.913  1.8464  0.1164  1.2718
  165SOPE    C318519   6.490   0.887  10.094  0.3335  0.5770  0.1710
  165SOPE    HX18520   6.425   0.843  10.015 -1.7847 -0.0240  2.1453
  165SOPE    HY18521   6.555   0.808  10.138  0.6349  0.3349 -0.6858
  165SOPE   O3118522   6.565   0.994  10.040 -0.2334  0.0880  0.7140
  165SOPE   C3118523   6.672   1.018  10.118  0.0073  0.1123 -0.3423
  165SOPE   O3218524   6.694   0.956  10.220 -0.0155  0.0332 -0.3548
  165SOPE   C3218525   6.763   1.132  10.071  0.4130 -0.7590  0.1215
  165SOPE   H2X18526   6.820   1.085   9.988 -2.3201  1.4682 -3.3020
  165SOPE   H2Y18527   6.839   1.141  10.151  4.1036 -0.0604 -3.1266
  165SOPE   C2318528   6.317   1.370  10.003 -0.0628  0.4822  0.2469
  165SOPE   H3R18529   6.296   1.407   9.900  0.4584 -1.5940 -0.6612
  165SOPE   H3S18530   6.427   1.381  10.011  0.2091 -0.6793 -1.3259
  165SOPE   C2418531   6.227   1.459  10.093  0.2780 -0.2509  0.2436
  165SOPE   H4R18532   6.125   1.423  10.067  0.3911  0.3663 -1.1759
  165SOPE   H4S18533   6.248   1.455  10.202  1.4474  2.2974  0.1738
  165SOPE   C2518534   6.246   1.606  10.057 -0.8983 -0.1667  0.0487
  165SOPE   H5R18535   6.254   1.615   9.946  1.2145 -1.3843  0.0538
  165SOPE   H5S18536   6.151   1.655  10.087 -0.5463  0.5751 -0.0327
  165SOPE   C2618537   6.375   1.668  10.110  0.0063  0.6465 -0.3682
  165SOPE   H6R18538   6.379   1.645  10.218  1.1202 -1.5197 -0.8074
  165SOPE   H6S18539   6.464   1.614  10.070  1.6433  0.7763  2.8153
  165SOPE   C2718540   6.406   1.822  10.076 -0.0501  0.6825 -0.7494
  165SOPE   H7R18541   6.312   1.879  10.090 -0.5715  0.0390 -1.5927
  165SOPE   H7S18542   6.486   1.870  10.138 -1.5663  0.1426  1.7608
  165SOPE   C2818543   6.445   1.835   9.925  0.2837 -0.0309  0.1773
  165SOPE   H8R18544   6.515   1.752   9.902 -1.0863 -1.1685 -0.0044
  165SOPE   H8S18545   6.349   1.811   9.876  0.6665 -1.6654  0.1923
  165SOPE   C2918546   6.498   1.973   9.879  0.4096  0.7423 -0.7832
  165SOPE   H9118547   6.606   1.993   9.879  0.3354  1.2513  0.3466
  165SOPE  C21018548   6.415   2.071   9.840  0.4996  0.3580 -0.2547
  165SOPE  H10118549   6.459   2.170   9.818  0.7045  0.3963  0.3204
  165SOPE  C21118550   6.265   2.069   9.831  0.2520  0.1994  1.7995
  165SOPE  H11R18551   6.229   2.173   9.818 -0.2474  0.1806  2.9375
  165SOPE  H11S18552   6.221   2.037   9.928  0.0066 -3.2167  0.6980
  165SOPE  C21218553   6.192   1.997   9.717 -0.0802  0.4505 -0.4686
  165SOPE  H12R18554   6.083   2.003   9.738 -0.4931 -0.5348 -2.1790
  165SOPE  H12S18555   6.230   1.893   9.712  3.1359  1.4144  1.1096
  165SOPE  C21318556   6.229   2.059   9.578  0.9367 -0.5657  0.2630
  165SOPE  H13R18557   6.339   2.074   9.579  1.2803 -2.5530 -1.2338
  165SOPE  H13S18558   6.174   2.154   9.565  2.1615  0.5065  2.4256
  165SOPE  C21418559   6.213   1.977   9.450  0.5689  0.5036  0.9052
  165SOPE  H14R18560   6.104   1.957   9.442  0.7055  0.3814 -0.9764
  165SOPE  H14S18561   6.272   1.883   9.447 -1.7032 -0.9685 -2.1152
  165SOPE  C21518562   6.260   2.045   9.324  0.9528 -0.1685  0.0543
  165SOPE  H15R18563   6.368   2.065   9.341  0.9690 -1.1599  1.2784
  165SOPE  H15S18564   6.217   2.148   9.327 -0.2651 -0.6695  1.2039
  165SOPE  C21618565   6.222   1.974   9.190  0.1619  0.4526  0.0422
  165SOPE  H16R18566   6.115   1.996   9.174 -0.0709  0.2547  1.2527
  165SOPE  H16S18567   6.243   1.865   9.196 -1.0194  0.2750  3.1745
  165SOPE  C21718568   6.297   2.039   9.073 -0.1004  0.3757  0.2180
  165SOPE  H17R18569   6.297   1.976   8.982  1.5129  0.9446 -0.2070
  165SOPE  H17S18570   6.401   2.070   9.097  0.4588  0.3747 -2.0161
  165SOPE  C21818571   6.230   2.166   9.025  0.1740  0.0800  0.4580
  165SOPE  H18R18572   6.123   2.145   9.003 -0.1184  1.1467  0.8228
  165SOPE  H18S18573   6.274   2.200   8.929  0.0659 -3.0444 -0.8416
  165SOPE  H18T18574   6.237   2.253   9.093 -1.4513  0.6035  0.0083
  165SOPE   C3318575   6.698   1.271  10.044  0.3262 -0.2370  0.1001
  165SOPE   H3X18576   6.641   1.296  10.136 -1.5654 -2.1107 -0.4709
  165SOPE   H3Y18577   6.624   1.262   9.961  0.7003  1.7431 -0.5213
  165SOPE   C3418578   6.807   1.382  10.016 -0.1881  0.3102  0.0008
  165SOPE   H4X18579   6.874   1.357   9.931  1.4271  1.5258  0.8655
  165SOPE   H4Y18580   6.874   1.390  10.104 -0.1880  0.0062  0.0290
  165SOPE   C3518581   6.754   1.523   9.997  0.5890 -0.3195 -0.1371
  165SOPE   H5X18582   6.724   1.558  10.098 -1.0005  0.5150 -0.8361
  165SOPE   H5Y18583   6.662   1.530   9.935  0.0534 -1.0427  0.5612
  165SOPE   C3618584   6.849   1.634   9.945  0.3807 -0.0644  0.1942
  165SOPE   H6X18585   6.930   1.642  10.021  0.1939  2.2755  0.2341
  165SOPE   H6Y18586   6.794   1.730   9.938  0.5158  0.0438  0.6273
  165SOPE   C3718587   6.902   1.600   9.807  0.8892 -1.0934  0.4526
  165SOPE   H7X18588   6.816   1.579   9.740  0.0962  2.3243  0.1782
  165SOPE   H7Y18589   6.978   1.519   9.804 -0.0551 -1.9918 -2.1742
  165SOPE   C3818590   6.985   1.726   9.762 -0.2157  0.0215  1.1153
  165SOPE   H8X18591   7.042   1.678   9.680  0.1121  0.9083  0.8143
  165SOPE   H8Y18592   7.050   1.759   9.845  0.9875 -1.1556  0.6716
  165SOPE   C3918593   6.902   1.845   9.704 -0.1971 -0.0484 -0.3832
  165SOPE   H9X18594   6.853   1.902   9.786 -0.4582 -2.1727  1.0204
  165SOPE   H9Y18595   6.810   1.810   9.654 -0.1147  0.3989 -0.8533
  165SOPE  C31018596   6.969   1.927   9.596 -0.7093  0.6330 -0.7452
  165SOPE  H10X18597   6.973   1.868   9.502  1.1650 -0.0087 -0.3110
  165SOPE  H10Y18598   7.067   1.966   9.632 -0.5466  0.0694 -0.5558
  165SOPE  C31118599   6.869   2.036   9.559 -0.1276 -0.5315 -0.1761
  165SOPE  H11X18600   6.879   2.121   9.630  0.4028  0.5511 -1.4828
  165SOPE  H11Y18601   6.764   2.000   9.568 -0.1295 -0.1957  1.3207
  165SOPE  C31218602   6.897   2.093   9.416  0.1920  0.3729  0.3405
  165SOPE  H12X18603   6.906   2.003   9.353 -0.1788 -0.2283  1.1243
  165SOPE  H12Y18604   6.995   2.143   9.427  0.6139 -0.4732  0.4592
  165SOPE  C31318605   6.788   2.191   9.351 -0.2626 -0.4281 -0.4811
  165SOPE  H13X18606   6.786   2.280   9.416 -0.5504  0.1389 -1.2442
  165SOPE  H13Y18607   6.687   2.145   9.358 -1.0501  1.2210 -0.6664
  165SOPE  C31418608   6.821   2.220   9.199 -0.6982  0.1456 -0.7479
  165SOPE  H14X18609   6.845   2.125   9.146  0.3921  0.3826 -0.6977
  165SOPE  H14Y18610   6.900   2.298   9.195  0.8171 -1.3496 -2.0311
  165SOPE  C31518611   6.696   2.267   9.133  0.2555 -0.1544  0.0127
  165SOPE  H15X18612   6.656   2.352   9.193  1.9948 -0.7732  2.1944
  165SOPE  H15Y18613   6.618   2.189   9.133  1.6545 -1.6172  0.8801
  165SOPE  C31618614   6.716   2.294   8.984 -0.5202 -0.2539 -0.3966
  165SOPE  H16X18615   6.767   2.213   8.928 -1.4483  1.1033 -3.4358
  165SOPE  H16Y18616   6.788   2.378   8.974  0.6251 -1.3132 -1.3908
  165SOPE  C31718617   6.576   2.321   8.909  0.1160 -0.2283 -0.2126
  165SOPE  H17X18618   6.563   2.430   8.894 -2.1640 -0.2599  1.0798
  165SOPE  H17Y18619   6.489   2.287   8.970  0.1391 -0.3937 -0.2709
  165SOPE  C31818620   6.572   2.254   8.770 -0.0773 -0.0436  0.1749
  165SOPE  H18X18621   6.630   2.313   8.697 -0.0109 -0.8267 -0.4198
  165SOPE  H18Y18622   6.473   2.257   8.721  0.0594  1.0398 -0.0566
  165SOPE  H18Z18623   6.607   2.150   8.788 -1.2572 -0.4322  0.3413
  166SOPE     N18624   5.218   1.862  10.914  0.5251  0.8235 -0.4534
  166SOPE   HN118625   5.215   1.878  11.016 -0.1884 -2.4129  0.1558
  166SOPE   HN218626   5.238   1.953  10.868  0.2081  1.0361 -0.1732
  166SOPE   HN318627   5.127   1.825  10.877 -0.4640  2.9371 -0.2616
  166SOPE   C1218628   5.332   1.767  10.891 -0.5709  0.5207 -0.5302
  166SOPE  H12A18629   5.328   1.729  10.786 -3.1874  0.2813 -0.4142
  166SOPE  H12B18630   5.320   1.681  10.961 -0.9418  1.7651  0.9672
  166SOPE   C1118631   5.467   1.822  10.930 -0.6929 -0.1628 -0.2867
  166SOPE  H11A18632   5.542   1.740  10.930 -1.8762 -1.2963  0.9368
  166SOPE  H11B18633   5.464   1.841  11.039  2.9202 -0.8234  0.0391
  166SOPE     P18634   5.667   1.967  10.819  0.2251 -0.3070  0.5252
  166SOPE   O1318635   5.761   1.900  10.914 -0.7695  0.2494 -0.8503
  166SOPE   O1418636   5.670   2.117  10.803 -0.0131 -0.6831  0.2994
  166SOPE   O1218637   5.514   1.938  10.861 -0.0214  0.6517  0.1923
  166SOPE   O1118638   5.686   1.914  10.673  0.8462  0.0113  0.3315
  166SOPE    C118639   5.579   1.916  10.572 -0.9166 -0.4889 -0.5018
  166SOPE    HA18640   5.581   2.017  10.526  1.0156  0.4419  1.4666
  166SOPE    HB18641   5.474   1.897  10.603 -1.3929  0.3877 -1.5335
  166SOPE    C218642   5.610   1.823  10.445 -0.8806  0.8082  0.1394
  166SOPE    HS18643   5.601   1.714  10.465 -1.9411  0.9907  0.7477
  166SOPE   O2118644   5.741   1.856  10.392  0.2697  0.4344 -0.0217
  166SOPE   C2118645   5.798   1.760  10.313 -0.4303  0.0196 -0.0434
  166SOPE   O2218646   5.763   1.644  10.315  0.3717 -0.1574  0.0105
  166SOPE   C2218647   5.913   1.817  10.232  0.0323  0.6771 -0.1313
  166SOPE   H2R18648   6.004   1.754  10.243  0.6451  0.8460 -3.1468
  166SOPE   H2S18649   5.950   1.910  10.280  0.9067 -0.6019  1.8064
  166SOPE    C318650   5.492   1.849  10.343 -0.8514  0.3967  0.1332
  166SOPE    HX18651   5.478   1.959  10.333 -1.0950  0.2761 -0.9760
  166SOPE    HY18652   5.404   1.806  10.395  1.3371 -3.0864  1.2900
  166SOPE   O3118653   5.510   1.782  10.218  0.0872 -0.0200 -0.2263
  166SOPE   C3118654   5.491   1.648  10.232  0.2065 -0.8929  0.2543
  166SOPE   O3218655   5.457   1.597  10.337  0.1065 -0.1892 -0.7690
  166SOPE   C3218656   5.514   1.570  10.114 -0.0410 -0.3108  0.0384
  166SOPE   H2X18657   5.552   1.469  10.138  1.9114  0.6282  1.1482
  166SOPE   H2Y18658   5.598   1.607  10.050 -0.8308 -1.6595 -1.8837
  166SOPE   C2318659   5.875   1.810  10.083 -0.0921  0.9364  0.3684
  166SOPE   H3R18660   5.829   1.711  10.060 -1.8123  1.9361 -0.6622
  166SOPE   H3S18661   5.964   1.807  10.016 -0.2317 -1.1833  0.1972
  166SOPE   C2418662   5.780   1.923  10.039  0.5996 -0.8706 -0.2259
  166SOPE   H4R18663   5.682   1.925  10.091 -0.0156 -0.5254 -1.3721
  166SOPE   H4S18664   5.836   2.015  10.069  0.6566 -1.5851  2.0632
  166SOPE   C2518665   5.745   1.932   9.888 -0.7084 -0.1039 -0.0014
  166SOPE   H5R18666   5.676   2.017   9.873 -0.7769  0.3494  2.4326
  166SOPE   H5S18667   5.831   1.946   9.818 -1.3218  0.4875 -0.6482
  166SOPE   C2618668   5.670   1.805   9.852  0.1705 -0.1942  0.0671
  166SOPE   H6R18669   5.739   1.718   9.858  0.7430  0.3343  1.5239
  166SOPE   H6S18670   5.582   1.799   9.920  0.2344  1.7998  0.3755
  166SOPE   C2718671   5.627   1.841   9.713 -0.2288 -0.2740  0.3554
  166SOPE   H7R18672   5.578   1.940   9.706  0.0034 -0.1944 -0.2435
  166SOPE   H7S18673   5.714   1.859   9.645 -0.1562 -0.7254  0.3225
  166SOPE   C2818674   5.564   1.728   9.629  1.5592 -0.1475 -0.7694
  166SOPE   H8R18675   5.495   1.682   9.703  3.0772 -3.3244 -1.1648
  166SOPE   H8S18676   5.496   1.764   9.548  1.2302 -1.2150 -0.9829
  166SOPE   C2918677   5.642   1.616   9.569  0.0182 -0.1047  0.0211
  166SOPE   H9118678   5.684   1.539   9.635 -4.0913 -1.9708  0.7594
  166SOPE  C21018679   5.655   1.594   9.440 -0.0345 -0.4664  0.7506
  166SOPE  H10118680   5.718   1.507   9.413  0.5613 -1.0002  3.5617
  166SOPE  C21118681   5.604   1.678   9.324  0.9221 -0.5270  0.4229
  166SOPE  H11R18682   5.589   1.785   9.351  2.3132 -0.1477 -0.2128
  166SOPE  H11S18683   5.509   1.633   9.290 -0.6298  2.5652  0.2700
  166SOPE  C21218684   5.702   1.667   9.205  0.6736 -0.1346 -0.8089
  166SOPE  H12R18685   5.681   1.577   9.143 -1.9001  0.7190 -1.2716
  166SOPE  H12S18686   5.806   1.678   9.243  0.0711  1.6946  0.4218
  166SOPE  C21318687   5.702   1.787   9.112  0.3428  0.3648  0.7619
  166SOPE  H13R18688   5.679   1.881   9.168  0.6590  0.9743 -0.1197
  166SOPE  H13S18689   5.608   1.778   9.052  0.7037  0.3504  0.1940
  166SOPE  C21418690   5.832   1.796   9.019 -0.1150  0.0059 -0.7922
  166SOPE  H14R18691   5.831   1.697   8.970 -0.9723 -1.8786  2.6954
  166SOPE  H14S18692   5.920   1.802   9.087 -1.7578  0.2607  1.4464
  166SOPE  C21518693   5.824   1.912   8.917  0.0838 -0.5291  0.1549
  166SOPE  H15R18694   5.809   1.998   8.985  1.0958 -0.1756 -0.0604
  166SOPE  H15S18695   5.733   1.895   8.856 -0.1954  2.7860 -0.4817
  166SOPE  C21618696   5.947   1.904   8.826 -0.0584  0.1497 -0.0318
  166SOPE  H16R18697   5.963   1.807   8.774 -0.7377  1.3159 -2.6176
  166SOPE  H16S18698   6.035   1.914   8.893 -0.3406 -3.5902  1.1088
  166SOPE  C21718699   5.944   1.992   8.704 -0.3841  0.4391 -0.2826
  166SOPE  H17R18700   5.859   1.969   8.635 -1.2439  1.1214  0.5159
  166SOPE  H17S18701   6.036   1.969   8.646 -1.4708 -1.5062 -1.3289
  166SOPE  C21818702   5.923   2.143   8.735  0.5318 -0.9089 -0.3152
  166SOPE  H18R18703   5.828   2.171   8.784 -0.5483 -0.8229 -2.3475
  166SOPE  H18S18704   5.915   2.204   8.642  0.6617 -0.3779  0.0203
  166SOPE  H18T18705   6.004   2.177   8.803 -1.3827  1.5738  0.8959
  166SOPE   C3318706   5.387   1.574  10.022  0.7140  0.0351 -0.3404
  166SOPE   H3X18707   5.371   1.677   9.985 -0.2875  0.5665  1.4757
  166SOPE   H3Y18708   5.299   1.529  10.073  0.1346  1.8783  0.3404
  166SOPE   C3418709   5.408   1.495   9.895 -0.9771 -0.4055 -0.5630
  166SOPE   H4X18710   5.400   1.385   9.900 -2.7689 -0.3103 -0.5896
  166SOPE   H4Y18711   5.500   1.518   9.838 -0.1151 -0.2342  0.8628
  166SOPE   C3518712   5.292   1.518   9.795 -0.2904 -0.2650  0.1545
  166SOPE   H5X18713   5.286   1.629   9.790 -2.1654 -0.1788  2.4377
  166SOPE   H5Y18714   5.202   1.483   9.850  0.1730 -1.2423  0.3104
  166SOPE   C3618715   5.314   1.452   9.654  0.2014  0.0880 -0.0640
  166SOPE   H6X18716   5.301   1.343   9.668 -2.8032  0.5535  1.4707
  166SOPE   H6Y18717   5.418   1.490   9.641  0.5313 -1.1651 -1.2732
  166SOPE   C3718718   5.214   1.504   9.550 -0.3269 -0.0092  0.3954
  166SOPE   H7X18719   5.196   1.607   9.589  0.1216  0.5681 -0.8434
  166SOPE   H7Y18720   5.125   1.437   9.552  0.7254 -1.6539 -2.3476
  166SOPE   C3818721   5.260   1.499   9.404 -0.3161  0.1982  0.1635
  166SOPE   H8X18722   5.331   1.581   9.380  1.6754 -1.7749 -1.0838
  166SOPE   H8Y18723   5.167   1.507   9.344 -1.1074 -5.0005  0.2245
  166SOPE   C3918724   5.332   1.372   9.356 -0.2238 -0.0503 -0.7960
  166SOPE   H9X18725   5.265   1.290   9.392 -0.0815 -0.6103 -1.7735
  166SOPE   H9Y18726   5.429   1.381   9.408  0.0554  1.9051 -1.5699
  166SOPE  C31018727   5.329   1.358   9.206 -0.1796 -0.2038  1.2378
  166SOPE  H10X18728   5.392   1.269   9.188  1.4752  0.7225  2.2288
  166SOPE  H10Y18729   5.376   1.444   9.154 -0.8498 -1.4880 -1.6931
  166SOPE  C31118730   5.188   1.326   9.149 -0.4764  0.0989 -0.5651
  166SOPE  H11X18731   5.112   1.406   9.165 -2.1574 -0.8623 -3.0224
  166SOPE  H11Y18732   5.138   1.242   9.202  0.9315  0.7126  1.8831
  166SOPE  C31218733   5.187   1.307   9.001  0.1038 -0.3581 -0.0724
  166SOPE  H12X18734   5.232   1.208   8.978  0.6631 -0.5613  1.7478
  166SOPE  H12Y18735   5.239   1.388   8.946 -1.2403  0.2123 -0.5424
  166SOPE  C31318736   5.035   1.307   8.958 -1.0017  0.1864 -0.4158
  166SOPE  H13X18737   5.013   1.404   8.908  0.2856  0.6094 -0.1988
  166SOPE  H13Y18738   4.968   1.297   9.045  2.1751  1.7467  2.4506
  166SOPE  C31418739   4.998   1.196   8.858 -0.7166 -0.0380 -0.8650
  166SOPE  H14X18740   5.000   1.108   8.925  2.8525  1.1806  0.8700
  166SOPE  H14Y18741   5.088   1.181   8.795  2.1511 -2.0142  3.3070
  166SOPE  C31518742   4.860   1.222   8.792  0.5228 -0.0439 -0.5072
  166SOPE  H15X18743   4.871   1.298   8.712 -3.7734  1.5230  0.1635
  166SOPE  H15Y18744   4.790   1.272   8.861 -0.8108 -1.4203 -0.8120
  166SOPE  C31618745   4.806   1.099   8.733  0.4292  0.1661  0.4897
  166SOPE  H16X18746   4.804   1.019   8.810 -0.2071  0.3475  0.6613
  166SOPE  H16Y18747   4.885   1.062   8.664 -0.6226  1.0230 -1.2192
  166SOPE  C31718748   4.677   1.118   8.657  0.1143  0.5138  0.1683
  166SOPE  H17X18749   4.706   1.142   8.552  1.7047  0.2791  0.5225
  166SOPE  H17Y18750   4.604   1.194   8.691  0.0997  0.5456  0.0660
  166SOPE  C31818751   4.594   0.981   8.649 -0.7350 -0.1502  0.4961
  166SOPE  H18X18752   4.500   1.012   8.598 -0.4826  1.2019  0.8082
  166SOPE  H18Y18753   4.565   0.942   8.748 -2.2151 -1.9678 -0.5926
  166SOPE  H18Z18754   4.639   0.895   8.595 -0.4321  1.0112 -1.1851
  167SOPE     N18755   6.584   6.745   5.852  0.0092  0.1721  0.7784
  167SOPE   HN118756   6.686   6.724   5.853 -0.0472 -0.1069  0.8817
  167SOPE   HN218757   6.534   6.687   5.781  2.2667 -0.0982 -0.6992
  167SOPE   HN318758   6.560   6.843   5.830  0.8581  0.3083  0.3889
  167SOPE   C1218759   6.527   6.699   5.988 -0.2295 -0.3726 -0.1281
  167SOPE  H12A18760   6.436   6.757   6.016  0.4928  0.0305  1.4556
  167SOPE  H12B18761   6.605   6.725   6.062 -2.2523  2.3463  1.2615
  167SOPE   C1118762   6.486   6.551   5.978 -0.7023 -0.2332  0.2102
  167SOPE  H11A18763   6.495   6.496   6.074 -0.8136  0.8225  0.8281
  167SOPE  H11B18764   6.563   6.492   5.922  0.6777 -0.0719  1.8488
  167SOPE     P18765   6.227   6.540   6.014  0.1188  0.4812 -0.4326
  167SOPE   O1318766   6.155   6.411   6.026  0.3646 -0.0105 -0.0712
  167SOPE   O1418767   6.151   6.662   5.967  0.5767 -0.0420  0.6467
  167SOPE   O1218768   6.356   6.533   5.927 -0.2007  0.5485  0.2065
  167SOPE   O1118769   6.289   6.584   6.158  0.3389 -0.2466 -0.1616
  167SOPE    C118770   6.307   6.493   6.266  0.0256 -0.2739 -0.6293
  167SOPE    HA18771   6.392   6.529   6.328 -0.5642  0.1942 -0.0822
  167SOPE    HB18772   6.323   6.390   6.228 -2.4024 -0.4405 -1.3253
  167SOPE    C218773   6.185   6.498   6.371  0.1113 -0.1103  0.0219
  167SOPE    HS18774   6.093   6.496   6.309 -0.5241 -0.7426  0.9665
  167SOPE   O2118775   6.195   6.619   6.443  0.7173 -0.0345  0.4371
  167SOPE   C2118776   6.077   6.672   6.478 -1.3803 -1.0782 -0.3905
  167SOPE   O2218777   5.966   6.627   6.461 -0.9526 -0.1523  0.0972
  167SOPE   C2218778   6.107   6.805   6.547  0.2579 -0.4016  0.8700
  167SOPE   H2R18779   6.047   6.874   6.485 -1.4485 -1.4362  1.2991
  167SOPE   H2S18780   6.214   6.836   6.548 -0.2635  1.6359 -0.4038
  167SOPE    C318781   6.187   6.374   6.467  0.5684  0.0824  0.4499
  167SOPE    HX18782   6.288   6.343   6.502  1.2305 -0.3460 -1.7083
  167SOPE    HY18783   6.162   6.286   6.404  1.0669  0.2629 -0.0070
  167SOPE   O3118784   6.089   6.388   6.576  0.0806  0.1016  0.5079
  167SOPE   C3118785   5.978   6.329   6.549  0.0307 -0.2716 -0.3229
  167SOPE   O3218786   5.945   6.286   6.442  0.4773 -0.1468  0.1540
  167SOPE   C3218787   5.883   6.322   6.665  0.0773 -0.2354 -0.8079
  167SOPE   H2X18788   5.794   6.258   6.649  0.9919 -2.1364  1.2650
  167SOPE   H2Y18789   5.848   6.426   6.686  0.9368 -0.0649 -0.1591
  167SOPE   C2318790   6.050   6.791   6.691 -0.2504 -0.3412 -0.1769
  167SOPE   H3R18791   6.110   6.706   6.730  2.0944  1.5121  0.4689
  167SOPE   H3S18792   5.941   6.769   6.684 -0.6633  1.7671 -0.9879
  167SOPE   C2418793   6.069   6.922   6.766  0.2983  0.5185 -0.4583
  167SOPE   H4R18794   6.179   6.927   6.785  0.5176 -0.9019 -1.2474
  167SOPE   H4S18795   6.037   7.007   6.702 -1.9620  0.1642  0.1186
  167SOPE   C2518796   5.979   6.921   6.895  0.8624 -0.1505  0.5298
  167SOPE   H5R18797   5.961   7.020   6.943 -1.4233  0.6720 -1.8086
  167SOPE   H5S18798   5.883   6.868   6.878 -0.4499  1.9618  0.9503
  167SOPE   C2618799   6.058   6.836   6.993 -0.1299 -0.1186  0.1045
  167SOPE   H6R18800   6.072   6.738   6.944  0.2321 -0.4285  0.7992
  167SOPE   H6S18801   6.160   6.882   6.993  0.3042 -1.0485 -0.4397
  167SOPE   C2718802   5.995   6.817   7.130 -0.2469 -0.6276 -0.0944
  167SOPE   H7R18803   5.986   6.924   7.158  2.1342 -0.1628 -0.8910
  167SOPE   H7S18804   5.892   6.777   7.118 -0.8907  0.5655  1.1556
  167SOPE   C2818805   6.078   6.743   7.234  0.1152 -0.5262 -0.3969
  167SOPE   H8R18806   6.176   6.786   7.261  0.5330 -0.7849 -1.4613
  167SOPE   H8S18807   6.020   6.742   7.329 -1.0414 -0.3168 -1.0822
  167SOPE   C2918808   6.103   6.603   7.198 -0.0216  0.4773 -0.0216
  167SOPE   H9118809   6.056   6.574   7.103 -0.7710 -1.6983  0.9643
  167SOPE  C21018810   6.172   6.516   7.271 -0.6693  0.4099  0.3802
  167SOPE  H10118811   6.200   6.421   7.223  1.0313  0.8523  0.4263
  167SOPE  C21118812   6.242   6.543   7.404 -0.1459  0.0410 -0.2343
  167SOPE  H11R18813   6.215   6.646   7.437  1.1544  0.6198 -0.9134
  167SOPE  H11S18814   6.351   6.526   7.398 -0.1557  0.2923 -1.5444
  167SOPE  C21218815   6.190   6.452   7.517 -0.3958 -0.2775 -0.0796
  167SOPE  H12R18816   6.256   6.470   7.604  0.1994 -0.3899 -0.4946
  167SOPE  H12S18817   6.206   6.347   7.485 -0.0329 -1.2843  3.1002
  167SOPE  C21318818   6.040   6.476   7.555 -0.3935  0.0821  0.0452
  167SOPE  H13R18819   5.982   6.463   7.461 -1.5684 -0.9493  0.8862
  167SOPE  H13S18820   6.032   6.579   7.595  1.6309  1.3357 -2.4739
  167SOPE  C21418821   5.987   6.374   7.653 -0.9596 -0.1814  0.0259
  167SOPE  H14R18822   5.995   6.271   7.613  0.5009 -0.0099 -0.1813
  167SOPE  H14S18823   5.880   6.386   7.680 -0.8143 -1.3048  1.2104
  167SOPE  C21518824   6.044   6.365   7.803 -0.5734 -0.4782  0.8705
  167SOPE  H15R18825   6.004   6.449   7.863 -2.5846 -0.5125 -0.3343
  167SOPE  H15S18826   6.155   6.371   7.812 -0.6510  1.8309  0.8494
  167SOPE  C21618827   6.015   6.237   7.872 -0.1553  0.1014 -0.2147
  167SOPE  H16R18828   6.070   6.153   7.824  1.1783  1.2508 -0.7876
  167SOPE  H16S18829   5.906   6.215   7.869 -0.2987  0.7118  0.2725
  167SOPE  C21718830   6.045   6.249   8.027 -0.3937  0.2730  0.7358
  167SOPE  H17R18831   6.155   6.264   8.029 -0.4062  0.4798  0.1799
  167SOPE  H17S18832   6.022   6.155   8.083 -0.8403  0.4876  0.9149
  167SOPE  C21818833   5.971   6.363   8.106 -0.9210  0.0027  0.2038
  167SOPE  H18R18834   5.992   6.354   8.215 -2.6921  1.0729  0.6792
  167SOPE  H18S18835   5.863   6.350   8.085 -1.1392  1.2329  0.4464
  167SOPE  H18T18836   6.001   6.464   8.069  0.0892 -0.2975  0.1812
  167SOPE   C3318837   5.965   6.266   6.783 -0.0547 -0.3852  0.0205
  167SOPE   H3X18838   6.035   6.348   6.810 -0.9934  0.5738 -0.3988
  167SOPE   H3Y18839   6.012   6.168   6.760 -3.6356 -2.2245 -0.1686
  167SOPE   C3418840   5.854   6.249   6.900  0.3170  0.6112  0.2556
  167SOPE   H4X18841   5.777   6.181   6.858  1.7972  0.0499 -1.7004
  167SOPE   H4Y18842   5.811   6.352   6.901 -6.5881 -1.7229  0.4062
  167SOPE   C3518843   5.904   6.192   7.028  0.4102 -0.0766  0.0374
  167SOPE   H5X18844   5.962   6.274   7.073 -0.4016 -0.7362  2.4568
  167SOPE   H5Y18845   5.975   6.115   6.989  0.4087 -0.6867  1.1903
  167SOPE   C3618846   5.797   6.148   7.127 -0.6170  0.7572  0.0058
  167SOPE   H6X18847   5.733   6.071   7.080  1.1517  0.1784 -1.6043
  167SOPE   H6Y18848   5.743   6.244   7.144 -1.7155  1.1193 -4.3147
  167SOPE   C3718849   5.868   6.099   7.247  0.4743  0.4782  0.4669
  167SOPE   H7X18850   5.947   6.169   7.281 -0.0262  1.4434 -0.2771
  167SOPE   H7Y18851   5.915   6.003   7.219 -0.2633 -0.1360  1.2866
  167SOPE   C3818852   5.772   6.051   7.357 -0.2236  0.1722 -0.7854
  167SOPE   H8X18853   5.716   5.958   7.334  0.9747 -0.5291 -0.8896
  167SOPE   H8Y18854   5.686   6.119   7.380 -2.0073 -1.7158 -1.5108
  167SOPE   C3918855   5.840   6.018   7.489 -0.2449 -0.6537 -0.1490
  167SOPE   H9X18856   5.897   6.106   7.527  1.0382 -1.9871  1.1405
  167SOPE   H9Y18857   5.909   5.932   7.483  0.5922 -0.0530  0.5687
  167SOPE  C31018858   5.738   6.004   7.603  0.2318  1.1590  0.7226
  167SOPE  H10X18859   5.657   5.936   7.568  0.1019  2.0633 -0.8240
  167SOPE  H10Y18860   5.692   6.103   7.623 -0.5536  0.8309  0.5883
  167SOPE  C31118861   5.817   5.948   7.725  0.1492 -0.1414  0.7323
  167SOPE  H11X18862   5.923   5.980   7.731  0.7769 -1.6209 -1.2444
  167SOPE  H11Y18863   5.818   5.839   7.703 -1.6756  0.0548 -0.5735
  167SOPE  C31218864   5.733   5.955   7.852 -1.0751 -0.0214  0.1754
  167SOPE  H12X18865   5.626   5.936   7.834 -1.7271  2.7545  0.6088
  167SOPE  H12Y18866   5.736   6.054   7.904  2.1894  0.6221 -0.9524
  167SOPE  C31318867   5.783   5.851   7.962 -0.1625 -0.3097 -0.0954
  167SOPE  H13X18868   5.890   5.831   7.938 -0.1103 -2.5694  1.7160
  167SOPE  H13Y18869   5.748   5.748   7.943  0.7088 -0.5224 -0.6402
  167SOPE  C31418870   5.764   5.901   8.106 -0.1438  0.0214  0.3221
  167SOPE  H14X18871   5.654   5.898   8.124 -0.6712  0.9866 -2.2485
  167SOPE  H14Y18872   5.799   6.006   8.118  1.2025 -0.2166 -1.2359
  167SOPE  C31518873   5.840   5.820   8.209 -0.5057  0.1185  0.8803
  167SOPE  H15X18874   5.835   5.716   8.171  0.8662  0.8536 -1.5126
  167SOPE  H15Y18875   5.774   5.832   8.298 -2.1452  1.6638 -0.4621
  167SOPE  C31618876   5.983   5.867   8.242  0.0573  0.0845 -0.6481
  167SOPE  H16X18877   5.970   5.977   8.252 -0.3047  0.1547 -1.8106
  167SOPE  H16Y18878   6.057   5.859   8.160 -0.5088 -1.5331 -1.0558
  167SOPE  C31718879   6.036   5.815   8.386 -0.2677 -0.2061 -0.0336
  167SOPE  H17X18880   5.954   5.846   8.454 -1.1113  1.0747 -1.5752
  167SOPE  H17Y18881   6.127   5.875   8.405 -1.2685  1.1256  0.7034
  167SOPE  C31818882   6.065   5.661   8.391  0.8590  0.6524  0.4846
  167SOPE  H18X18883   5.966   5.611   8.395 -0.0012  2.2495  0.3845
  167SOPE  H18Y18884   6.131   5.630   8.474 -0.1121 -1.0405  0.6641
  167SOPE  H18Z18885   6.117   5.627   8.298 -3.7023  0.5361 -2.3529
  168SOPE     N18886   0.706   3.461   6.022  0.3048  0.2202  0.1433
  168SOPE   HN118887   0.733   3.441   5.923  0.8048  1.8049 -0.0624
  168SOPE   HN218888   0.647   3.546   6.022 -0.8771 -0.5670  0.2301
  168SOPE   HN318889   0.787   3.482   6.082  1.0766 -1.2339 -0.3385
  168SOPE   C1218890   0.634   3.344   6.092 -0.1436  0.6321 -0.7595
  168SOPE  H12A18891   0.696   3.256   6.065 -0.4223  0.6068 -1.3288
  168SOPE  H12B18892   0.537   3.344   6.039 -0.3200 -0.3888 -0.4725
  168SOPE   C1118893   0.605   3.361   6.245  0.0632 -0.6351  0.9323
  168SOPE  H11A18894   0.532   3.282   6.276  1.2547 -1.1514  2.5662
  168SOPE  H11B18895   0.556   3.458   6.267  2.1363  0.5524  0.5495
  168SOPE     P18896   0.736   3.312   6.467 -0.1483  0.0911 -0.1234
  168SOPE   O1318897   0.769   3.435   6.546 -0.6974  0.5919  0.4758
  168SOPE   O1418898   0.833   3.201   6.475  0.6926 -0.4881 -0.1357
  168SOPE   O1218899   0.731   3.358   6.319  0.2243 -0.4761  0.2270
  168SOPE   O1118900   0.599   3.256   6.504 -0.4460  0.4336 -0.7627
  168SOPE    C118901   0.488   3.344   6.538 -0.4691  0.3876 -0.3669
  168SOPE    HA18902   0.391   3.307   6.499 -0.9410  1.3160 -0.0970
  168SOPE    HB18903   0.497   3.448   6.500 -0.1595  0.8630  0.9468
  168SOPE    C218904   0.462   3.341   6.692 -0.1527 -0.3677  0.1111
  168SOPE    HS18905   0.382   3.413   6.718  1.2355  0.5241  2.2069
  168SOPE   O2118906   0.575   3.374   6.775  0.3014  0.8717 -0.0989
  168SOPE   C2118907   0.602   3.503   6.778  0.5446  0.2631 -0.3811
  168SOPE   O2218908   0.553   3.588   6.701  0.8716 -0.2353  0.0658
  168SOPE   C2218909   0.691   3.534   6.901 -0.1014 -0.1123  0.4262
  168SOPE   H2R18910   0.618   3.567   6.978  1.5280  2.3988  1.0324
  168SOPE   H2S18911   0.750   3.622   6.869 -0.0664 -0.2218  0.1884
  168SOPE    C318912   0.419   3.201   6.719 -0.0875  0.4239  0.0101
  168SOPE    HX18913   0.506   3.132   6.724  0.1312  0.7841  2.5818
  168SOPE    HY18914   0.352   3.157   6.642 -0.1063  1.6848 -0.7200
  168SOPE   O3118915   0.362   3.192   6.851  0.1632 -0.3279  0.1167
  168SOPE   C3118916   0.295   3.075   6.871  0.6452 -0.2699 -0.3742
  168SOPE   O3218917   0.316   2.967   6.816 -0.2103 -0.8860 -0.0060
  168SOPE   C3218918   0.190   3.099   6.983 -0.0749  0.0477  0.3246
  168SOPE   H2X18919   0.242   3.066   7.075  1.4031  0.4991 -0.3075
  168SOPE   H2Y18920   0.114   3.023   6.955  0.3373 -0.6623  1.0674
  168SOPE   C2318921   0.778   3.418   6.955 -0.3133 -0.4428 -0.2538
  168SOPE   H3R18922   0.847   3.384   6.874 -2.3998 -0.5600 -2.0890
  168SOPE   H3S18923   0.713   3.332   6.981 -0.9329  0.0756 -0.0849
  168SOPE   C2418924   0.854   3.465   7.079 -0.3459 -0.2442  0.0390
  168SOPE   H4R18925   0.949   3.408   7.093 -1.1879 -1.2785  1.8240
  168SOPE   H4S18926   0.888   3.570   7.062  0.3717 -0.6022 -0.8094
  168SOPE   C2518927   0.769   3.468   7.205  0.4094  0.2890  0.3311
  168SOPE   H5R18928   0.696   3.552   7.206 -0.9491 -0.8414  0.2473
  168SOPE   H5S18929   0.710   3.374   7.214  2.1209 -0.8268  0.2026
  168SOPE   C2618930   0.852   3.488   7.338  0.5397 -0.1559 -0.1991
  168SOPE   H6R18931   0.911   3.581   7.325  1.5741 -0.9914 -1.8284
  168SOPE   H6S18932   0.771   3.507   7.412 -0.5953  0.9451 -1.6513
  168SOPE   C2718933   0.951   3.374   7.380  0.1655 -0.6712 -0.7787
  168SOPE   H7R18934   0.889   3.282   7.390 -0.8555  0.1565  1.3449
  168SOPE   H7S18935   1.022   3.349   7.299  0.4982 -0.3302 -0.5953
  168SOPE   C2818936   1.019   3.409   7.517  0.5853 -0.2244  0.4854
  168SOPE   H8R18937   1.122   3.368   7.515  1.3721  1.6365  1.0876
  168SOPE   H8S18938   1.045   3.517   7.516 -0.0874  0.0106 -2.9363
  168SOPE   C2918939   0.945   3.371   7.647 -0.0951  0.4098  0.0927
  168SOPE   H9118940   0.836   3.388   7.640 -0.1619  0.0282  0.2002
  168SOPE  C21018941   1.000   3.304   7.747  0.7236  0.4865 -0.0144
  168SOPE  H10118942   0.933   3.281   7.831  2.2208 -0.8013  0.8964
  168SOPE  C21118943   1.147   3.268   7.753 -0.2710  0.1443  0.2257
  168SOPE  H11R18944   1.192   3.247   7.654  0.3810  0.8661  0.3578
  168SOPE  H11S18945   1.173   3.177   7.812  0.6688 -0.0958 -0.5272
  168SOPE  C21218946   1.228   3.388   7.820  0.7389  0.1115 -0.6740
  168SOPE  H12R18947   1.224   3.482   7.760 -1.9763  1.5092  1.4630
  168SOPE  H12S18948   1.334   3.353   7.823  0.8815  0.5985  2.1166
  168SOPE  C21318949   1.197   3.415   7.970  0.3499  0.3551 -0.6051
  168SOPE  H13R18950   1.238   3.334   8.034 -0.7534  1.5310  1.6945
  168SOPE  H13S18951   1.089   3.431   7.994  0.5177 -0.3357  0.7045
  168SOPE  C21418952   1.275   3.539   8.026 -0.5244  0.2909 -0.4198
  168SOPE  H14R18953   1.256   3.557   8.134  1.4704 -0.3075  0.0877
  168SOPE  H14S18954   1.241   3.622   7.962  0.8803  1.1867 -0.0624
  168SOPE  C21518955   1.428   3.531   8.013 -0.0019 -0.0392  0.2626
  168SOPE  H15R18956   1.467   3.588   7.926  0.2722 -1.7096 -0.7617
  168SOPE  H15S18957   1.451   3.425   7.988 -1.9536 -0.2618 -0.7464
  168SOPE  C21618958   1.500   3.560   8.149 -0.1971  0.0708  0.3677
  168SOPE  H16R18959   1.609   3.545   8.135 -0.5001 -1.6552 -0.4146
  168SOPE  H16S18960   1.450   3.492   8.222  2.1240 -4.1735 -1.6313
  168SOPE  C21718961   1.478   3.701   8.209  0.7883  0.1576 -0.4758
  168SOPE  H17R18962   1.375   3.735   8.235  0.7902  0.9460 -1.4570
  168SOPE  H17S18963   1.514   3.776   8.135 -1.2066  0.6198 -1.0379
  168SOPE  C21818964   1.552   3.725   8.341 -0.2072  0.3653  0.5229
  168SOPE  H18R18965   1.661   3.718   8.320 -0.4978  0.1334 -1.0846
  168SOPE  H18S18966   1.534   3.644   8.415 -0.4127  0.2290  0.3272
  168SOPE  H18T18967   1.532   3.823   8.390 -0.2726  0.2686  0.6918
  168SOPE   C3318968   0.128   3.245   6.990 -0.5798  0.1023  0.1875
  168SOPE   H3X18969   0.090   3.282   6.893 -0.7928 -1.0372 -0.1814
  168SOPE   H3Y18970   0.212   3.311   7.019  0.7774 -0.7639 -1.5828
  168SOPE   C3418971   0.007   3.255   7.084  0.7596 -0.0653 -0.0956
  168SOPE   H4X18972  -0.079   3.197   7.044 -0.0572  2.3512 -2.1713
  168SOPE   H4Y18973  -0.039   3.357   7.082  0.8158 -0.0371 -2.1953
  168SOPE   C3518974   0.032   3.214   7.226 -0.1881  0.6414 -0.5271
  168SOPE   H5X18975   0.082   3.290   7.290 -3.4203  1.8623  0.7645
  168SOPE   H5Y18976   0.102   3.128   7.227 -1.7169 -0.6371  0.6707
  168SOPE   C3618977  -0.089   3.173   7.310  0.6223  0.2338  0.8240
  168SOPE   H6X18978  -0.143   3.083   7.273  1.6863  0.1638 -0.6027
  168SOPE   H6Y18979  -0.160   3.259   7.311  1.0476  0.6004  0.0533
  168SOPE   C3718980  -0.053   3.150   7.460 -0.7516  0.1130 -0.0703
  168SOPE   H7X18981   0.040   3.209   7.472  0.5535 -1.8002 -0.3208
  168SOPE   H7Y18982  -0.022   3.044   7.464  1.9518  0.6232 -2.8615
  168SOPE   C3818983  -0.153   3.190   7.573  0.1817  0.0646 -0.3239
  168SOPE   H8X18984  -0.242   3.126   7.554  0.7115 -0.8562  0.2325
  168SOPE   H8Y18985  -0.198   3.289   7.547  1.2692  0.2631 -1.5321
  168SOPE   C3918986  -0.109   3.166   7.714 -0.0429  0.0715 -0.2154
  168SOPE   H9X18987  -0.198   3.178   7.779 -0.2889  0.6136 -0.6449
  168SOPE   H9Y18988  -0.041   3.249   7.744 -1.6455  1.4717 -0.2870
  168SOPE  C31018989  -0.035   3.031   7.739 -0.6007 -0.7543 -0.5077
  168SOPE  H10X18990   0.067   3.048   7.698  0.3320  0.5997  2.1198
  168SOPE  H10Y18991  -0.091   2.946   7.695 -0.3565 -0.5259 -1.2789
  168SOPE  C31118992  -0.006   3.020   7.890  0.0608  0.7545 -0.3331
  168SOPE  H11X18993   0.016   3.124   7.922 -1.0095  1.3843 -1.5670
  168SOPE  H11Y18994   0.091   2.968   7.906 -0.9057 -0.5459  1.7827
  168SOPE  C31218995  -0.112   2.943   7.978  0.2206  0.4086  0.5878
  168SOPE  H12X18996  -0.127   2.842   7.934 -1.2556  0.8447  0.0425
  168SOPE  H12Y18997  -0.211   2.992   7.970  0.2274  0.1025 -3.0420
  168SOPE  C31318998  -0.055   2.931   8.120 -0.0753  0.8224  0.1773
  168SOPE  H13X18999  -0.035   3.029   8.169  0.6053 -0.2074  2.0569
  168SOPE  H13Y19000   0.043   2.881   8.105  1.5342  3.5790  0.7652
  168SOPE  C31419001  -0.140   2.857   8.223 -0.3499  0.0199 -0.6958
  168SOPE  H14X19002  -0.076   2.809   8.299 -2.0059  0.2464  0.9067
  168SOPE  H14Y19003  -0.183   2.770   8.170  2.6524 -1.2771 -1.1895
  168SOPE  C31519004  -0.249   2.934   8.293 -0.2061 -1.3487 -0.6735
  168SOPE  H15X19005  -0.331   2.940   8.217 -0.9576  0.0592  0.2024
  168SOPE  H15Y19006  -0.207   3.034   8.315 -0.0937 -1.2353 -1.3703
  168SOPE  C31619007  -0.307   2.884   8.423  0.0286  0.6262 -0.9614
  168SOPE  H16X19008  -0.238   2.906   8.507  0.1631  2.4164 -1.4937
  168SOPE  H16Y19009  -0.314   2.774   8.415  1.3937  0.3769  0.8247
  168SOPE  C31719010  -0.447   2.933   8.461 -0.6609  0.1798  0.2055
  168SOPE  H17X19011  -0.475   2.897   8.562  1.4059  2.4874  1.7190
  168SOPE  H17Y19012  -0.518   2.893   8.385  1.0490  1.3084 -2.1502
  168SOPE  C31819013  -0.464   3.079   8.463  0.0468 -0.7072 -0.7958
  168SOPE  H18X19014  -0.418   3.137   8.545 -0.8558  1.7080 -1.9129
  168SOPE  H18Y19015  -0.573   3.096   8.476  0.4415  0.5375  1.3173
  168SOPE  H18Z19016  -0.431   3.123   8.366 -1.7592 -0.1356 -1.1922
  169SOPE     N19017   0.764   3.683   6.423  0.4312 -0.1344  0.0071
  169SOPE   HN119018   0.680   3.735   6.390  1.1921  1.4366  0.4281
  169SOPE   HN219019   0.816   3.642   6.342 -1.1495  0.1061 -1.1918
  169SOPE   HN319020   0.734   3.602   6.481  0.7753  1.0326  1.8958
  169SOPE   C1219021   0.843   3.779   6.502 -0.5900  0.2489 -0.0319
  169SOPE  H12A19022   0.946   3.736   6.509 -1.2236 -1.1375  1.5993
  169SOPE  H12B19023   0.799   3.786   6.604  1.3486 -1.1167  0.9732
  169SOPE   C1119024   0.837   3.916   6.440 -0.5062 -0.4947 -0.4284
  169SOPE  H11A19025   0.882   3.907   6.338  1.2031 -0.3954  0.2821
  169SOPE  H11B19026   0.891   3.985   6.508  1.2075 -0.9698 -1.2509
  169SOPE     P19027   0.669   4.084   6.331 -0.0803 -0.1772  0.2609
  169SOPE   O1319028   0.526   4.076   6.291 -0.1200  0.1512 -0.5051
  169SOPE   O1419029   0.763   4.080   6.217  0.5715  0.3288 -0.1027
  169SOPE   O1219030   0.698   3.957   6.419  0.2327  0.6074  0.0505
  169SOPE   O1119031   0.691   4.207   6.431 -0.4650  0.4385 -0.1256
  169SOPE    C119032   0.580   4.265   6.494 -0.0022 -0.2198  0.1375
  169SOPE    HA19033   0.489   4.257   6.429  1.8824  1.4245 -2.9469
  169SOPE    HB19034   0.594   4.375   6.501 -1.9937  0.0827  0.0735
  169SOPE    C219035   0.541   4.197   6.623  0.3770 -0.2705  0.0251
  169SOPE    HS19036   0.580   4.094   6.610 -1.2780 -0.9199 -0.0875
  169SOPE   O2119037   0.394   4.190   6.639 -0.0335  0.8126  0.0186
  169SOPE   C2119038   0.353   4.095   6.720 -0.2613 -0.6192 -0.3256
  169SOPE   O2219039   0.415   3.990   6.745 -0.0893 -0.5073  0.0617
  169SOPE   C2219040   0.217   4.141   6.763 -0.0264 -0.7608  0.3460
  169SOPE   H2R19041   0.153   4.153   6.673  1.5148  1.0421 -0.5680
  169SOPE   H2S19042   0.244   4.238   6.810 -0.8346 -1.0517  1.4519
  169SOPE    C319043   0.602   4.270   6.752  0.2401 -0.0428  0.6598
  169SOPE    HX19044   0.539   4.361   6.762 -0.9699 -0.4648 -2.0784
  169SOPE    HY19045   0.706   4.289   6.719 -0.6974  0.7963 -2.1763
  169SOPE   O3119046   0.583   4.190   6.869 -0.0019 -0.0200 -0.1467
  169SOPE   C3119047   0.680   4.105   6.891  0.0361 -0.1321 -0.0177
  169SOPE   O3219048   0.755   4.056   6.813  0.2101 -0.6739  0.3330
  169SOPE   C3219049   0.659   4.054   7.037  0.5066 -0.2192  0.0333
  169SOPE   H2X19050   0.555   4.079   7.071 -0.3745  1.5418 -3.4936
  169SOPE   H2Y19051   0.724   4.130   7.086  1.5904 -0.5268 -0.8983
  169SOPE   C2319052   0.142   4.047   6.862 -0.3391  0.3379  0.6887
  169SOPE   H3R19053   0.196   4.042   6.959 -2.4350 -0.7606  1.8848
  169SOPE   H3S19054   0.147   3.943   6.823 -0.7112  0.5176  0.1434
  169SOPE   C2419055   0.003   4.094   6.896  0.4556  0.5228  0.0982
  169SOPE   H4R19056   0.015   4.181   6.964  0.6061  0.0363  0.7015
  169SOPE   H4S19057  -0.038   4.139   6.804  0.4481  2.5685  1.0584
  169SOPE   C2519058  -0.098   4.004   6.960 -0.0645  0.5815  0.2835
  169SOPE   H5R19059  -0.196   4.052   6.975 -0.6203  0.5706 -2.7473
  169SOPE   H5S19060  -0.122   3.909   6.908 -1.5558  0.9568  0.2473
  169SOPE   C2619061  -0.035   3.959   7.095 -0.4781 -0.6307  0.0176
  169SOPE   H6R19062  -0.085   3.864   7.122 -1.0888 -0.2357  0.2997
  169SOPE   H6S19063   0.068   3.923   7.077  0.2141  1.3985 -0.4349
  169SOPE   C2719064  -0.030   4.072   7.203  0.0260  0.5534 -0.0653
  169SOPE   H7R19065   0.028   4.159   7.165  2.4806 -1.3997 -1.0082
  169SOPE   H7S19066  -0.133   4.109   7.223 -1.1892 -1.8303 -1.5556
  169SOPE   C2819067   0.034   4.024   7.332  0.4533  0.6350  0.1354
  169SOPE   H8R19068   0.129   3.969   7.315 -0.1985 -0.5679  0.2740
  169SOPE   H8S19069   0.050   4.117   7.391 -4.2741  2.7977 -1.5215
  169SOPE   C2919070  -0.068   3.939   7.407 -0.8291 -0.4271 -0.7873
  169SOPE   H9119071  -0.072   3.838   7.365  2.5550 -0.0917 -2.2122
  169SOPE  C21019072  -0.133   3.969   7.522 -0.4137  0.1961 -0.1823
  169SOPE  H10119073  -0.196   3.893   7.570 -0.0181 -1.2381 -1.8231
  169SOPE  C21119074  -0.125   4.097   7.603 -0.3734  0.4443  0.1806
  169SOPE  H11R19075  -0.223   4.147   7.616 -0.8288 -0.0657 -1.1269
  169SOPE  H11S19076  -0.058   4.169   7.550 -0.4881  0.1019 -0.4406
  169SOPE  C21219077  -0.058   4.086   7.743  0.5102 -0.0477 -0.0427
  169SOPE  H12R19078   0.012   4.171   7.757 -0.8324  0.6786  3.1433
  169SOPE  H12S19079   0.008   3.997   7.750  0.2774 -0.1434  1.0859
  169SOPE  C21319080  -0.146   4.063   7.863 -0.8505  0.3208 -0.2664
  169SOPE  H13R19081  -0.214   3.976   7.845  0.1466 -0.7141  0.7877
  169SOPE  H13S19082  -0.208   4.152   7.886 -1.3179 -0.8477  3.8434
  169SOPE  C21419083  -0.058   4.027   7.986  0.4704  0.5501 -0.2265
  169SOPE  H14R19084  -0.002   4.118   8.018  0.4562  0.4396  0.1168
  169SOPE  H14S19085   0.007   3.942   7.956 -1.4279 -0.4922 -1.5781
  169SOPE  C21519086  -0.146   3.984   8.101  0.4916  0.3342 -0.9604
  169SOPE  H15R19087  -0.206   3.893   8.080 -0.7648  1.0220 -0.4393
  169SOPE  H15S19088  -0.218   4.057   8.143 -2.4134 -3.1951  0.7395
  169SOPE  C21619089  -0.060   3.949   8.224 -0.1960 -0.5557 -0.4297
  169SOPE  H16R19090   0.043   3.912   8.208 -0.0955 -0.0161 -1.0853
  169SOPE  H16S19091  -0.110   3.868   8.280  0.2980 -0.3640  0.2908
  169SOPE  C21719092  -0.056   4.076   8.314 -0.0534 -0.1336  0.0715
  169SOPE  H17R19093  -0.161   4.099   8.341 -0.2944 -0.0471 -0.9026
  169SOPE  H17S19094  -0.016   4.154   8.246 -0.3535 -0.9705 -1.1002
  169SOPE  C21819095   0.034   4.077   8.434  0.2935  0.4076  0.0322
  169SOPE  H18R19096   0.130   4.025   8.413  0.1287 -0.0099  0.2882
  169SOPE  H18S19097  -0.010   4.034   8.527 -0.4472  1.3109  0.1139
  169SOPE  H18T19098   0.060   4.181   8.460  0.3990  0.3041  0.3495
  169SOPE   C3319099   0.703   3.910   7.068 -0.0012 -0.7738  0.6949
  169SOPE   H3X19100   0.799   3.900   7.013  0.5426  0.2139  1.4190
  169SOPE   H3Y19101   0.625   3.848   7.020 -2.7100  1.5259  1.8140
  169SOPE   C3419102   0.708   3.871   7.219  0.1118 -0.1376  0.1809
  169SOPE   H4X19103   0.776   3.783   7.219  2.9860  1.9721 -0.4663
  169SOPE   H4Y19104   0.606   3.842   7.254  0.7286 -3.0308 -0.1709
  169SOPE   C3519105   0.775   3.971   7.301 -0.8473 -0.1589  0.5529
  169SOPE   H5X19106   0.703   4.049   7.334  0.2582  0.5832  1.2672
  169SOPE   H5Y19107   0.857   4.011   7.237 -0.6136  0.2385  1.0905
  169SOPE   C3619108   0.833   3.912   7.432  0.0003  0.2898  0.0598
  169SOPE   H6X19109   0.890   3.993   7.483 -0.5843  2.0581 -1.9248
  169SOPE   H6Y19110   0.902   3.828   7.410 -0.0760  0.6599 -1.8245
  169SOPE   C3719111   0.718   3.877   7.528 -0.3893  0.2905 -0.3058
  169SOPE   H7X19112   0.621   3.835   7.497 -1.2470  2.6955 -1.0965
  169SOPE   H7Y19113   0.683   3.981   7.550  0.0041  0.8856 -2.2940
  169SOPE   C3819114   0.771   3.811   7.654  1.3684 -0.1170 -0.0857
  169SOPE   H8X19115   0.803   3.708   7.626  0.2329 -0.6026  0.3456
  169SOPE   H8Y19116   0.861   3.867   7.689  1.5478 -0.7251  0.4354
  169SOPE   C3919117   0.669   3.804   7.769  0.1679  0.1857 -0.5883
  169SOPE   H9X19118   0.572   3.767   7.730  1.0897 -0.0979 -2.7532
  169SOPE   H9Y19119   0.642   3.904   7.809  0.2844 -0.1155  0.2443
  169SOPE  C31019120   0.717   3.719   7.887 -0.7545  0.0889  0.3713
  169SOPE  H10X19121   0.725   3.612   7.856  2.1285 -0.3588  2.2993
  169SOPE  H10Y19122   0.648   3.732   7.973 -0.6427 -1.8389  0.8070
  169SOPE  C31119123   0.855   3.751   7.950 -0.7012  0.9812 -1.4187
  169SOPE  H11X19124   0.930   3.759   7.869  0.3055  1.6204 -0.4591
  169SOPE  H11Y19125   0.881   3.667   8.019 -0.0304  1.6158 -0.8768
  169SOPE  C31219126   0.862   3.879   8.036  0.1859 -0.5822 -0.1835
  169SOPE  H12X19127   0.775   3.885   8.105  0.4650  0.1244  0.1163
  169SOPE  H12Y19128   0.843   3.968   7.972  0.4294  1.0172  1.8609
  169SOPE  C31319129   0.998   3.889   8.101 -0.2422 -0.1057 -0.7938
  169SOPE  H13X19130   1.076   3.910   8.024 -0.0931  0.9786 -0.3622
  169SOPE  H13Y19131   1.020   3.791   8.148 -2.1614  0.2474  0.9584
  169SOPE  C31419132   1.018   3.997   8.210 -0.4797  0.5009  1.3361
  169SOPE  H14X19133   0.956   3.956   8.292 -0.3858 -1.0764  0.6510
  169SOPE  H14Y19134   0.977   4.094   8.174  1.2411  0.8274  0.1479
  169SOPE  C31519135   1.161   4.023   8.261 -0.4483 -0.0745  0.2494
  169SOPE  H15X19136   1.217   4.066   8.175  0.3537  0.5628  1.0683
  169SOPE  H15Y19137   1.215   3.926   8.265  1.1008  0.7890  1.5552
  169SOPE  C31619138   1.176   4.108   8.397 -1.0751  0.3410  0.0061
  169SOPE  H16X19139   1.111   4.055   8.471 -1.1078 -1.3858 -1.1929
  169SOPE  H16Y19140   1.130   4.208   8.382 -1.7622 -0.2985 -2.5959
  169SOPE  C31719141   1.317   4.109   8.457 -0.1851 -0.4351  0.1244
  169SOPE  H17X19142   1.366   4.009   8.455 -2.1825 -1.4454 -1.8479
  169SOPE  H17Y19143   1.319   4.145   8.562 -1.4900  0.6489 -0.1924
  169SOPE  C31819144   1.418   4.198   8.380 -0.7373  0.2230  0.3094
  169SOPE  H18X19145   1.507   4.218   8.444 -0.5994  1.0779 -0.1330
  169SOPE  H18Y19146   1.372   4.297   8.361 -1.5014  0.0042  0.9506
  169SOPE  H18Z19147   1.441   4.150   8.283 -2.0441 -0.6459  0.4074
  170SOPE     N19148   3.743   5.147   6.021 -0.0198 -0.7387  0.2706
  170SOPE   HN119149   3.646   5.184   6.021  0.0283 -0.5243  2.2754
  170SOPE   HN219150   3.810   5.213   5.976 -1.7364  1.1688  0.3860
  170SOPE   HN319151   3.750   5.061   5.963 -0.0977  0.9136 -2.3436
  170SOPE   C1219152   3.777   5.132   6.169 -0.0118 -0.7664  0.4287
  170SOPE  H12A19153   3.681   5.127   6.225 -0.3980  0.7154 -0.0338
  170SOPE  H12B19154   3.827   5.228   6.197 -0.7805 -0.2505  0.0875
  170SOPE   C1119155   3.875   5.012   6.201  0.2024 -0.3693  0.4770
  170SOPE  H11A19156   3.841   4.921   6.147  1.1928 -2.4231  3.0864
  170SOPE  H11B19157   3.877   5.001   6.312 -0.0949 -0.2996  0.4893
  170SOPE     P19158   4.115   5.102   6.270  0.6630 -0.0956  0.1571
  170SOPE   O1319159   4.229   5.168   6.200 -0.3914  0.0142  0.2450
  170SOPE   O1419160   4.147   4.996   6.365  0.4655  0.1171  0.4359
  170SOPE   O1219161   4.012   5.044   6.162  0.3008 -0.1392  0.3490
  170SOPE   O1119162   4.026   5.209   6.345 -0.4078 -0.0251  0.3379
  170SOPE    C119163   4.080   5.343   6.360 -0.0945  0.1849  0.5657
  170SOPE    HA19164   4.085   5.403   6.267 -0.5191 -0.1470  0.3227
  170SOPE    HB19165   4.183   5.349   6.402  0.2382  0.8038 -0.3176
  170SOPE    C219166   3.983   5.437   6.444 -0.8981 -0.2591 -0.1068
  170SOPE    HS19167   3.953   5.529   6.388 -0.9582  0.8653  1.7004
  170SOPE   O2119168   4.045   5.456   6.567  0.5909 -0.4049 -0.1538
  170SOPE   C2119169   4.123   5.557   6.579  0.1470  0.5364 -0.3596
  170SOPE   O2219170   4.153   5.642   6.499 -0.2044 -0.1591 -0.6298
  170SOPE   C2219171   4.182   5.550   6.723  0.3181 -0.6794  0.3497
  170SOPE   H2R19172   4.094   5.539   6.791  1.0152  0.6287  1.5162
  170SOPE   H2S19173   4.235   5.647   6.732  1.0604 -0.9577 -0.8527
  170SOPE    C319174   3.853   5.355   6.468  0.0158  0.3457  0.4762
  170SOPE    HX19175   3.877   5.264   6.527  1.6764  0.3042 -0.2158
  170SOPE    HY19176   3.798   5.324   6.376  2.3189 -1.1390 -0.5103
  170SOPE   O3119177   3.770   5.447   6.541 -0.1583  0.0459 -0.2177
  170SOPE   C3119178   3.669   5.393   6.601 -0.1485  0.9025  0.5474
  170SOPE   O3219179   3.642   5.273   6.617  0.2645 -0.1016  0.2111
  170SOPE   C3219180   3.572   5.505   6.645 -0.2847 -1.0175  0.2016
  170SOPE   H2X19181   3.495   5.511   6.566 -0.0545 -0.4666  0.0155
  170SOPE   H2Y19182   3.624   5.603   6.654  0.4091 -1.2682 -0.9054
  170SOPE   C2319183   4.293   5.442   6.730  0.4080 -0.1733 -0.0794
  170SOPE   H3R19184   4.385   5.470   6.674  0.1945  1.3977  0.2991
  170SOPE   H3S19185   4.253   5.351   6.680  0.5594 -0.6103  0.5847
  170SOPE   C2419186   4.335   5.391   6.870 -0.8911  0.4341 -0.4883
  170SOPE   H4R19187   4.243   5.367   6.928  0.5105 -0.4564  1.4652
  170SOPE   H4S19188   4.397   5.300   6.859  0.6636  1.2811  0.6754
  170SOPE   C2519189   4.397   5.501   6.960  0.0599  0.8681 -0.0604
  170SOPE   H5R19190   4.497   5.530   6.923  1.0750 -0.2696  1.6764
  170SOPE   H5S19191   4.340   5.597   6.954 -0.2599  0.5815 -3.1213
  170SOPE   C2619192   4.413   5.457   7.106  0.0062 -1.1577  0.3046
  170SOPE   H6R19193   4.312   5.420   7.133 -1.6951  1.4867 -1.9872
  170SOPE   H6S19194   4.489   5.376   7.109  1.6596  0.3384  0.4232
  170SOPE   C2719195   4.457   5.564   7.202 -0.1502 -0.3474 -0.5409
  170SOPE   H7R19196   4.528   5.634   7.153  0.5900 -1.3774 -0.9721
  170SOPE   H7S19197   4.363   5.620   7.225 -0.2982 -0.7963 -0.0314
  170SOPE   C2819198   4.533   5.500   7.326  0.1393  0.5425  0.3852
  170SOPE   H8R19199   4.459   5.451   7.392  0.4083  1.3587  1.3155
  170SOPE   H8S19200   4.602   5.419   7.296  0.3425  0.1343  1.9007
  170SOPE   C2919201   4.599   5.608   7.392  0.0699 -0.2384 -0.0771
  170SOPE   H9119202   4.704   5.628   7.365  0.0989 -0.4900 -0.1481
  170SOPE  C21019203   4.546   5.683   7.493  0.1817  0.7446  0.0695
  170SOPE  H10119204   4.605   5.753   7.554 -0.1611  0.5543  0.6315
  170SOPE  C21119205   4.411   5.666   7.551  0.5971 -0.1591 -0.6694
  170SOPE  H11R19206   4.337   5.601   7.499  0.5570 -0.8305  0.1896
  170SOPE  H11S19207   4.370   5.769   7.548  0.8126 -0.0093  0.7969
  170SOPE  C21219208   4.424   5.611   7.697  0.3155 -0.4124 -0.0043
  170SOPE  H12R19209   4.483   5.517   7.707  0.6210 -0.1671  0.5314
  170SOPE  H12S19210   4.319   5.591   7.728 -0.0328  0.7470 -0.3917
  170SOPE  C21319211   4.473   5.732   7.783 -0.7010  0.5235  0.5518
  170SOPE  H13R19212   4.389   5.803   7.798 -0.3434  0.6260  2.3683
  170SOPE  H13S19213   4.565   5.774   7.736  0.8255 -1.7152  1.3497
  170SOPE  C21419214   4.509   5.697   7.930 -0.1365  0.1361 -0.2799
  170SOPE  H14R19215   4.586   5.617   7.941 -0.9786 -0.6542 -0.0309
  170SOPE  H14S19216   4.426   5.654   7.990 -0.6107  1.6119  0.1684
  170SOPE  C21519217   4.550   5.824   8.012 -0.0476  0.0970 -0.2430
  170SOPE  H15R19218   4.598   5.794   8.108  0.0551 -0.1169 -0.3610
  170SOPE  H15S19219   4.468   5.892   8.044 -1.4239 -1.2381 -0.8182
  170SOPE  C21619220   4.650   5.923   7.949 -0.5038 -0.7659  0.3339
  170SOPE  H16R19221   4.621   5.949   7.845  0.0079  1.1781  0.6335
  170SOPE  H16S19222   4.748   5.874   7.928  0.7034  1.9290 -0.7787
  170SOPE  C21719223   4.673   6.052   8.029 -0.1106  0.3762  0.0101
  170SOPE  H17R19224   4.577   6.108   8.033 -0.4637 -0.2839  1.1182
  170SOPE  H17S19225   4.736   6.120   7.969  0.2734  0.6752  0.7402
  170SOPE  C21819226   4.705   6.042   8.174 -0.4261  0.2332 -0.0148
  170SOPE  H18R19227   4.627   5.977   8.220 -1.6102  0.4045 -1.6721
  170SOPE  H18S19228   4.699   6.140   8.224  1.7431  0.7058 -0.5894
  170SOPE  H18T19229   4.806   6.004   8.199 -0.2539 -0.0453 -1.1049
  170SOPE   C3319230   3.493   5.486   6.778  0.0669  0.1881 -0.8622
  170SOPE   H3X19231   3.440   5.389   6.763  1.4391 -0.6453 -0.4761
  170SOPE   H3Y19232   3.410   5.559   6.795 -2.4074 -2.9194  1.9969
  170SOPE   C3419233   3.569   5.485   6.912 -0.9561  0.5505  0.8560
  170SOPE   H4X19234   3.610   5.587   6.930  1.7055 -0.4825  1.1829
  170SOPE   H4Y19235   3.657   5.417   6.922 -1.6417 -0.0654  3.3931
  170SOPE   C3519236   3.479   5.446   7.033  0.0468  0.4993  0.1104
  170SOPE   H5X19237   3.456   5.337   7.030 -0.8452  0.6471  0.9139
  170SOPE   H5Y19238   3.389   5.507   7.014 -0.1501 -0.3843 -2.0285
  170SOPE   C3619239   3.543   5.497   7.161 -0.3298 -0.3575 -0.5139
  170SOPE   H6X19240   3.554   5.605   7.139 -0.4291 -0.3868 -0.7060
  170SOPE   H6Y19241   3.648   5.459   7.164 -0.3783 -0.6948 -2.1027
  170SOPE   C3719242   3.457   5.470   7.286 -0.4346  0.1598 -0.9911
  170SOPE   H7X19243   3.425   5.364   7.298  0.6940  0.0922  2.2098
  170SOPE   H7Y19244   3.371   5.539   7.272 -0.7399 -0.1353 -0.5805
  170SOPE   C3819245   3.531   5.511   7.412 -0.0624  0.8010  0.0086
  170SOPE   H8X19246   3.589   5.604   7.391  0.3647  0.7128  0.7752
  170SOPE   H8Y19247   3.606   5.430   7.419 -0.9763 -0.1964 -1.2810
  170SOPE   C3919248   3.456   5.538   7.540 -0.2375  0.3182 -0.1878
  170SOPE   H9X19249   3.378   5.463   7.565  0.3647  0.1078  1.1735
  170SOPE   H9Y19250   3.403   5.636   7.533 -3.6934 -1.2689  1.3843
  170SOPE  C31019251   3.546   5.547   7.654 -0.0699 -0.1896 -0.3718
  170SOPE  H10X19252   3.627   5.622   7.642  1.6563 -1.5748  2.0350
  170SOPE  H10Y19253   3.598   5.450   7.662 -0.4933 -0.4561 -0.7869
  170SOPE  C31119254   3.477   5.588   7.787  1.0623 -0.3851  0.2270
  170SOPE  H11X19255   3.391   5.517   7.797 -0.4263  1.0689 -1.5678
  170SOPE  H11Y19256   3.433   5.690   7.785 -0.9948 -1.1398  2.2013
  170SOPE  C31219257   3.569   5.564   7.900 -0.7199 -0.3239  0.0781
  170SOPE  H12X19258   3.649   5.641   7.891 -1.4516  0.3657 -0.6164
  170SOPE  H12Y19259   3.620   5.467   7.884  0.9834 -0.2354  3.8178
  170SOPE  C31319260   3.500   5.558   8.034  0.4379  0.6853 -0.0943
  170SOPE  H13X19261   3.426   5.476   8.026  1.1353 -0.0699  0.9108
  170SOPE  H13Y19262   3.438   5.646   8.058 -0.5235 -0.9472  4.4589
  170SOPE  C31419263   3.598   5.545   8.155 -0.0512 -0.5430  0.5167
  170SOPE  H14X19264   3.533   5.558   8.245 -2.1662 -0.4800 -0.9441
  170SOPE  H14Y19265   3.683   5.616   8.154  3.4650 -4.1553 -4.5954
  170SOPE  C31519266   3.659   5.411   8.168 -0.5676 -0.1039  0.4763
  170SOPE  H15X19267   3.711   5.374   8.076 -0.5814  0.8519  0.0766
  170SOPE  H15Y19268   3.584   5.331   8.188 -0.0165 -0.6452  0.4240
  170SOPE  C31619269   3.745   5.395   8.292 -0.7336  0.0947 -0.8922
  170SOPE  H16X19270   3.680   5.409   8.381 -0.1079 -2.1415 -0.0311
  170SOPE  H16Y19271   3.816   5.481   8.288  0.3374 -0.8050 -2.3731
  170SOPE  C31719272   3.825   5.263   8.303 -0.3548  0.4411 -0.1778
  170SOPE  H17X19273   3.897   5.246   8.220 -1.4135 -2.7297 -0.5812
  170SOPE  H17Y19274   3.743   5.188   8.294  0.4343 -0.5816  0.9024
  170SOPE  C31819275   3.898   5.252   8.442  0.2940 -0.1696 -0.4948
  170SOPE  H18X19276   3.969   5.333   8.468 -1.9253  2.1053 -1.1238
  170SOPE  H18Y19277   3.948   5.153   8.430  1.4307  0.6178 -2.9724
  170SOPE  H18Z19278   3.817   5.248   8.518  1.0921 -0.3790  0.3639
  171SOPE     N19279   2.320   5.456   6.219 -0.0468  0.0045  1.1141
  171SOPE   HN119280   2.332   5.560   6.221 -1.3093  0.2159  4.3929
  171SOPE   HN219281   2.264   5.433   6.135  0.3925 -0.4794  0.9524
  171SOPE   HN319282   2.264   5.437   6.305  0.2250 -0.0244  1.2870
  171SOPE   C1219283   2.446   5.374   6.233 -0.1639 -0.1022 -0.1789
  171SOPE  H12A19284   2.483   5.408   6.332  2.6364  1.7513 -1.7408
  171SOPE  H12B19285   2.521   5.397   6.155  1.1874  0.2151  1.1725
  171SOPE   C1119286   2.418   5.224   6.260  0.3534  0.0129 -0.2024
  171SOPE  H11A19287   2.374   5.207   6.361 -0.1752  0.8089 -0.2891
  171SOPE  H11B19288   2.520   5.179   6.254  0.2813  0.0391 -2.4850
  171SOPE     P19289   2.187   5.165   6.136 -0.1916  0.3412  0.4086
  171SOPE   O1319290   2.149   5.027   6.084  0.0971 -0.2689  0.1519
  171SOPE   O1419291   2.162   5.278   6.046 -0.2926 -0.1265  0.6089
  171SOPE   O1219292   2.352   5.156   6.149  0.2725 -0.6499 -0.3298
  171SOPE   O1119293   2.124   5.197   6.274 -0.1616  0.2683  0.5453
  171SOPE    C119294   1.979   5.207   6.282  0.6064  0.1218 -1.0672
  171SOPE    HA19295   1.932   5.117   6.328 -0.8153  0.6688 -1.3929
  171SOPE    HB19296   1.928   5.222   6.185  1.0539 -2.4300 -1.7722
  171SOPE    C219297   1.932   5.322   6.376 -0.1467  0.0046 -1.1096
  171SOPE    HS19298   1.956   5.415   6.322  2.2754  0.4346  0.5104
  171SOPE   O2119299   1.991   5.309   6.508  0.2462  0.6029 -0.4935
  171SOPE   C2119300   2.114   5.344   6.536  0.2328  0.3008 -0.6618
  171SOPE   O2219301   2.191   5.403   6.465  0.1718 -0.6971 -0.1290
  171SOPE   C2219302   2.146   5.313   6.679 -0.0228 -0.0296  0.1341
  171SOPE   H2R19303   2.159   5.203   6.690 -1.8384 -0.6681 -3.0642
  171SOPE   H2S19304   2.064   5.364   6.735 -1.8747  0.6407 -2.9893
  171SOPE    C319305   1.776   5.322   6.398 -0.1823  0.0663  0.3578
  171SOPE    HX19306   1.745   5.224   6.440  1.4327 -0.5469  0.1741
  171SOPE    HY19307   1.736   5.314   6.294 -2.2745 -0.4785  1.1538
  171SOPE   O3119308   1.737   5.439   6.479 -0.4699  0.1027  0.3297
  171SOPE   C3119309   1.733   5.417   6.612 -0.1492 -0.7616  0.3275
  171SOPE   O3219310   1.749   5.309   6.667  0.4728  0.1640 -0.3676
  171SOPE   C3219311   1.722   5.556   6.684  0.6980  0.6476 -0.2096
  171SOPE   H2X19312   1.649   5.613   6.623  2.0961 -0.8594 -3.5582
  171SOPE   H2Y19313   1.823   5.602   6.678  0.3439  1.4636 -0.1085
  171SOPE   C2319314   2.282   5.369   6.723 -0.1914 -0.1951  0.1476
  171SOPE   H3R19315   2.285   5.470   6.675 -0.1145  0.3885  1.3432
  171SOPE   H3S19316   2.364   5.305   6.685  0.8303  1.0272  0.2024
  171SOPE   C2419317   2.285   5.391   6.878  0.6977 -0.0665 -0.2363
  171SOPE   H4R19318   2.252   5.295   6.922  2.8175 -0.1791  1.2113
  171SOPE   H4S19319   2.389   5.412   6.911  1.4596  0.2788 -2.6342
  171SOPE   C2519320   2.196   5.506   6.928  0.4676  0.5967 -0.3833
  171SOPE   H5R19321   2.240   5.600   6.887  1.1403 -0.1902 -1.5075
  171SOPE   H5S19322   2.090   5.491   6.900  0.3565 -0.7138  0.6528
  171SOPE   C2619323   2.201   5.514   7.086 -0.1761  0.6453  0.3201
  171SOPE   H6R19324   2.223   5.411   7.123 -1.1256  0.5714  0.7133
  171SOPE   H6S19325   2.297   5.560   7.119 -0.0066 -0.8204  2.0147
  171SOPE   C2719326   2.083   5.582   7.146 -0.6362 -0.1073  0.5229
  171SOPE   H7R19327   2.069   5.674   7.086  0.3537 -1.1345 -1.3650
  171SOPE   H7S19328   1.994   5.515   7.150  0.1359 -1.1550  0.6168
  171SOPE   C2819329   2.107   5.623   7.292 -0.6200 -0.2674  0.0237
  171SOPE   H8R19330   2.188   5.698   7.306  0.8689 -2.0149  1.3615
  171SOPE   H8S19331   2.010   5.663   7.328 -0.3584 -0.2400  0.7300
  171SOPE   C2919332   2.147   5.502   7.371  0.2742  0.5678 -0.0393
  171SOPE   H9119333   2.097   5.412   7.333 -0.9375  0.5755  1.4609
  171SOPE  C21019334   2.223   5.501   7.488  0.4147  0.5514 -0.2284
  171SOPE  H10119335   2.238   5.409   7.545  0.6051  1.0885  0.5960
  171SOPE  C21119336   2.284   5.620   7.557  0.1847 -0.1672  0.7794
  171SOPE  H11R19337   2.239   5.716   7.523  0.6919 -0.6978 -1.5181
  171SOPE  H11S19338   2.394   5.631   7.545 -0.1692  1.2053 -1.9002
  171SOPE  C21219339   2.261   5.611   7.712  0.1523 -0.5303  0.1224
  171SOPE  H12R19340   2.337   5.539   7.749  0.5241  0.4878  1.3952
  171SOPE  H12S19341   2.159   5.570   7.731  0.4518 -3.2613 -3.1580
  171SOPE  C21319342   2.282   5.744   7.787 -0.0138 -0.1626 -0.4342
  171SOPE  H13R19343   2.224   5.820   7.731  1.1521  0.0950 -1.3194
  171SOPE  H13S19344   2.388   5.769   7.765  0.5677 -2.1665 -0.1404
  171SOPE  C21419345   2.246   5.748   7.932 -0.0185  1.3022 -1.0926
  171SOPE  H14R19346   2.269   5.653   7.986  0.0779  2.4553  0.9919
  171SOPE  H14S19347   2.138   5.762   7.953  0.1434  1.7504 -0.5406
  171SOPE  C21519348   2.316   5.858   8.009  0.5796 -0.1423  0.4422
  171SOPE  H15R19349   2.295   5.960   7.973  1.4159 -0.0908  0.0680
  171SOPE  H15S19350   2.425   5.836   7.999  0.8454  0.8648  0.9841
  171SOPE  C21619351   2.288   5.852   8.157  0.5629  0.2441 -0.1980
  171SOPE  H16R19352   2.371   5.902   8.213 -1.0847 -1.1242  3.8305
  171SOPE  H16S19353   2.298   5.747   8.193  0.4155  1.5654  4.3018
  171SOPE  C21719354   2.154   5.909   8.193  0.0377 -0.1024  0.2121
  171SOPE  H17R19355   2.127   5.881   8.297 -0.8739 -2.4504 -0.5894
  171SOPE  H17S19356   2.074   5.866   8.127  0.0509  1.2162 -0.7050
  171SOPE  C21819357   2.146   6.064   8.185 -0.3841  0.2258  0.0727
  171SOPE  H18R19358   2.040   6.088   8.207 -0.3852 -1.2292  1.8570
  171SOPE  H18S19359   2.182   6.107   8.089  1.6495 -0.6691  0.3702
  171SOPE  H18T19360   2.214   6.108   8.263  0.7010  1.1225 -1.3266
  171SOPE   C3319361   1.672   5.563   6.833  0.1105  0.6986  0.4266
  171SOPE   H3X19362   1.565   5.531   6.833 -0.0824  1.2932 -1.0031
  171SOPE   H3Y19363   1.673   5.665   6.878  2.7619 -0.6941  4.0534
  171SOPE   C3419364   1.743   5.484   6.939  0.4287  0.7918 -0.5116
  171SOPE   H4X19365   1.852   5.506   6.932  0.7088  0.7014  2.4208
  171SOPE   H4Y19366   1.735   5.376   6.914 -0.7551  0.8950 -0.6229
  171SOPE   C3519367   1.691   5.509   7.080 -0.4684 -0.4095  0.2630
  171SOPE   H5X19368   1.697   5.616   7.109 -0.9086 -0.4981  0.7054
  171SOPE   H5Y19369   1.754   5.459   7.157 -1.1496  1.4040  2.1004
  171SOPE   C3619370   1.549   5.462   7.107 -0.2950 -0.5454 -0.4390
  171SOPE   H6X19371   1.532   5.364   7.058  0.6334 -1.9181  1.8077
  171SOPE   H6Y19372   1.489   5.542   7.058 -0.5450 -0.7623 -0.4891
  171SOPE   C3719373   1.505   5.455   7.257 -0.1047  0.2868 -0.3591
  171SOPE   H7X19374   1.522   5.552   7.308  2.5046 -1.0383  1.5022
  171SOPE   H7Y19375   1.569   5.377   7.303  0.9040  0.9223 -0.6481
  171SOPE   C3819376   1.360   5.410   7.265 -0.8637 -0.0504  0.0381
  171SOPE   H8X19377   1.335   5.329   7.193  0.2050  0.4708 -0.9497
  171SOPE   H8Y19378   1.299   5.497   7.231  1.3552  1.6360  0.0810
  171SOPE   C3919379   1.335   5.360   7.413  0.4064 -0.3609  0.0725
  171SOPE   H9X19380   1.348   5.450   7.476 -1.2399 -0.6293  0.8373
  171SOPE   H9Y19381   1.412   5.282   7.430 -0.2631 -0.9819  0.3016
  171SOPE  C31019382   1.197   5.297   7.427  0.0535  0.1750 -0.4450
  171SOPE  H10X19383   1.194   5.230   7.339 -2.1078  1.8581 -1.7735
  171SOPE  H10Y19384   1.128   5.379   7.400 -0.0629 -0.1745 -1.2202
  171SOPE  C31119385   1.172   5.231   7.566  0.1745 -0.3686  0.7009
  171SOPE  H11X19386   1.170   5.321   7.631 -1.5324  0.1802 -0.0511
  171SOPE  H11Y19387   1.254   5.160   7.589 -0.9467 -0.7724  3.9892
  171SOPE  C31219388   1.041   5.165   7.589  0.1950  0.2558 -0.0199
  171SOPE  H12X19389   1.039   5.076   7.522  1.9389  0.8936 -0.9958
  171SOPE  H12Y19390   0.962   5.226   7.541 -1.8332 -1.2014  1.3046
  171SOPE  C31319391   0.998   5.134   7.735 -0.6916 -0.5207 -0.1093
  171SOPE  H13X19392   0.958   5.231   7.773  0.7823 -0.2526  0.8853
  171SOPE  H13Y19393   1.077   5.105   7.808 -1.7781 -1.9079  0.5501
  171SOPE  C31419394   0.901   5.024   7.743 -0.3407  0.6334  0.4413
  171SOPE  H14X19395   0.954   4.930   7.716 -1.8777  0.0359 -0.6363
  171SOPE  H14Y19396   0.825   5.053   7.668 -0.4929  2.3505  1.2206
  171SOPE  C31519397   0.841   5.001   7.883 -0.5611 -0.0662  1.1667
  171SOPE  H15X19398   0.741   4.952   7.875 -0.5875  0.0493  0.7769
  171SOPE  H15Y19399   0.826   5.107   7.910 -0.5425  0.8529 -1.9815
  171SOPE  C31619400   0.929   4.910   7.967  0.1667  0.6724 -1.2697
  171SOPE  H16X19401   1.028   4.956   7.983 -0.7489  1.8820  1.8467
  171SOPE  H16Y19402   0.920   4.811   7.917 -2.4649  0.1038  0.1041
  171SOPE  C31719403   0.878   4.894   8.115 -0.0706 -0.9064 -0.6633
  171SOPE  H17X19404   0.878   4.999   8.153  1.7059 -0.3888 -1.9442
  171SOPE  H17Y19405   0.948   4.830   8.173  1.7690  1.5334  0.0347
  171SOPE  C31819406   0.734   4.847   8.119  0.1133  0.1803 -0.8709
  171SOPE  H18X19407   0.716   4.753   8.062 -2.2798 -0.0015  0.0659
  171SOPE  H18Y19408   0.665   4.924   8.079 -0.8458 -0.5355 -0.6491
  171SOPE  H18Z19409   0.698   4.828   8.223 -0.5881 -2.4968 -1.5156
  172SOPE     N19410   3.632   2.904   6.354 -0.1424 -0.3063  0.1475
  172SOPE   HN119411   3.690   2.819   6.362  2.3329  1.2005 -0.5932
  172SOPE   HN219412   3.629   2.929   6.253  0.8603 -1.4499 -0.1906
  172SOPE   HN319413   3.684   2.976   6.407 -1.9915  0.2341  1.3224
  172SOPE   C1219414   3.501   2.882   6.419 -0.0421 -0.1565 -0.2293
  172SOPE  H12A19415   3.431   2.829   6.350 -0.6152  0.3737 -0.0645
  172SOPE  H12B19416   3.461   2.976   6.461 -0.9406  0.2760 -1.9784
  172SOPE   C1119417   3.535   2.785   6.531  0.0113 -0.2057 -0.2808
  172SOPE  H11A19418   3.443   2.762   6.590 -0.4052 -0.6812 -1.0880
  172SOPE  H11B19419   3.607   2.830   6.602 -1.6756  0.2288  1.2462
  172SOPE     P19420   3.729   2.604   6.504 -0.4419  0.0122  0.1115
  172SOPE   O1319421   3.834   2.688   6.434 -0.0081 -0.8301 -0.0358
  172SOPE   O1419422   3.738   2.457   6.485  0.2403  0.1640 -0.4051
  172SOPE   O1219423   3.580   2.665   6.469 -0.4464 -0.7000 -0.9948
  172SOPE   O1119424   3.739   2.625   6.665  0.6301 -0.2378  0.2354
  172SOPE    C119425   3.840   2.713   6.713 -0.3369 -0.0354  0.3957
  172SOPE    HA19426   3.814   2.819   6.689 -1.0268 -0.3071 -0.0810
  172SOPE    HB19427   3.940   2.695   6.666 -0.6080  1.5622 -0.8847
  172SOPE    C219428   3.857   2.698   6.868 -0.0993  0.6645  0.3014
  172SOPE    HS19429   3.954   2.744   6.896 -0.3521  2.0326 -0.9935
  172SOPE   O2119430   3.856   2.558   6.900 -0.0159 -0.4789  0.4107
  172SOPE   C2119431   3.953   2.482   6.850 -1.3943 -0.2772  1.4579
  172SOPE   O2219432   4.061   2.527   6.805  0.2764  0.2133 -0.1920
  172SOPE   C2219433   3.898   2.337   6.838 -0.0552 -0.0549 -0.3448
  172SOPE   H2R19434   3.824   2.316   6.758  1.0834 -0.6571 -1.2610
  172SOPE   H2S19435   3.844   2.324   6.934  2.2516 -0.6640  0.9403
  172SOPE    C319436   3.748   2.772   6.944 -0.0121 -0.6291  0.3527
  172SOPE    HX19437   3.652   2.725   6.914  0.3142 -1.4951  0.6302
  172SOPE    HY19438   3.741   2.878   6.909 -1.2312 -0.0966  2.0780
  172SOPE   O3119439   3.756   2.755   7.083  0.0738 -0.3528 -0.0836
  172SOPE   C3119440   3.850   2.824   7.141  0.3749  0.0199 -0.3826
  172SOPE   O3219441   3.909   2.917   7.096 -0.1248 -0.3321  0.3617
  172SOPE   C3219442   3.862   2.775   7.284 -0.5200 -0.2178 -0.2878
  172SOPE   H2X19443   3.971   2.769   7.306 -0.7231  0.4579  1.0201
  172SOPE   H2Y19444   3.832   2.668   7.277  0.6725 -0.5662 -0.4501
  172SOPE   C2319445   4.018   2.236   6.823 -0.2023  0.1780  0.2240
  172SOPE   H3R19446   4.062   2.264   6.725 -1.1227  1.0470  0.0514
  172SOPE   H3S19447   3.982   2.131   6.817  0.5587 -0.0444 -0.6890
  172SOPE   C2419448   4.125   2.226   6.938 -0.1871  0.4609 -0.4093
  172SOPE   H4R19449   4.215   2.170   6.904 -1.3140 -0.1703 -2.5429
  172SOPE   H4S19450   4.159   2.327   6.970 -0.0100  1.1752 -2.6346
  172SOPE   C2519451   4.059   2.141   7.052 -0.5920  0.0579 -0.1272
  172SOPE   H5R19452   3.958   2.173   7.083 -0.8597  0.8916 -1.7762
  172SOPE   H5S19453   4.045   2.039   7.011  1.9748  0.3601 -2.0038
  172SOPE   C2619454   4.145   2.136   7.177  0.4272 -0.2506 -0.5157
  172SOPE   H6R19455   4.157   2.235   7.225 -2.2672 -0.0699 -0.0640
  172SOPE   H6S19456   4.106   2.065   7.253  1.8737  0.1791  0.6758
  172SOPE   C2719457   4.282   2.072   7.148 -0.7824 -0.2887 -0.6467
  172SOPE   H7R19458   4.269   1.967   7.117  0.8384 -0.1286 -2.0365
  172SOPE   H7S19459   4.324   2.126   7.061 -1.4632  1.8596  0.2826
  172SOPE   C2819460   4.385   2.068   7.273  0.2271  0.8231  0.5140
  172SOPE   H8R19461   4.391   2.164   7.328  0.9444 -0.3012  2.5437
  172SOPE   H8S19462   4.348   1.995   7.349  2.0458  0.2225  0.8681
  172SOPE   C2919463   4.517   2.031   7.213 -0.8428  0.6612  0.0020
  172SOPE   H9119464   4.545   2.114   7.147 -1.4954  1.0264  0.1702
  172SOPE  C21019465   4.615   1.927   7.230  1.0570  0.6227  0.6187
  172SOPE  H10119466   4.705   1.915   7.169  1.3742 -0.8705  1.3311
  172SOPE  C21119467   4.606   1.808   7.320 -0.0920 -0.3884  0.2892
  172SOPE  H11R19468   4.683   1.731   7.297  0.2241  0.3518 -1.2989
  172SOPE  H11S19469   4.508   1.760   7.302  0.1976 -0.3458 -1.6388
  172SOPE  C21219470   4.630   1.847   7.462 -0.0081  0.3546 -0.4647
  172SOPE  H12R19471   4.545   1.915   7.488  0.8896  1.2608  0.1784
  172SOPE  H12S19472   4.726   1.897   7.487  1.3372 -1.7391 -1.2276
  172SOPE  C21319473   4.629   1.733   7.562  0.4645  1.0314 -0.4715
  172SOPE  H13R19474   4.693   1.646   7.532 -3.6788 -2.5412  0.0399
  172SOPE  H13S19475   4.525   1.695   7.554  0.2881  0.9108  1.8004
  172SOPE  C21419476   4.659   1.773   7.708 -0.2743 -0.2320  0.0802
  172SOPE  H14R19477   4.585   1.849   7.744  0.3581  0.5450 -0.2223
  172SOPE  H14S19478   4.758   1.824   7.708  0.2107 -1.0547 -2.2244
  172SOPE  C21519479   4.665   1.651   7.806 -1.1597 -1.1880 -0.1383
  172SOPE  H15R19480   4.746   1.580   7.783  0.6248  0.2948  1.2261
  172SOPE  H15S19481   4.565   1.604   7.821 -1.4736 -0.3628  0.4548
  172SOPE  C21619482   4.704   1.693   7.953 -0.0931  0.2962  0.3131
  172SOPE  H16R19483   4.679   1.598   8.006 -0.3142 -0.2099 -0.6704
  172SOPE  H16S19484   4.640   1.768   8.003  0.1613  0.9796 -0.3671
  172SOPE  C21719485   4.859   1.714   7.959 -0.1017  0.3360 -0.4120
  172SOPE  H17R19486   4.891   1.795   7.890  1.7450 -0.5315 -0.6184
  172SOPE  H17S19487   4.912   1.621   7.928 -0.0844  0.6130 -1.2577
  172SOPE  C21819488   4.908   1.736   8.106  0.1102 -0.4411  0.6524
  172SOPE  H18R19489   5.015   1.766   8.108  1.0142 -2.8382 -2.5141
  172SOPE  H18S19490   4.899   1.646   8.171 -1.8036 -1.0237 -0.3451
  172SOPE  H18T19491   4.856   1.813   8.167  0.8290 -1.6839  2.9496
  172SOPE   C3319492   3.778   2.834   7.397 -0.0675 -0.2085  0.2432
  172SOPE   H3X19493   3.676   2.792   7.395 -1.2405  2.4466  0.2196
  172SOPE   H3Y19494   3.770   2.944   7.386  1.0494 -0.1410 -0.0745
  172SOPE   C3419495   3.844   2.813   7.532 -0.3565 -0.0680 -0.1882
  172SOPE   H4X19496   3.946   2.856   7.523  0.0235 -1.3415 -3.1243
  172SOPE   H4Y19497   3.847   2.705   7.557 -1.6421  0.3656  2.1467
  172SOPE   C3519498   3.771   2.888   7.641 -0.2302 -0.0372  0.1550
  172SOPE   H5X19499   3.667   2.849   7.651 -0.7490  0.9954 -0.9030
  172SOPE   H5Y19500   3.765   2.995   7.610  1.5617  0.8406  2.5267
  172SOPE   C3619501   3.841   2.881   7.778 -0.7475 -0.6599  0.1732
  172SOPE   H6X19502   3.933   2.943   7.766 -1.4208  0.2739 -0.2492
  172SOPE   H6Y19503   3.875   2.778   7.799  1.8474 -0.1349 -1.0048
  172SOPE   C3719504   3.763   2.932   7.902  0.0360 -0.3178  0.3396
  172SOPE   H7X19505   3.664   2.882   7.912  0.1445 -0.4934  0.5340
  172SOPE   H7Y19506   3.742   3.039   7.883  0.5977 -0.5086 -1.5990
  172SOPE   C3819507   3.851   2.917   8.027  0.6376 -0.0824 -0.1510
  172SOPE   H8X19508   3.795   2.979   8.100 -1.3253  0.6276 -2.1709
  172SOPE   H8Y19509   3.946   2.970   8.004 -0.1783  1.6062  0.2726
  172SOPE   C3919510   3.889   2.779   8.076 -0.1908  1.1060  0.6121
  172SOPE   H9X19511   3.964   2.782   8.158  2.0111 -3.4950 -0.8852
  172SOPE   H9Y19512   3.936   2.720   7.995  3.0489  1.4521  2.0826
  172SOPE  C31019513   3.776   2.696   8.129 -0.1507  0.1694 -0.8672
  172SOPE  H10X19514   3.701   2.682   8.048  0.1091 -1.5097 -0.8650
  172SOPE  H10Y19515   3.731   2.759   8.208  1.3288  0.4418 -0.2126
  172SOPE  C31119516   3.824   2.564   8.195 -0.1726  0.4859  0.4483
  172SOPE  H11X19517   3.880   2.579   8.290 -1.4361 -1.1063  1.4888
  172SOPE  H11Y19518   3.899   2.510   8.133  1.3319  3.2453 -0.3196
  172SOPE  C31219519   3.705   2.477   8.233  0.0112  0.6231 -0.0672
  172SOPE  H12X19520   3.742   2.378   8.265 -0.9501 -0.9210 -3.3153
  172SOPE  H12Y19521   3.643   2.457   8.143 -0.1191 -0.2383  0.1993
  172SOPE  C31319522   3.629   2.546   8.351 -0.5351 -0.1614  0.8092
  172SOPE  H13X19523   3.578   2.627   8.296 -1.9995 -2.0085 -0.6915
  172SOPE  H13Y19524   3.705   2.587   8.422  1.2803 -1.7413 -0.1341
  172SOPE  C31419525   3.518   2.470   8.424  0.0777 -0.3006  0.6795
  172SOPE  H14X19526   3.503   2.531   8.515  2.6200 -0.1899  1.1006
  172SOPE  H14Y19527   3.551   2.366   8.448  0.2126 -0.7788 -1.3421
  172SOPE  C31519528   3.387   2.458   8.352  0.8977  0.0015 -0.7181
  172SOPE  H15X19529   3.391   2.396   8.259 -1.1054 -0.6206 -0.4308
  172SOPE  H15Y19530   3.351   2.559   8.322  1.7901  0.5613  0.0343
  172SOPE  C31619531   3.280   2.389   8.448  0.5651 -0.2361  1.0516
  172SOPE  H16X19532   3.301   2.419   8.553 -0.0461  2.9941  0.3599
  172SOPE  H16Y19533   3.297   2.280   8.437  0.6572 -0.2737  1.5789
  172SOPE  C31719534   3.138   2.424   8.406  0.1963 -0.8081  0.1402
  172SOPE  H17X19535   3.111   2.389   8.304 -2.3640  1.1395  0.0544
  172SOPE  H17Y19536   3.137   2.534   8.397  2.2179 -0.4248  3.1149
  172SOPE  C31819537   3.032   2.377   8.504 -0.5103  0.4124  0.1484
  172SOPE  H18X19538   3.055   2.269   8.522 -1.4410  0.2653  0.5374
  172SOPE  H18Y19539   2.928   2.378   8.467 -1.1627 -0.6667  1.7984
  172SOPE  H18Z19540   3.037   2.434   8.599 -1.4458  1.8842 -0.6573
  173SAPI   C1219541   4.881   0.326  10.530 -0.8216 -0.3809  0.2699
  173SAPI    H219542   4.814   0.285  10.452  0.6775 -0.9529 -0.7701
  173SAPI    O219543   4.995   0.243  10.520 -0.0914 -0.8657 -0.3420
  173SAPI   HO219544   5.035   0.253  10.433 -1.4076  0.2157 -0.8615
  173SAPI   C1319545   4.913   0.466  10.489 -0.7204 -0.0206  0.0669
  173SAPI    H319546   4.819   0.524  10.504 -0.8800 -0.5774  1.4059
  173SAPI    O319547   4.969   0.484  10.361  0.2685  0.0266  0.4086
  173SAPI   HO319548   5.054   0.527  10.374  0.0038 -0.1489  3.5869
  173SAPI   C1419549   5.002   0.531  10.592 -0.2436  0.1387  0.6900
  173SAPI    H419550   5.096   0.472  10.586  0.4107  1.3313 -3.1446
  173SAPI    O419551   5.035   0.663  10.552 -0.2443 -0.3913  0.2674
  173SAPI   HO419552   4.959   0.720  10.563 -0.7266 -0.7608 -1.0469
  173SAPI   C1519553   4.951   0.514  10.733  0.3323 -0.0625 -0.4063
  173SAPI    H519554   4.850   0.560  10.734 -0.7267 -2.2635  0.5973
  173SAPI    O519555   5.042   0.581  10.826 -0.6102 -0.2597 -0.4344
  173SAPI   HO519556   5.127   0.540  10.806 -1.5101 -2.3417 -0.2843
  173SAPI   C1619557   4.919   0.362  10.770 -0.3555 -0.0698  0.5219
  173SAPI    H619558   5.014   0.304  10.770  0.4144  0.9795 -2.8623
  173SAPI    O619559   4.865   0.363  10.895 -0.0560  0.3014  0.2316
  173SAPI   HO619560   4.809   0.285  10.891  1.0203 -0.4957  0.3161
  173SAPI   C1119561   4.817   0.307  10.669  0.5196  0.4235  0.6072
  173SAPI    H119562   4.733   0.379  10.679  0.3719  0.1993  0.9912
  173SAPI     P19563   4.632   0.112  10.636 -0.6212 -0.4424  0.2394
  173SAPI   O1319564   4.532   0.217  10.612  0.1764 -0.2380  0.3753
  173SAPI   O1419565   4.595  -0.000  10.725 -0.2919 -0.2885  0.3878
  173SAPI   O1219566   4.769   0.178  10.696 -0.0902  0.2966 -0.4611
  173SAPI   O1119567   4.669   0.049  10.491 -0.9422 -0.4430  0.1040
  173SAPI    C119568   4.778  -0.045  10.485  0.0703 -0.2126 -0.0886
  173SAPI    HA19569   4.876  -0.000  10.513 -0.7463 -0.1308  3.0333
  173SAPI    HB19570   4.769  -0.117  10.570  0.8158  0.5750  0.6815
  173SAPI    C219571   4.779  -0.127  10.359 -0.1805 -0.9097 -0.3932
  173SAPI    HS19572   4.821  -0.229  10.378 -1.5483 -1.3700  0.3232
  173SAPI   O2119573   4.847  -0.061  10.250  0.5056  0.5764 -0.4359
  173SAPI   C2119574   4.979  -0.053  10.254  0.2059 -0.0486  0.0369
  173SAPI   O2219575   5.053  -0.096  10.343 -0.0262 -0.4871  0.5307
  173SAPI   C2219576   5.042   0.015  10.126 -0.0100  0.6718 -0.3507
  173SAPI   H2R19577   4.961   0.049  10.058 -0.0748  0.3447 -0.4349
  173SAPI   H2S19578   5.100   0.105  10.156  0.8784  0.1048 -0.3369
  173SAPI    C319579   4.635  -0.160  10.314  0.4007  1.0678  0.5229
  173SAPI    HX19580   4.569  -0.072  10.297  0.6144  0.6466 -3.3212
  173SAPI    HY19581   4.585  -0.211  10.400 -1.5298  2.1088  0.0797
  173SAPI   O3119582   4.618  -0.243  10.195  0.0114  0.3840  0.2756
  173SAPI   C3119583   4.641  -0.374  10.210  0.1560  0.7432  0.8529
  173SAPI   O3219584   4.648  -0.432  10.317  0.2216 -0.5627 -0.0290
  173SAPI   C3219585   4.629  -0.436  10.070 -0.3504 -0.3960  0.1716
  173SAPI   H2X19586   4.708  -0.407   9.997  0.2765 -1.5948  0.3409
  173SAPI   H2Y19587   4.537  -0.391  10.028  0.4052 -0.3178 -1.5095
  173SAPI   C2319588   5.137  -0.087  10.050 -0.2456  0.2309 -0.6017
  173SAPI   H3R19589   5.224  -0.106  10.116  1.1598  2.3539 -1.7381
  173SAPI   H3S19590   5.183  -0.035   9.964  2.3622  1.7011  1.5566
  173SAPI   C2419591   5.075  -0.223  10.009 -0.1912 -0.3775 -0.1897
  173SAPI   H4R19592   5.053  -0.280  10.101  1.4652 -0.0324  0.4673
  173SAPI   H4S19593   5.158  -0.282   9.964  1.0889 -1.6813  3.4857
  173SAPI   C2519594   4.947  -0.213   9.937 -0.1052 -0.3540 -0.2641
  173SAPI   H5R19595   4.855  -0.234   9.994  0.0855  1.5857  0.8474
  173SAPI   C2619596   4.939  -0.180   9.810 -0.1004 -0.0814 -0.3978
  173SAPI   H6R19597   4.843  -0.174   9.757  0.0766 -2.1132 -1.0293
  173SAPI   C2719598   5.052  -0.152   9.721  0.1676 -0.9301  0.0234
  173SAPI   H7R19599   5.038  -0.207   9.625 -0.1127  0.4900 -0.7721
  173SAPI   H7S19600   5.149  -0.194   9.756 -0.7010 -1.9396  1.3151
  173SAPI   C2819601   5.069  -0.002   9.689 -0.0638  0.9374 -0.1996
  173SAPI   H8R19602   5.115   0.044   9.778 -0.0772 -1.5695  1.2012
  173SAPI   C2919603   5.057   0.068   9.576  0.0074 -0.6901  0.9236
  173SAPI   H9R19604   5.068   0.177   9.574 -1.6839 -0.5010  0.1185
  173SAPI  C21019605   5.009  -0.000   9.445 -0.5005  0.3520 -0.6176
  173SAPI  H10R19606   4.921  -0.066   9.465  0.7841 -0.9250  1.1390
  173SAPI  H10S19607   5.087  -0.071   9.407 -2.7524 -2.4428 -0.3709
  173SAPI  C21119608   4.989   0.112   9.341  0.2838 -0.1379 -0.2869
  173SAPI  H11R19609   4.891   0.159   9.355 -0.2501 -0.9915 -1.0648
  173SAPI  C21219610   5.069   0.160   9.246 -0.1081  0.0040  0.1684
  173SAPI  H12R19611   5.018   0.232   9.180 -0.6972 -0.4828  0.0766
  173SAPI  C21319612   5.206   0.124   9.205 -0.0645  0.1371  0.2192
  173SAPI  H13R19613   5.265   0.097   9.295  0.1964  0.0532  0.0237
  173SAPI  H13S19614   5.258   0.218   9.175  1.3066 -0.7754 -0.3764
  173SAPI  C21419615   5.240   0.025   9.097  0.0202  0.8027 -0.0686
  173SAPI  H14R19616   5.169  -0.059   9.101  0.2732  0.6102  0.4296
  173SAPI  C21519617   5.334   0.014   8.995 -0.5318 -0.1653 -0.9639
  173SAPI  H15R19618   5.331  -0.072   8.928  0.4077 -1.0535  0.0912
  173SAPI  C21619619   5.429   0.137   8.976  0.3088  0.2801  0.1563
  173SAPI  H16R19620   5.537   0.111   8.975 -0.0970 -1.5506 -0.0722
  173SAPI  H16S19621   5.413   0.213   9.055 -1.6135  0.2057 -0.1235
  173SAPI  C21719622   5.381   0.199   8.841 -0.5307 -0.2094 -0.8930
  173SAPI  H17R19623   5.380   0.115   8.769  3.3315 -1.6418  0.4631
  173SAPI  H17S19624   5.458   0.272   8.807 -1.7708  1.2547 -0.6948
  173SAPI  C21819625   5.246   0.269   8.853 -0.1894 -0.0025  0.8255
  173SAPI  H18R19626   5.261   0.354   8.922  0.8604 -0.7483  1.5605
  173SAPI  H18S19627   5.162   0.209   8.893 -0.7261  0.1927  0.0075
  173SAPI  C21919628   5.195   0.327   8.714  0.2896 -0.1673  0.3796
  173SAPI  H19R19629   5.266   0.410   8.693  0.3727  0.2244  2.0585
  173SAPI  H19S19630   5.097   0.374   8.734  0.6459  0.7095  0.1156
  173SAPI  C22019631   5.184   0.226   8.589 -0.2355  0.0415 -0.1697
  173SAPI  H20R19632   5.141   0.132   8.629  1.9834 -0.2386  1.8250
  173SAPI  H20S19633   5.287   0.209   8.550  0.3034  0.6409  0.9395
  173SAPI  H20T19634   5.117   0.268   8.511  0.1891  0.6420 -0.2180
  173SAPI   C3319635   4.607  -0.594  10.073 -0.5060 -0.2393  0.1567
  173SAPI   H3X19636   4.523  -0.623  10.139 -0.6687  2.5593  1.3181
  173SAPI   H3Y19637   4.701  -0.629  10.120 -0.7870 -1.0347  0.1480
  173SAPI   C3419638   4.604  -0.646   9.927 -0.3799 -0.5007 -0.0595
  173SAPI   H4X19639   4.634  -0.752   9.935 -0.5884 -0.4622  1.6820
  173SAPI   H4Y19640   4.687  -0.590   9.880  0.9415 -1.1093  1.4395
  173SAPI   C3519641   4.477  -0.627   9.846 -0.5195 -0.0951  0.1548
  173SAPI   H5X19642   4.439  -0.524   9.858  1.8597  0.6361  2.0336
  173SAPI   H5Y19643   4.407  -0.694   9.901  1.3439 -1.6964  0.6959
  173SAPI   C3619644   4.482  -0.665   9.694  0.2598 -0.6544 -0.6137
  173SAPI   H6X19645   4.555  -0.748   9.683  2.2470  0.9801 -0.4055
  173SAPI   H6Y19646   4.532  -0.584   9.637 -0.0639  0.5807  0.7793
  173SAPI   C3719647   4.347  -0.694   9.636 -0.3240 -0.0866 -0.0593
  173SAPI   H7X19648   4.269  -0.616   9.640 -0.9393 -0.5866 -1.4337
  173SAPI   H7Y19649   4.288  -0.779   9.678 -0.5781 -0.8578 -1.8586
  173SAPI   C3819650   4.377  -0.725   9.490  0.5765  0.1812  0.1962
  173SAPI   H8X19651   4.319  -0.804   9.438  2.3585 -1.6698  0.8795
  173SAPI   H8Y19652   4.483  -0.760   9.491  0.1563 -1.1772  1.6382
  173SAPI   C3919653   4.356  -0.609   9.396 -0.0907 -0.5641  0.3066
  173SAPI   H9X19654   4.404  -0.514   9.430 -0.4029  0.0858 -0.9890
  173SAPI   H9Y19655   4.247  -0.586   9.391  0.0398  0.1756  0.6115
  173SAPI  C31019656   4.398  -0.644   9.256 -0.1157 -0.6115  0.3127
  173SAPI  H10X19657   4.387  -0.747   9.215  2.3237  0.1205 -2.5770
  173SAPI  H10Y19658   4.509  -0.640   9.254 -0.0760 -1.1941  0.8049
  173SAPI  C31119659   4.340  -0.546   9.161  0.1502 -0.2039  0.0066
  173SAPI  H11X19660   4.365  -0.442   9.192  0.0563 -0.2567  0.2646
  173SAPI  H11Y19661   4.230  -0.560   9.152  0.3307 -1.2650 -0.7397
  173SAPI  C31219662   4.388  -0.564   9.017  0.1427  0.0842 -0.8071
  173SAPI  H12X19663   4.415  -0.671   9.017 -1.5889 -0.4198  1.1738
  173SAPI  H12Y19664   4.483  -0.515   8.988  0.1277  1.3010  1.0413
  173SAPI  C31319665   4.287  -0.530   8.908  0.5629 -0.4367  0.4662
  173SAPI  H13X19666   4.243  -0.433   8.940  2.0780  1.0935 -1.8624
  173SAPI  H13Y19667   4.209  -0.609   8.909  2.0462 -2.1070 -2.7058
  173SAPI  C31419668   4.338  -0.516   8.766  0.3719 -0.5620  0.0313
  173SAPI  H14X19669   4.395  -0.611   8.748 -1.0591 -1.5591  0.6025
  173SAPI  H14Y19670   4.408  -0.431   8.776  0.2629 -0.3894 -0.6362
  173SAPI  C31519671   4.222  -0.479   8.667 -0.5204 -0.2670  0.3200
  173SAPI  H15X19672   4.170  -0.394   8.717 -1.1352 -0.3469 -0.1601
  173SAPI  H15Y19673   4.153  -0.566   8.656 -0.6795 -0.8910  4.5796
  173SAPI  C31619674   4.294  -0.439   8.540  0.4488  0.8631  0.1233
  173SAPI  H16X19675   4.368  -0.516   8.510  1.0484  1.1001  0.9490
  173SAPI  H16Y19676   4.350  -0.346   8.563 -2.2810  2.5308  0.5195
  173SAPI  C31719677   4.203  -0.412   8.420  0.4027  0.1200  0.4770
  173SAPI  H17X19678   4.125  -0.492   8.429 -0.6580  1.2111  1.1845
  173SAPI  H17Y19679   4.255  -0.422   8.322  0.5512 -2.0227  0.7246
  173SAPI  C31819680   4.144  -0.274   8.423 -0.1104 -0.3064  0.3633
  173SAPI  H18X19681   4.219  -0.193   8.422  0.4724 -0.8205 -1.7330
  173SAPI  H18Y19682   4.077  -0.254   8.510  1.5253  2.0109  1.1767
  173SAPI  H18Z19683   4.094  -0.268   8.324 -1.0540 -2.6129  0.6296
  174SAPI   C1219684   1.063   6.603  10.366  0.2988 -0.0996  0.2853
  174SAPI    H219685   1.110   6.639  10.272 -1.6015 -0.5775 -0.9077
  174SAPI    O219686   0.947   6.675  10.381  0.5389  0.1095 -0.1838
  174SAPI   HO219687   0.979   6.762  10.356  2.0999 -0.4581 -0.2477
  174SAPI   C1319688   1.041   6.462  10.345  0.7287  0.2261 -0.2179
  174SAPI    H319689   1.137   6.410  10.329  1.3022  0.9325  0.8214
  174SAPI    O319690   0.965   6.431  10.222 -0.2258 -0.0221 -0.4630
  174SAPI   HO319691   0.873   6.458  10.232  0.2560  1.0242  1.6501
  174SAPI   C1419692   0.974   6.408  10.474 -0.0688  0.3540 -1.0175
  174SAPI    H419693   0.883   6.468  10.494 -1.0991 -1.6235  0.6446
  174SAPI    O419694   0.941   6.269  10.459  0.5284 -0.2931 -0.4030
  174SAPI   HO419695   0.867   6.248  10.517  0.9308 -0.8602 -0.0822
  174SAPI   C1519696   1.053   6.431  10.599 -0.5035 -0.9623  0.0289
  174SAPI    H519697   1.141   6.364  10.608 -1.7958 -2.7863 -0.4210
  174SAPI    O519698   0.972   6.388  10.713 -0.1460 -0.3080 -0.0126
  174SAPI   HO519699   0.915   6.319  10.678  0.3704  0.3636 -2.3625
  174SAPI   C1619700   1.087   6.577  10.615 -0.0535 -0.2827 -0.3907
  174SAPI    H619701   0.997   6.639  10.638  0.7137  0.5460  0.4782
  174SAPI    O619702   1.182   6.599  10.719  0.1973 -0.1917 -0.4762
  174SAPI   HO619703   1.240   6.669  10.687  2.1947 -0.2897  2.4894
  174SAPI   C1119704   1.163   6.628  10.489  0.4978  0.2800 -0.1688
  174SAPI    H119705   1.239   6.551  10.466 -0.6368 -1.1913  0.8335
  174SAPI     P19706   1.369   6.808  10.507 -0.1603  0.8745 -0.0017
  174SAPI   O1319707   1.393   6.754  10.644  0.7871 -0.2074  0.3768
  174SAPI   O1419708   1.387   6.951  10.481 -0.1885  0.1620  0.3970
  174SAPI   O1219709   1.213   6.758  10.474  0.2025  0.2163  0.5223
  174SAPI   O1119710   1.451   6.717  10.406  0.7441 -0.2239  0.2305
  174SAPI    C119711   1.422   6.733  10.263 -0.3066 -0.3878 -0.4701
  174SAPI    HA19712   1.319   6.703  10.235 -0.6410  1.4894 -1.4504
  174SAPI    HB19713   1.439   6.837  10.227  0.0652 -0.3601 -0.2202
  174SAPI    C219714   1.501   6.644  10.174 -0.7440  0.0197  0.0930
  174SAPI    HS19715   1.605   6.668  10.204 -0.6787 -1.9564  1.6539
  174SAPI   O2119716   1.483   6.680  10.038 -0.0345  0.0823  0.5703
  174SAPI   C2119717   1.579   6.645   9.960 -0.6498  0.5004 -0.3269
  174SAPI   O2219718   1.674   6.581   9.999 -0.2288  0.2377  0.2228
  174SAPI   C2219719   1.564   6.695   9.816  0.3561 -0.8147 -0.3752
  174SAPI   H2R19720   1.491   6.631   9.761  0.5602 -0.9220 -0.5218
  174SAPI   H2S19721   1.529   6.800   9.815 -0.3599 -0.9834  1.7986
  174SAPI    C319722   1.474   6.497  10.192 -0.4299  0.3907 -1.1040
  174SAPI    HX19723   1.476   6.475  10.301 -1.2915  2.9674 -0.4940
  174SAPI    HY19724   1.566   6.447  10.155  1.6014  2.5085  0.8066
  174SAPI   O3119725   1.346   6.447  10.140  0.3069 -0.1155 -0.4364
  174SAPI   C3119726   1.358   6.386  10.022  0.4011  0.4221  0.0547
  174SAPI   O3219727   1.460   6.368   9.962  0.1361  0.0840 -0.3895
  174SAPI   C3219728   1.220   6.317   9.988 -0.6296 -0.3351 -0.2001
  174SAPI   H2X19729   1.144   6.392  10.017  0.4428  0.4010  0.8155
  174SAPI   H2Y19730   1.218   6.214  10.028  0.9069  0.1677  1.2705
  174SAPI   C2319731   1.697   6.692   9.749 -0.0161 -0.2884  0.0236
  174SAPI   H3R19732   1.724   6.587   9.725 -0.2087 -0.5185  0.7808
  174SAPI   H3S19733   1.786   6.732   9.803 -1.3428 -0.4874  2.5125
  174SAPI   C2419734   1.684   6.760   9.615  0.5128  0.0267  0.0984
  174SAPI   H4R19735   1.660   6.868   9.627  0.7938  0.0016  0.9217
  174SAPI   H4S19736   1.598   6.709   9.568 -0.1199  0.8779  0.3023
  174SAPI   C2519737   1.804   6.742   9.526  0.6055 -0.2628  1.0898
  174SAPI   H5R19738   1.897   6.727   9.583 -0.0899  1.5971  2.8215
  174SAPI   C2619739   1.808   6.741   9.390  0.3023 -0.5053  0.1879
  174SAPI   H6R19740   1.903   6.704   9.349  0.2527 -0.4544  0.0245
  174SAPI   C2719741   1.685   6.755   9.302 -0.0587  0.3173  0.1754
  174SAPI   H7R19742   1.711   6.826   9.221  0.3905  0.4532  0.4337
  174SAPI   H7S19743   1.591   6.783   9.353  0.4130 -0.8227  1.7620
  174SAPI   C2819744   1.658   6.624   9.222 -0.1924 -0.1567 -0.2389
  174SAPI   H8R19745   1.714   6.539   9.261  0.4261  1.1982  1.9796
  174SAPI   C2919746   1.574   6.612   9.116 -0.2528  0.1149  0.3380
  174SAPI   H9R19747   1.568   6.518   9.059  1.2106 -0.7134  1.4870
  174SAPI  C21019748   1.483   6.717   9.059  0.5480  0.2803 -0.3488
  174SAPI  H10R19749   1.525   6.731   8.957 -0.4538 -0.0604 -0.8244
  174SAPI  H10S19750   1.492   6.813   9.114  0.1852  1.6919 -2.6067
  174SAPI  C21119751   1.344   6.658   9.060  0.0900  0.2242  0.4968
  174SAPI  H11R19752   1.281   6.683   9.147 -0.6671 -1.1035  0.3591
  174SAPI  C21219753   1.299   6.570   8.965 -0.0944  0.1019  0.2318
  174SAPI  H12R19754   1.192   6.542   8.965  0.0752 -0.6190 -1.2072
  174SAPI  C21319755   1.371   6.518   8.841 -0.6527  0.1631 -0.2878
  174SAPI  H13R19756   1.480   6.507   8.857  0.0114  2.7127 -2.2698
  174SAPI  H13S19757   1.367   6.592   8.757  1.2383  1.5317  0.7483
  174SAPI  C21419758   1.319   6.388   8.794  0.1676  0.8523  0.1383
  174SAPI  H14R19759   1.351   6.313   8.867 -0.3390  0.1714 -0.3159
  174SAPI  C21519760   1.264   6.346   8.678  0.3824 -0.0553 -0.1790
  174SAPI  H15R19761   1.248   6.238   8.670 -0.9439 -0.2585  3.3462
  174SAPI  C21619762   1.242   6.438   8.557  0.5153 -0.0272 -0.1048
  174SAPI  H16R19763   1.263   6.385   8.461  0.6206  0.9158 -0.6235
  174SAPI  H16S19764   1.305   6.530   8.555 -2.3799  2.1020 -0.8628
  174SAPI  C21719765   1.094   6.482   8.565 -0.0092  0.5480  0.4369
  174SAPI  H17R19766   1.074   6.552   8.649 -0.9067  0.3414  0.4033
  174SAPI  H17S19767   1.022   6.401   8.587 -0.3527  1.2727  2.1342
  174SAPI  C21819768   1.057   6.554   8.445 -0.2664 -0.3573 -0.1904
  174SAPI  H18R19769   1.126   6.641   8.437  0.8404 -1.2878 -1.1061
  174SAPI  H18S19770   0.958   6.600   8.462  0.3909  0.1768  2.8316
  174SAPI  C21919771   1.044   6.464   8.316 -0.7554  0.8386 -0.7007
  174SAPI  H19R19772   0.948   6.408   8.323 -1.2357  1.5023 -1.7248
  174SAPI  H19S19773   1.126   6.389   8.322 -0.5680  1.1356  1.5441
  174SAPI  C22019774   1.044   6.548   8.192 -0.2424  0.1272 -0.1532
  174SAPI  H20R19775   0.940   6.584   8.179 -0.0276  1.2824  1.0568
  174SAPI  H20S19776   1.079   6.484   8.108 -1.1359 -0.1569 -0.3246
  174SAPI  H20T19777   1.118   6.629   8.206  0.8262 -1.0462  1.3981
  174SAPI   C3319778   1.197   6.316   9.833 -0.2248 -0.4580 -0.2851
  174SAPI   H3X19779   1.119   6.239   9.810 -0.1445 -0.1353 -1.7061
  174SAPI   H3Y19780   1.291   6.280   9.786  0.3207 -2.8876  2.3697
  174SAPI   C3419781   1.159   6.450   9.768  0.3357 -0.3740  0.1255
  174SAPI   H4X19782   1.245   6.519   9.779 -0.6052  1.4133 -2.5972
  174SAPI   H4Y19783   1.073   6.506   9.812  0.3669  2.1350 -2.6376
  174SAPI   C3519784   1.138   6.425   9.621  0.1885 -0.0339  0.0879
  174SAPI   H5X19785   1.073   6.503   9.574  0.8732  0.2091 -0.4830
  174SAPI   H5Y19786   1.082   6.331   9.605  1.4526 -1.1113  1.7089
  174SAPI   C3619787   1.269   6.416   9.551  0.2024 -0.5398 -0.5219
  174SAPI   H6X19788   1.327   6.323   9.573 -1.0887 -1.1910  0.2719
  174SAPI   H6Y19789   1.339   6.498   9.580 -0.8898  0.9784 -1.9917
  174SAPI   C3719790   1.262   6.421   9.398  0.3654  0.1083  0.5574
  174SAPI   H7X19791   1.353   6.369   9.361 -0.4192 -0.7089 -0.2839
  174SAPI   H7Y19792   1.248   6.526   9.365  0.5947 -0.1420 -0.3831
  174SAPI   C3819793   1.137   6.346   9.337 -0.1766 -0.1308 -0.2697
  174SAPI   H8X19794   1.049   6.402   9.375  1.0102  0.0831  2.4447
  174SAPI   H8Y19795   1.135   6.253   9.399 -1.3209  1.2673  1.9257
  174SAPI   C3919796   1.142   6.320   9.184  0.3760 -0.1087 -0.0040
  174SAPI   H9X19797   1.234   6.261   9.168  1.6148  2.0830 -1.4105
  174SAPI   H9Y19798   1.149   6.418   9.132 -0.5402  0.3255  0.6500
  174SAPI  C31019799   1.023   6.243   9.131 -0.4767  0.5113 -0.0564
  174SAPI  H10X19800   0.934   6.310   9.134 -0.4430  0.6129 -1.0841
  174SAPI  H10Y19801   1.007   6.157   9.201 -1.7316 -0.8028 -1.8609
  174SAPI  C31119802   1.053   6.191   8.991  0.1228 -0.4775 -0.0715
  174SAPI  H11X19803   1.099   6.090   8.999 -0.9841 -1.0362 -0.5373
  174SAPI  H11Y19804   1.126   6.257   8.941 -0.6222 -1.5060 -2.6805
  174SAPI  C31219805   0.932   6.169   8.902 -0.3790  1.1155  0.2512
  174SAPI  H12X19806   0.878   6.265   8.887 -0.4623  1.0545  0.1650
  174SAPI  H12Y19807   0.865   6.088   8.938  2.4816 -1.9409 -0.7663
  174SAPI  C31319808   0.976   6.103   8.763  0.2734  0.2406 -0.3227
  174SAPI  H13X19809   1.020   6.004   8.787  0.2967  0.3007 -0.1206
  174SAPI  H13Y19810   1.051   6.172   8.720  2.1946 -2.0336 -0.8028
  174SAPI  C31419811   0.864   6.096   8.667 -0.1168  0.8619  1.0350
  174SAPI  H14X19812   0.800   6.185   8.687 -0.4850  0.6339  0.8883
  174SAPI  H14Y19813   0.805   6.004   8.683  1.5779 -0.1951  1.4289
  174SAPI  C31519814   0.909   6.086   8.518  0.0714  0.1329  0.6598
  174SAPI  H15X19815   0.972   5.995   8.524 -0.0504 -0.1165 -1.2064
  174SAPI  H15Y19816   0.965   6.176   8.484 -0.3909  0.0213 -0.4627
  174SAPI  C31619817   0.797   6.062   8.413  0.1145 -0.0260 -0.3022
  174SAPI  H16X19818   0.734   6.153   8.418  1.0088  0.7740 -2.4306
  174SAPI  H16Y19819   0.733   5.974   8.437 -2.8154  1.9927 -0.1922
  174SAPI  C31719820   0.862   6.049   8.274  0.7478  0.0225 -0.1996
  174SAPI  H17X19821   0.889   5.945   8.245  2.7674  0.5680 -0.4475
  174SAPI  H17Y19822   0.964   6.094   8.284  1.0324 -0.4701 -0.8264
  174SAPI  C31819823   0.790   6.132   8.170  0.1905 -0.7957 -0.0150
  174SAPI  H18X19824   0.842   6.132   8.072  0.9444  0.3200  0.3641
  174SAPI  H18Y19825   0.784   6.240   8.195  1.1859  0.0048 -2.8629
  174SAPI  H18Z19826   0.687   6.092   8.158 -0.5843  0.6324  1.4671
  175SAPI   C1219827   3.078   5.047   6.120 -0.2466  0.1106  1.3707
  175SAPI    H219828   3.144   5.079   6.204  0.9331  1.7265 -0.0930
  175SAPI    O219829   3.127   5.114   6.001  0.1734 -0.7458  0.5757
  175SAPI   HO219830   3.085   5.199   6.011  1.4113 -0.0401 -0.0484
  175SAPI   C1319831   3.096   4.901   6.099  0.6464 -0.1058  0.6234
  175SAPI    H319832   3.046   4.860   6.190 -0.8735  0.4098  0.0552
  175SAPI    O319833   3.227   4.855   6.107  0.3795 -0.0864  0.1508
  175SAPI   HO319834   3.276   4.888   6.032  4.0645 -1.3472  1.7500
  175SAPI   C1419835   3.008   4.858   5.974 -0.3162 -0.5825 -0.2297
  175SAPI    H419836   3.040   4.909   5.880 -1.7466  1.5737  0.3889
  175SAPI    O419837   3.035   4.722   5.958 -0.3624  0.3771 -0.3429
  175SAPI   HO419838   2.984   4.677   5.890 -0.4697  1.0899 -0.7379
  175SAPI   C1519839   2.867   4.884   6.006 -0.6814 -0.2255 -0.1106
  175SAPI    H519840   2.840   4.836   6.102  2.5100 -0.7245  0.6735
  175SAPI    O519841   2.782   4.840   5.901 -0.1272  0.4091 -0.0334
  175SAPI   HO519842   2.694   4.826   5.935 -0.7963 -0.5694 -2.0138
  175SAPI   C1619843   2.860   5.037   6.023 -0.3922 -0.1318  0.3204
  175SAPI    H619844   2.900   5.083   5.930 -0.9561  0.4843  0.3793
  175SAPI    O619845   2.721   5.069   6.042  0.2037  0.2701 -0.5574
  175SAPI   HO619846   2.699   5.145   5.987  0.5311  0.3744 -0.5448
  175SAPI   C1119847   2.943   5.076   6.141  0.4742 -0.4189 -0.3516
  175SAPI    H119848   2.908   5.027   6.235 -0.3623 -2.5360 -1.6840
  175SAPI     P19849   2.920   5.293   6.291  0.2883  0.0067  0.1087
  175SAPI   O1319850   2.804   5.244   6.365  0.0120 -0.4110 -0.2254
  175SAPI   O1419851   2.932   5.440   6.254  0.4786  0.8212  0.3468
  175SAPI   O1219852   2.928   5.217   6.148  0.2379 -0.2120 -0.4715
  175SAPI   O1119853   3.055   5.248   6.354  0.2889 -0.0891 -0.5220
  175SAPI    C119854   3.053   5.145   6.456  0.3213 -0.5137 -0.2335
  175SAPI    HA19855   2.998   5.052   6.429  0.0539 -0.5044  0.2549
  175SAPI    HB19856   3.154   5.118   6.495 -1.3967 -1.9783  3.7600
  175SAPI    C219857   3.000   5.201   6.599 -0.1323 -0.1768  0.2931
  175SAPI    HS19858   2.896   5.238   6.592 -0.1725 -0.3786 -0.1947
  175SAPI   O2119859   3.086   5.308   6.639  0.5910  0.4667  0.9519
  175SAPI   C2119860   3.044   5.431   6.606  1.6644 -0.3721  0.0223
  175SAPI   O2219861   2.931   5.468   6.581 -0.3954 -0.4143 -0.2186
  175SAPI   C2219862   3.171   5.516   6.614 -0.3130 -0.1543  0.0730
  175SAPI   H2R19863   3.218   5.489   6.711 -0.0816  0.5316  0.1580
  175SAPI   H2S19864   3.238   5.475   6.536  0.4133 -1.1586  1.1838
  175SAPI    C319865   2.995   5.094   6.713  0.1279  0.1077 -0.6400
  175SAPI    HX19866   3.095   5.048   6.724  0.7531  1.7706  1.2312
  175SAPI    HY19867   2.927   5.015   6.674 -1.9228  1.4150  0.1251
  175SAPI   O3119868   2.947   5.166   6.837 -1.0206  0.0228  0.5735
  175SAPI   C3119869   2.817   5.180   6.844  0.9849  0.5754 -0.3873
  175SAPI   O3219870   2.735   5.147   6.760  0.1105 -0.3660 -0.5740
  175SAPI   C3219871   2.770   5.223   6.988  0.5009  0.7700  0.2913
  175SAPI   H2X19872   2.842   5.296   7.031  1.9902 -1.5840  2.0551
  175SAPI   H2Y19873   2.756   5.131   7.048 -1.4349  2.4542  2.6085
  175SAPI   C2319874   3.155   5.667   6.613 -0.0908 -0.3754  0.5283
  175SAPI   H3R19875   3.095   5.698   6.526  1.3541 -1.3660 -0.8719
  175SAPI   H3S19876   3.255   5.715   6.609 -0.9322  1.5194  0.8594
  175SAPI   C2419877   3.096   5.737   6.739  0.0083 -0.6319 -0.0779
  175SAPI   H4R19878   2.991   5.703   6.747 -0.0993 -0.0380  1.2469
  175SAPI   H4S19879   3.079   5.841   6.702  3.5936 -0.1644 -0.8238
  175SAPI   C2519880   3.166   5.747   6.876  0.4186  0.6226 -0.0603
  175SAPI   H5R19881   3.230   5.836   6.884  0.6477  0.4140  0.4483
  175SAPI   C2619882   3.141   5.676   6.991  0.4982 -0.8840  0.2417
  175SAPI   H6R19883   3.203   5.691   7.080 -0.5239  1.7549  0.6102
  175SAPI   C2719884   3.033   5.571   7.005  0.0306 -0.0075 -0.4401
  175SAPI   H7R19885   2.960   5.566   6.921 -0.3981  0.0584 -0.0777
  175SAPI   H7S19886   2.971   5.603   7.092  0.8006  0.0084  0.1099
  175SAPI   C2819887   3.087   5.426   7.012 -0.8213 -0.2400  0.1500
  175SAPI   H8R19888   3.144   5.391   6.924 -0.1269  1.4360 -0.1009
  175SAPI   C2919889   3.095   5.352   7.127 -0.2211  0.1822 -0.1856
  175SAPI   H9R19890   3.136   5.250   7.125 -1.0516 -0.3012  2.5954
  175SAPI  C21019891   3.053   5.401   7.259 -0.9968  0.4878  0.0691
  175SAPI  H10R19892   2.962   5.463   7.249  0.1903  2.1343 -1.0897
  175SAPI  H10S19893   3.124   5.482   7.285 -1.2327  1.3059 -1.7262
  175SAPI  C21119894   3.044   5.310   7.373  0.3889 -0.1221 -1.7040
  175SAPI  H11R19895   3.052   5.202   7.354  0.2784 -0.7329  1.1390
  175SAPI  C21219896   3.003   5.346   7.502 -0.8703  0.7329  0.6233
  175SAPI  H12R19897   3.027   5.272   7.580  1.4850 -0.6356 -1.2677
  175SAPI  C21319898   2.972   5.484   7.552  0.2773 -0.5499  0.1212
  175SAPI  H13R19899   2.865   5.493   7.582  0.5945  0.6481  0.9859
  175SAPI  H13S19900   2.972   5.547   7.461  4.1081 -0.9006 -0.2737
  175SAPI  C21419901   3.065   5.540   7.655 -0.0015 -0.6304  0.3373
  175SAPI  H14R19902   3.170   5.512   7.638  0.9337  3.1405 -0.8975
  175SAPI  C21519903   3.039   5.622   7.753  0.1461 -0.6518  0.2610
  175SAPI  H15R19904   3.121   5.642   7.824  2.8592  0.1779 -2.8896
  175SAPI  C21619905   2.915   5.685   7.800 -0.6082 -0.1643 -0.5920
  175SAPI  H16R19906   2.836   5.693   7.722 -1.7487  0.3328  0.5714
  175SAPI  H16S19907   2.957   5.783   7.829 -1.0651 -0.1701  0.1149
  175SAPI  C21719908   2.846   5.617   7.921 -0.4049  0.5363  0.3868
  175SAPI  H17R19909   2.793   5.695   7.980 -2.0227 -0.9212  0.9208
  175SAPI  H17S19910   2.931   5.572   7.976 -0.3723 -0.1391 -0.2114
  175SAPI  C21819911   2.731   5.506   7.890 -0.0334 -0.1220 -0.3312
  175SAPI  H18R19912   2.773   5.421   7.833  0.7657 -0.3763  0.6159
  175SAPI  H18S19913   2.649   5.547   7.827  0.2032  0.5018 -0.2389
  175SAPI  C21919914   2.668   5.456   8.025 -0.2336  0.3320 -0.4050
  175SAPI  H19R19915   2.747   5.423   8.097 -0.1590 -0.2571 -0.7458
  175SAPI  H19S19916   2.631   5.356   7.992 -0.4368 -0.0121  0.7802
  175SAPI  C22019917   2.561   5.542   8.098 -0.2811  0.9331  0.1637
  175SAPI  H20R19918   2.542   5.494   8.197  1.3498  1.5486  0.8030
  175SAPI  H20S19919   2.468   5.546   8.037  0.1772 -0.8252 -0.7188
  175SAPI  H20T19920   2.591   5.648   8.109 -1.9432  1.7269 -2.1517
  175SAPI   C3319921   2.634   5.308   6.979  0.2719  0.0995  0.1950
  175SAPI   H3X19922   2.554   5.238   6.947  0.6890 -0.7446  0.9518
  175SAPI   H3Y19923   2.640   5.389   6.904 -3.8772  0.8992  0.5208
  175SAPI   C3419924   2.606   5.364   7.122 -0.1870  0.2406  0.0427
  175SAPI   H4X19925   2.535   5.450   7.123 -0.3164  0.1671 -1.1446
  175SAPI   H4Y19926   2.706   5.390   7.163 -0.2991  0.5094  0.1480
  175SAPI   C3519927   2.545   5.244   7.195  0.2038 -0.5047 -0.1454
  175SAPI   H5X19928   2.618   5.161   7.209  0.0607 -0.2930  2.4072
  175SAPI   H5Y19929   2.457   5.210   7.136 -0.4545 -1.7446  1.4643
  175SAPI   C3619930   2.492   5.292   7.334  0.0374  0.3895 -0.4770
  175SAPI   H6X19931   2.444   5.201   7.375  2.1279  0.9026  3.5971
  175SAPI   H6Y19932   2.416   5.371   7.319 -0.5561 -0.0727  0.0375
  175SAPI   C3719933   2.600   5.333   7.439  0.1481 -0.6734  0.3829
  175SAPI   H7X19934   2.655   5.421   7.397 -1.1216 -0.1353 -0.2089
  175SAPI   H7Y19935   2.667   5.247   7.456 -1.6182 -1.6323  3.0870
  175SAPI   C3819936   2.548   5.356   7.577 -0.2733  0.7358 -0.4434
  175SAPI   H8X19937   2.482   5.445   7.583 -1.1685  0.3036 -2.8281
  175SAPI   H8Y19938   2.641   5.372   7.636  0.6773  0.3812 -1.8137
  175SAPI   C3919939   2.481   5.234   7.646  0.0162  0.1623  0.4105
  175SAPI   H9X19940   2.532   5.141   7.612 -0.8834  0.0312 -0.6161
  175SAPI   H9Y19941   2.377   5.212   7.616 -0.9102 -0.3055  3.6054
  175SAPI  C31019942   2.469   5.242   7.799  0.0863 -1.1864 -0.2969
  175SAPI  H10X19943   2.446   5.342   7.843  1.2999 -0.6888 -0.7472
  175SAPI  H10Y19944   2.562   5.222   7.856 -1.4313 -1.5096  2.2371
  175SAPI  C31119945   2.383   5.134   7.857 -0.3949  0.2728  0.2126
  175SAPI  H11X19946   2.404   5.029   7.825  1.6386  0.1786  1.6409
  175SAPI  H11Y19947   2.282   5.156   7.818 -0.4162 -0.9709 -0.4781
  175SAPI  C31219948   2.370   5.133   8.007  0.0849  0.1254  0.1253
  175SAPI  H12X19949   2.470   5.139   8.056  0.7002 -3.4064 -0.3775
  175SAPI  H12Y19950   2.340   5.030   8.036  0.0162  0.2500  0.4932
  175SAPI  C31319951   2.275   5.246   8.064 -0.0756  0.3543  0.3618
  175SAPI  H13X19952   2.184   5.266   8.003  1.0417 -1.0001 -1.8401
  175SAPI  H13Y19953   2.336   5.339   8.062 -0.3397  0.5212 -1.0164
  175SAPI  C31419954   2.246   5.233   8.210  0.7435  0.4131 -0.5230
  175SAPI  H14X19955   2.335   5.245   8.276 -0.3907 -1.2164  1.4175
  175SAPI  H14Y19956   2.232   5.125   8.228  0.6143  0.7859  2.0110
  175SAPI  C31519957   2.132   5.324   8.257  0.1188  0.0859  0.5306
  175SAPI  H15X19958   2.111   5.294   8.362 -0.7408  1.7809  0.8744
  175SAPI  H15Y19959   2.037   5.311   8.201 -1.0249  1.6367  2.0012
  175SAPI  C31619960   2.162   5.472   8.254  0.6721  0.1993  0.0244
  175SAPI  H16X19961   2.203   5.493   8.152  0.0156  3.3573  0.3045
  175SAPI  H16Y19962   2.242   5.496   8.327  2.4135  1.3119 -2.1256
  175SAPI  C31719963   2.035   5.563   8.268 -0.3148 -0.7020  0.4847
  175SAPI  H17X19964   1.962   5.528   8.192 -0.3468 -0.7015  0.5155
  175SAPI  H17Y19965   2.059   5.671   8.261 -4.1159  0.2884  0.2840
  175SAPI  C31819966   1.966   5.565   8.403 -0.1808 -0.1761 -0.5462
  175SAPI  H18X19967   2.018   5.630   8.476  0.5847 -0.5001 -0.7875
  175SAPI  H18Y19968   1.981   5.471   8.460 -0.7611 -1.4864 -2.4378
  175SAPI  H18Z19969   1.858   5.590   8.392  0.3486  1.8392 -1.8643
  176SAPI   C1219970   4.664   3.287   6.434 -0.0376  1.3597  0.0940
  176SAPI    H219971   4.643   3.230   6.527 -1.2657 -0.2064 -1.0751
  176SAPI    O219972   4.539   3.321   6.374  0.1065  0.1278 -0.1513
  176SAPI   HO219973   4.495   3.387   6.428  0.1145  0.3981 -0.4726
  176SAPI   C1319974   4.733   3.410   6.478  0.5375  0.3074 -0.0679
  176SAPI    H319975   4.830   3.381   6.525 -0.9815 -0.9660  2.5452
  176SAPI    O319976   4.659   3.474   6.582  0.2636 -0.2912  0.1617
  176SAPI   HO319977   4.581   3.517   6.546  0.0056  1.2414  2.3699
  176SAPI   C1419978   4.759   3.493   6.358  0.4841  0.6887  0.0005
  176SAPI    H419979   4.669   3.531   6.305  0.8345  0.1500 -1.0077
  176SAPI    O419980   4.829   3.611   6.404  0.5118  0.1925 -0.4460
  176SAPI   HO419981   4.790   3.686   6.358 -1.8715  0.2598  1.4908
  176SAPI   C1519982   4.843   3.416   6.255 -0.8110 -0.3239  0.1356
  176SAPI    H519983   4.942   3.402   6.303  0.0277 -0.9538 -1.6824
  176SAPI    O519984   4.866   3.500   6.137 -0.0960 -0.0282 -0.3274
  176SAPI   HO519985   4.935   3.469   6.078  1.8371  1.4798  0.9996
  176SAPI   C1619986   4.775   3.279   6.217 -0.0265  0.3413 -0.2156
  176SAPI    H619987   4.682   3.301   6.160  1.1468  0.2421 -2.2267
  176SAPI    O619988   4.853   3.205   6.120  0.2225 -0.1855 -0.1683
  176SAPI   HO619989   4.806   3.122   6.110 -3.1488  1.0757  2.8906
  176SAPI   C1119990   4.753   3.203   6.346 -0.0002 -0.2850  1.0570
  176SAPI    H119991   4.851   3.189   6.396  1.5008  2.8834 -0.6810
  176SAPI     P19992   4.756   2.941   6.392  0.2179  0.2251 -0.3432
  176SAPI   O1319993   4.898   2.924   6.354  0.2055  0.4561 -0.3212
  176SAPI   O1419994   4.662   2.832   6.360  0.4231  0.7118 -0.5568
  176SAPI   O1219995   4.692   3.076   6.318 -0.0667  0.6578 -0.0534
  176SAPI   O1119996   4.747   2.974   6.548 -0.1132 -1.3870  0.2691
  176SAPI    C119997   4.809   2.890   6.645  0.3044 -0.0441 -0.5579
  176SAPI    HA19998   4.778   2.784   6.634 -0.8184  0.3751 -1.5749
  176SAPI    HB19999   4.920   2.899   6.641  0.4415 -1.5610 -0.8051
  176SAPI    C220000   4.754   2.931   6.786 -0.6225 -0.6608  0.9736
  176SAPI    HS20001   4.643   2.929   6.786 -0.6610  0.6460  1.0442
  176SAPI   O2120002   4.810   3.061   6.824  0.1777 -0.0733 -0.3274
  176SAPI   C2120003   4.723   3.158   6.803 -0.0065 -0.2754  0.0208
  176SAPI   O2220004   4.611   3.153   6.756  0.4699  0.2511 -0.3434
  176SAPI   C2220005   4.795   3.288   6.858  0.4965  0.3752  0.2838
  176SAPI   H2R20006   4.887   3.269   6.917  0.3247  3.1933  1.5951
  176SAPI   H2S20007   4.831   3.348   6.772 -0.6274 -0.5787 -0.8965
  176SAPI    C320008   4.789   2.826   6.890  0.1085 -0.2411  0.4105
  176SAPI    HX20009   4.898   2.807   6.903  0.3665  1.3748  0.9404
  176SAPI    HY20010   4.747   2.733   6.847  1.9384 -3.3952  4.6422
  176SAPI   O3120011   4.710   2.853   7.009 -0.2575 -0.8333  0.3300
  176SAPI   C3120012   4.778   2.910   7.099 -0.2886 -0.1326 -0.7587
  176SAPI   O3220013   4.899   2.942   7.097  0.1596  0.1764 -0.0806
  176SAPI   C3220014   4.695   2.906   7.224 -0.0318 -0.7259  0.0358
  176SAPI   H2X20015   4.587   2.883   7.213 -0.7327  1.9366  0.6856
  176SAPI   H2Y20016   4.688   3.008   7.266 -0.2882 -0.7896  0.1472
  176SAPI   C2320017   4.698   3.388   6.941 -0.0636 -0.1068 -0.4899
  176SAPI   H3R20018   4.603   3.416   6.891  0.5008  1.4402 -0.7334
  176SAPI   H3S20019   4.748   3.487   6.935 -2.5588  1.4094  1.5217
  176SAPI   C2420020   4.676   3.341   7.091  0.0312  0.0354  0.8741
  176SAPI   H4R20021   4.660   3.433   7.150 -1.1100 -0.0520  0.7227
  176SAPI   H4S20022   4.773   3.291   7.114  0.6534  0.4111 -0.7300
  176SAPI   C2520023   4.561   3.250   7.115 -0.0115  0.4238 -0.2796
  176SAPI   H5R20024   4.542   3.204   7.016 -0.7735  2.5139 -1.1602
  176SAPI   C2620025   4.494   3.218   7.228 -0.1254  0.0993 -0.0500
  176SAPI   H6R20026   4.417   3.139   7.228  1.7453 -1.8020  0.7231
  176SAPI   C2720027   4.509   3.280   7.363  0.1035 -0.3748 -0.3324
  176SAPI   H7R20028   4.416   3.259   7.419 -1.3806 -0.1385 -2.5617
  176SAPI   H7S20029   4.504   3.391   7.360  0.5642 -0.3514 -0.3239
  176SAPI   C2820030   4.635   3.239   7.432 -0.6191 -1.1415  0.2528
  176SAPI   H8R20031   4.716   3.202   7.367 -0.6648 -0.1585 -0.3926
  176SAPI   C2920032   4.659   3.259   7.564  0.8596  0.2925  0.9842
  176SAPI   H9R20033   4.744   3.211   7.615 -0.1105 -0.5496  1.8742
  176SAPI  C21020034   4.559   3.324   7.661  0.0390 -0.1831 -0.2002
  176SAPI  H10R20035   4.458   3.350   7.622 -1.0654 -2.6596  0.7738
  176SAPI  H10S20036   4.602   3.423   7.685  1.9892 -0.9118 -0.5391
  176SAPI  C21120037   4.532   3.230   7.783 -0.6637 -0.6121  0.2409
  176SAPI  H11R20038   4.444   3.165   7.774 -1.3866 -0.0699  2.6784
  176SAPI  C21220039   4.615   3.227   7.890 -0.5999 -0.0646 -0.2582
  176SAPI  H12R20040   4.602   3.151   7.968  2.1038 -0.9951 -0.5947
  176SAPI  C21320041   4.739   3.311   7.909 -0.5822 -0.9358 -0.1552
  176SAPI  H13R20042   4.802   3.321   7.818  0.7698 -1.1562  0.7280
  176SAPI  H13S20043   4.803   3.256   7.981 -0.9961  0.2817  1.2042
  176SAPI  C21420044   4.719   3.452   7.958  0.2291  0.1510 -0.3095
  176SAPI  H14R20045   4.636   3.508   7.914 -1.1001 -0.7579  0.9145
  176SAPI  C21520046   4.789   3.509   8.058  0.2303 -0.3582 -0.1064
  176SAPI  H15R20047   4.756   3.607   8.094 -0.4755 -0.9422  0.8868
  176SAPI  C21620048   4.902   3.444   8.139 -0.1925  0.1269  0.5393
  176SAPI  H16R20049   5.001   3.437   8.089  0.5142  0.5792  1.8057
  176SAPI  H16S20050   4.877   3.344   8.181 -0.7748 -0.0129 -0.1230
  176SAPI  C21720051   4.931   3.527   8.263 -0.8365  0.2452 -0.2692
  176SAPI  H17R20052   5.008   3.474   8.322 -0.5848  0.5378 -0.3374
  176SAPI  H17S20053   4.847   3.538   8.335 -1.7777  0.7316 -1.4098
  176SAPI  C21820054   4.971   3.680   8.244  0.1605  0.0429 -0.0857
  176SAPI  H18R20055   4.891   3.741   8.197  0.4643  1.8884  1.6101
  176SAPI  H18S20056   5.056   3.677   8.173  0.8440 -1.8336  0.7539
  176SAPI  C21920057   4.995   3.757   8.374  0.1342 -0.4494 -0.9027
  176SAPI  H19R20058   5.063   3.842   8.351 -0.3402  0.7855  1.7909
  176SAPI  H19S20059   5.040   3.677   8.437 -2.3270 -1.0328  0.2448
  176SAPI  C22020060   4.869   3.805   8.450  0.1671  0.4181 -0.3134
  176SAPI  H20R20061   4.791   3.858   8.392 -1.7633 -1.5616  0.3197
  176SAPI  H20S20062   4.884   3.857   8.547  1.3002  0.1149 -0.3175
  176SAPI  H20T20063   4.807   3.715   8.469  0.6121  0.3158  0.7233
  176SAPI   C3320064   4.765   2.816   7.331 -0.0087 -0.2233 -0.0469
  176SAPI   H3X20065   4.860   2.870   7.347  0.1334  0.0750 -1.7371
  176SAPI   H3Y20066   4.793   2.717   7.288  0.6639 -0.5996  1.2001
  176SAPI   C3420067   4.684   2.835   7.463  0.0047  0.4782  0.2804
  176SAPI   H4X20068   4.588   2.780   7.458  1.6474 -2.8325  1.9170
  176SAPI   H4Y20069   4.666   2.943   7.481 -1.1956  0.3786 -0.1876
  176SAPI   C3520070   4.753   2.785   7.587 -0.2565  0.5106  0.0372
  176SAPI   H5X20071   4.850   2.837   7.580 -0.4131  0.5659 -3.3516
  176SAPI   H5Y20072   4.790   2.680   7.578  1.1962  1.0754 -0.9530
  176SAPI   C3620073   4.677   2.811   7.722 -0.2581 -0.3290  0.3247
  176SAPI   H6X20074   4.586   2.748   7.719  0.3221 -1.1810  0.1209
  176SAPI   H6Y20075   4.650   2.918   7.726 -0.3676 -0.3221 -0.4637
  176SAPI   C3720076   4.770   2.772   7.845 -0.2544  0.1593 -0.0288
  176SAPI   H7X20077   4.861   2.835   7.841 -0.6991  0.9966  1.9754
  176SAPI   H7Y20078   4.782   2.664   7.824 -1.0627  0.0654 -0.0551
  176SAPI   C3820079   4.696   2.783   7.982  0.1033  0.2940 -0.9001
  176SAPI   H8X20080   4.621   2.702   7.979  0.6867 -0.3975  1.2074
  176SAPI   H8Y20081   4.644   2.881   7.988  1.8550  1.2067  0.7388
  176SAPI   C3920082   4.792   2.744   8.100 -0.7696 -0.6027  0.1332
  176SAPI   H9X20083   4.852   2.652   8.081 -0.8365 -0.3274 -1.5673
  176SAPI   H9Y20084   4.725   2.731   8.188 -1.9315 -0.0681 -0.6450
  176SAPI  C31020085   4.883   2.860   8.145 -0.5160  0.4346 -0.1603
  176SAPI  H10X20086   4.824   2.953   8.130 -2.6605 -0.5964  1.3118
  176SAPI  H10Y20087   4.971   2.871   8.078 -0.8770 -0.8526 -0.8754
  176SAPI  C31120088   4.931   2.848   8.295  0.0173 -0.2347 -0.2226
  176SAPI  H11X20089   5.020   2.782   8.294 -0.8279 -1.4432  0.7941
  176SAPI  H11Y20090   4.849   2.817   8.365  1.5049 -1.0517  1.2299
  176SAPI  C31220091   4.982   2.988   8.350  1.1188 -0.1011  0.2904
  176SAPI  H12X20092   5.054   3.015   8.271  0.0874 -0.8574 -0.9508
  176SAPI  H12Y20093   5.041   2.977   8.443  1.3784 -0.3763  0.0953
  176SAPI  C31320094   4.863   3.088   8.364  0.2091  0.3008 -0.3535
  176SAPI  H13X20095   4.773   3.048   8.414  1.0629 -0.4316  0.6592
  176SAPI  H13Y20096   4.849   3.123   8.260  0.4549 -1.2021 -0.9209
  176SAPI  C31420097   4.897   3.208   8.457  0.3504 -0.5482  0.7031
  176SAPI  H14X20098   4.813   3.275   8.483 -0.8685 -1.5603 -0.5011
  176SAPI  H14Y20099   4.972   3.268   8.401 -0.6275  0.3391  0.3192
  176SAPI  C31520100   4.963   3.185   8.587 -0.4355  0.2992 -0.7128
  176SAPI  H15X20101   5.043   3.107   8.585 -1.8878 -1.2500 -1.8510
  176SAPI  H15Y20102   4.894   3.136   8.658  0.9432 -2.0872 -0.9079
  176SAPI  C31620103   5.023   3.311   8.641 -0.3951  0.0748 -0.5751
  176SAPI  H16X20104   4.946   3.388   8.662  0.3057  0.5754  0.1995
  176SAPI  H16Y20105   5.083   3.360   8.561 -0.4277 -0.7585 -1.1267
  176SAPI  C31720106   5.114   3.284   8.763  0.5987  0.1171 -0.1808
  176SAPI  H17X20107   5.181   3.199   8.741  1.0229  0.8857 -2.0926
  176SAPI  H17Y20108   5.045   3.266   8.848  1.2877 -0.0372  0.3436
  176SAPI  C31820109   5.193   3.415   8.796  0.5138  0.3722 -0.0867
  176SAPI  H18X20110   5.130   3.493   8.843  1.4057 -0.1116  2.0186
  176SAPI  H18Y20111   5.241   3.451   8.703 -0.2200  2.5860  0.3173
  176SAPI  H18Z20112   5.275   3.397   8.868  0.5309  0.4749 -0.0799
  177SLPC     N20113   3.728   1.815  11.010  0.4017 -0.2542  0.3723
  177SLPC   C1320114   3.719   1.677  10.931  0.4764 -0.4338 -0.3567
  177SLPC  H13A20115   3.699   1.682  10.825 -1.5074 -0.0223  0.0001
  177SLPC  H13B20116   3.819   1.640  10.947  0.9726  1.8416  3.0786
  177SLPC  H13C20117   3.653   1.609  10.983  0.2456  1.2379  1.6972
  177SLPC   C1420118   3.765   1.782  11.154 -0.2718 -0.1465  0.0244
  177SLPC  H14A20119   3.867   1.749  11.164 -0.9761 -2.0208  1.5605
  177SLPC  H14B20120   3.746   1.868  11.216  0.1419 -0.4481  0.5722
  177SLPC  H14C20121   3.695   1.706  11.186 -1.2987  1.1919  1.0688
  177SLPC   C1520122   3.581   1.852  11.021  0.5015  0.3418  0.8947
  177SLPC  H15A20123   3.556   1.890  10.922  2.8161  0.5647  0.3308
  177SLPC  H15B20124   3.517   1.769  11.047  1.5733 -0.6484  0.4714
  177SLPC  H15C20125   3.556   1.928  11.093 -0.3855 -0.6092  1.6149
  177SLPC   C1220126   3.820   1.911  10.952 -0.3939 -0.0248  0.1647
  177SLPC  H12A20127   3.916   1.860  10.945 -0.8876 -1.2605  1.8064
  177SLPC  H12B20128   3.823   1.991  11.024  0.7104  0.0025  0.1086
  177SLPC   C1120129   3.789   1.980  10.813  0.9000 -0.5106  0.8253
  177SLPC  H11A20130   3.771   1.910  10.729  0.2684 -0.0253  0.5444
  177SLPC  H11B20131   3.879   2.042  10.794  0.0456  0.4483 -0.1456
  177SLPC     P20132   3.671   2.195  10.916  0.1422  0.1826 -0.1649
  177SLPC   O1320133   3.568   2.178  11.016  0.1118  0.4887 -0.2626
  177SLPC   O1420134   3.801   2.221  10.972 -1.0458  0.2819 -0.2500
  177SLPC   O1220135   3.674   2.064  10.824 -0.2515  0.2895 -0.2197
  177SLPC   O1120136   3.619   2.308  10.813  0.0933 -0.1725  0.4714
  177SLPC    C120137   3.516   2.283  10.717  0.5177 -0.4056 -0.5942
  177SLPC    HA20138   3.540   2.202  10.645 -0.8753 -1.8901  0.5284
  177SLPC    HB20139   3.422   2.252  10.768  1.8653 -0.8923  1.7812
  177SLPC    C220140   3.488   2.414  10.635  0.0927 -0.5342 -0.1003
  177SLPC    HS20141   3.447   2.490  10.705  3.1476  0.5512  0.6472
  177SLPC   O2120142   3.397   2.388  10.531 -0.2061  0.1630  0.7389
  177SLPC   C2120143   3.268   2.391  10.564 -0.6879  0.0675 -0.0878
  177SLPC   O2220144   3.222   2.436  10.666  0.0897 -0.1479 -0.1279
  177SLPC   C2220145   3.188   2.348  10.441  0.2390 -0.1416 -0.6626
  177SLPC   H2R20146   3.250   2.375  10.353  0.2586 -1.2271 -0.9932
  177SLPC   H2S20147   3.192   2.237  10.435  1.0303 -0.0898 -1.2648
  177SLPC    C320148   3.621   2.484  10.580  0.1472 -0.3212 -0.1071
  177SLPC    HX20149   3.665   2.405  10.515 -0.7230  0.4669 -1.7263
  177SLPC    HY20150   3.698   2.500  10.658 -0.4057  1.1309  0.1690
  177SLPC   O3120151   3.610   2.596  10.499 -0.2644 -0.5688 -0.3577
  177SLPC   C3120152   3.564   2.704  10.562  0.6084  0.4708  0.0916
  177SLPC   O3220153   3.526   2.708  10.677 -0.4334  0.0573 -0.7906
  177SLPC   C3220154   3.552   2.828  10.470 -0.1360  1.2366 -0.3243
  177SLPC   H2X20155   3.596   2.909  10.532  0.3035  0.8193 -0.0885
  177SLPC   H2Y20156   3.443   2.848  10.458 -0.2539  0.6534 -0.2592
  177SLPC   C2320157   3.042   2.388  10.444 -0.4591  0.9116  0.4952
  177SLPC   H3R20158   3.020   2.493  10.470  0.9317  1.0071  1.3928
  177SLPC   H3S20159   2.989   2.324  10.518 -1.4639  1.3554  0.1712
  177SLPC   C2420160   2.981   2.354  10.305  0.1838 -0.2578 -0.4734
  177SLPC   H4R20161   2.994   2.246  10.285  0.4471 -0.0316 -1.5705
  177SLPC   H4S20162   3.044   2.404  10.229 -1.1945  0.5032 -1.1550
  177SLPC   C2520163   2.837   2.392  10.313  0.1729  0.1873  0.3246
  177SLPC   H5R20164   2.837   2.500  10.339  0.3969 -0.1094  1.6360
  177SLPC   H5S20165   2.786   2.333  10.392 -0.2130  1.2761  0.9034
  177SLPC   C2620166   2.757   2.355  10.190 -0.2108 -0.1704  0.1835
  177SLPC   H6R20167   2.666   2.300  10.221  0.3441  0.4029  3.1165
  177SLPC   H6S20168   2.817   2.280  10.134  0.0746 -0.7446  1.2284
  177SLPC   C2720169   2.714   2.473  10.105 -0.7938 -0.3005 -0.0811
  177SLPC   H7R20170   2.675   2.559  10.163  3.3092  0.5761  1.7016
  177SLPC   H7S20171   2.632   2.453  10.032 -2.2737 -2.6998  2.0366
  177SLPC   C2820172   2.833   2.513  10.013 -0.5926 -0.3652 -0.2328
  177SLPC   H8R20173   2.890   2.424   9.977  1.5213  1.3036 -1.1931
  177SLPC   H8S20174   2.902   2.564  10.084 -1.6155  0.1147  0.4426
  177SLPC   C2920175   2.775   2.603   9.912  0.1212  0.1880 -0.1077
  177SLPC   H9R20176   2.730   2.698   9.945 -3.1110 -1.3293  0.1577
  177SLPC  C21020177   2.772   2.571   9.776  0.1408  0.2232  0.1910
  177SLPC  H10R20178   2.711   2.639   9.714 -0.5737  0.7413  1.4283
  177SLPC  C21120179   2.819   2.441   9.711  0.0313  0.2455 -0.8544
  177SLPC  H11R20180   2.910   2.411   9.768  0.8067  1.6886 -1.2759
  177SLPC  H11S20181   2.741   2.363   9.725  0.5992 -0.5395 -1.8227
  177SLPC  C21220182   2.857   2.435   9.568 -0.7950 -0.5949  0.3248
  177SLPC  H12R20183   2.848   2.530   9.513  0.2980 -0.7413 -0.1291
  177SLPC  C21320184   2.919   2.340   9.504  0.0451 -0.1118  0.4752
  177SLPC  H13R20185   2.934   2.358   9.397  2.3752  1.5930  1.0028
  177SLPC  C21420186   2.974   2.212   9.561 -0.2029 -0.0418 -0.0844
  177SLPC  H14R20187   2.917   2.126   9.521  0.7553  0.6913 -3.3250
  177SLPC  H14S20188   2.959   2.220   9.671  3.9417  0.3180  0.6062
  177SLPC  C21520189   3.130   2.197   9.547 -0.4596 -0.0750  0.0609
  177SLPC  H15R20190   3.166   2.118   9.617 -0.7378  0.5001  0.8558
  177SLPC  H15S20191   3.182   2.291   9.572  0.9670 -0.6210 -0.6931
  177SLPC  C21620192   3.173   2.136   9.413  0.5268 -0.0571  0.4124
  177SLPC  H16R20193   3.112   2.046   9.389  0.1667  0.3967 -0.4019
  177SLPC  H16S20194   3.280   2.109   9.428  0.5312  0.4473  1.3952
  177SLPC  C21720195   3.168   2.220   9.285  0.6265 -0.0558 -0.8230
  177SLPC  H17R20196   3.210   2.322   9.296  1.7693 -0.6816  0.9633
  177SLPC  H17S20197   3.062   2.243   9.261  1.2591  2.8223 -1.1628
  177SLPC  C21820198   3.237   2.160   9.156  0.4831 -0.1408 -0.3822
  177SLPC  H18R20199   3.347   2.158   9.174  0.2570  0.8479  1.2839
  177SLPC  H18S20200   3.212   2.225   9.069 -1.7726 -0.1344  0.2260
  177SLPC  H18T20201   3.188   2.063   9.133 -0.2667 -0.0193  0.6669
  177SLPC   C3320202   3.619   2.800  10.335 -0.3398 -0.5535  0.1042
  177SLPC   H3X20203   3.566   2.723  10.275 -0.7299  0.0915 -0.3954
  177SLPC   H3Y20204   3.719   2.758  10.356 -1.1751 -2.1794  1.0032
  177SLPC   C3420205   3.617   2.930  10.247  0.2717 -0.1690 -0.2497
  177SLPC   H4X20206   3.699   2.996  10.282  0.2316 -0.7569  1.0009
  177SLPC   H4Y20207   3.526   2.992  10.261  1.1011  1.0070  0.0314
  177SLPC   C3520208   3.637   2.892  10.100 -0.3742 -0.5171  0.6379
  177SLPC   H5X20209   3.556   2.820  10.073 -0.8415  0.2053  0.0514
  177SLPC   H5Y20210   3.737   2.843  10.104  0.9318  1.5403 -2.6676
  177SLPC   C3620211   3.629   3.007   9.994 -0.3996  0.0209 -0.0674
  177SLPC   H6X20212   3.694   3.092  10.027 -2.3121  1.6443 -0.3093
  177SLPC   H6Y20213   3.526   3.046   9.980 -0.3801  0.9629  2.0664
  177SLPC   C3720214   3.690   2.966   9.857  0.3800  0.3701 -0.3376
  177SLPC   H7X20215   3.619   2.898   9.804 -1.4074  1.4647  0.5450
  177SLPC   H7Y20216   3.783   2.911   9.882  0.0481  0.0289  0.1863
  177SLPC   C3820217   3.711   3.085   9.757 -0.3845  1.1813 -0.4279
  177SLPC   H8X20218   3.789   3.158   9.789  0.7052 -0.6513  1.2795
  177SLPC   H8Y20219   3.616   3.138   9.732 -1.3741 -0.4216 -0.1837
  177SLPC   C3920220   3.755   3.033   9.615  0.6006  0.1680  0.1639
  177SLPC   H9X20221   3.684   2.949   9.601  0.4320  0.5576 -1.4586
  177SLPC   H9Y20222   3.860   2.998   9.627  0.7057 -0.4330 -2.1908
  177SLPC  C31020223   3.739   3.133   9.502  0.1782  0.4145 -0.4089
  177SLPC  H10X20224   3.774   3.230   9.542  1.0608 -0.6386  1.5414
  177SLPC  H10Y20225   3.632   3.150   9.478  0.2970  1.4365 -0.2493
  177SLPC  C31120226   3.815   3.088   9.380 -0.4492  0.1982 -0.5188
  177SLPC  H11X20227   3.786   2.983   9.355  0.4981  0.3401 -2.3813
  177SLPC  H11Y20228   3.923   3.073   9.402  0.0544  0.9261 -2.3182
  177SLPC  C31220229   3.819   3.175   9.252  0.0168 -0.2215 -0.6153
  177SLPC  H12X20230   3.880   3.128   9.173 -0.3413 -0.6359 -0.6487
  177SLPC  H12Y20231   3.862   3.275   9.273 -2.1637  0.7119 -0.2786
  177SLPC  C31320232   3.682   3.197   9.192 -1.2080 -0.5078 -0.5005
  177SLPC  H13X20233   3.619   3.258   9.260 -0.8936 -0.4623 -0.2514
  177SLPC  H13Y20234   3.634   3.096   9.189 -1.3887 -0.4083 -1.0648
  177SLPC  C31420235   3.692   3.261   9.052 -0.7516 -1.3418 -0.3710
  177SLPC  H14X20236   3.788   3.231   9.005 -0.2428 -0.2489 -0.0566
  177SLPC  H14Y20237   3.700   3.371   9.056  0.2875 -1.3512 -1.4069
  177SLPC  C31520238   3.560   3.242   8.979  0.2935  0.0267  0.2868
  177SLPC  H15X20239   3.474   3.260   9.048 -0.0570 -0.1629 -0.0932
  177SLPC  H15Y20240   3.556   3.137   8.943 -1.7290 -0.8604  2.7624
  177SLPC  C31620241   3.546   3.327   8.851  0.2845 -0.0662 -0.1170
  177SLPC  H16X20242   3.646   3.360   8.816  1.1481  0.1790  2.3398
  177SLPC  H16Y20243   3.489   3.419   8.878 -2.6903 -1.0044 -2.6288
  177SLPC  C31720244   3.472   3.250   8.742 -0.0911  0.2765  0.4089
  177SLPC  H17X20245   3.381   3.207   8.789 -0.9869  2.2712  0.6095
  177SLPC  H17Y20246   3.540   3.169   8.708  1.8699  1.4519  1.3807
  177SLPC  C31820247   3.429   3.334   8.628  0.4311 -0.1458  0.0575
  177SLPC  H18X20248   3.364   3.419   8.660 -1.5640 -1.7094  0.3455
  177SLPC  H18Y20249   3.375   3.275   8.551 -1.2542  2.6084 -1.0096
  177SLPC  H18Z20250   3.514   3.394   8.590  0.1524  2.9425  3.6983
  178SLPC     N20251   6.042   2.059  10.684 -0.6415 -0.0999  0.1875
  178SLPC   C1320252   5.949   2.019  10.576  0.1460 -0.8104 -0.4619
  178SLPC  H13A20253   5.987   1.936  10.517  0.8852 -1.0531  0.3244
  178SLPC  H13B20254   5.853   1.997  10.619 -1.2350  2.0335 -1.8941
  178SLPC  H13C20255   5.926   2.106  10.517  0.6712  0.1761  0.7340
  178SLPC   C1420256   6.052   1.934  10.774 -0.2189 -0.2336  1.0228
  178SLPC  H14A20257   6.104   1.852  10.726 -0.6024  0.2674 -0.2912
  178SLPC  H14B20258   6.117   1.972  10.852  0.1177 -2.1964  1.7530
  178SLPC  H14C20259   5.960   1.910  10.825 -1.0711  1.6716  0.4519
  178SLPC   C1520260   5.978   2.178  10.764 -0.0152 -0.3928 -0.1345
  178SLPC  H15A20261   6.011   2.269  10.716 -0.4149  0.5153  1.2265
  178SLPC  H15B20262   5.870   2.175  10.773 -0.0121  1.0219  0.7150
  178SLPC  H15C20263   6.022   2.184  10.863 -2.2987 -0.0787  0.9294
  178SLPC   C1220264   6.176   2.091  10.622 -0.1593 -0.2808  0.7063
  178SLPC  H12A20265   6.171   2.156  10.536 -2.4807 -0.5384  0.5797
  178SLPC  H12B20266   6.201   1.999  10.571 -2.5747 -0.0944 -1.0392
  178SLPC   C1120267   6.289   2.134  10.712 -0.2047 -0.2704  0.8196
  178SLPC  H11A20268   6.391   2.137  10.668 -0.7453  2.3746 -0.4432
  178SLPC  H11B20269   6.296   2.063  10.798 -0.2861 -2.4607 -0.8981
  178SLPC     P20270   6.278   2.398  10.697  0.3747  0.2149  0.0299
  178SLPC   O1320271   6.185   2.396  10.580 -0.2825  1.0157  0.2891
  178SLPC   O1420272   6.263   2.506  10.791  0.2103  0.5020  0.2973
  178SLPC   O1220273   6.260   2.257  10.776 -0.4552 -0.0371 -0.0582
  178SLPC   O1120274   6.419   2.395  10.630  0.1961 -0.1795  0.2797
  178SLPC    C120275   6.536   2.394  10.710  0.2451  0.1168  0.9121
  178SLPC    HA20276   6.525   2.453  10.804  1.1503 -0.9160  1.6969
  178SLPC    HB20277   6.560   2.292  10.747  1.1147  0.7618  2.2091
  178SLPC    C220278   6.658   2.456  10.640  0.0233 -0.0809  1.1500
  178SLPC    HS20279   6.644   2.566  10.637  1.0023  0.1688  3.6902
  178SLPC   O2120280   6.669   2.397  10.507 -0.2709  0.7175 -0.4632
  178SLPC   C2120281   6.640   2.464  10.401  0.2785 -0.0512 -0.6669
  178SLPC   O2220282   6.606   2.580  10.397 -0.3816  0.1861  0.0393
  178SLPC   C2220283   6.669   2.380  10.280 -0.1512 -0.3517  0.0492
  178SLPC   H2R20284   6.732   2.437  10.209 -0.8746  0.4954  0.0716
  178SLPC   H2S20285   6.727   2.290  10.311  0.5445 -0.3690 -1.2193
  178SLPC    C320286   6.795   2.438  10.711  0.8149 -0.3792  0.5324
  178SLPC    HX20287   6.816   2.331  10.687 -1.1467 -0.6355 -0.2870
  178SLPC    HY20288   6.774   2.453  10.819  0.3720  1.3586  0.2433
  178SLPC   O3120289   6.888   2.542  10.658  0.0411  0.1068  0.0095
  178SLPC   C3120290   6.971   2.497  10.567 -0.2711  0.2213 -0.1631
  178SLPC   O3220291   7.000   2.382  10.552 -0.7330  0.5307  0.4292
  178SLPC   C3220292   7.022   2.617  10.486 -0.1937  0.0760 -0.3835
  178SLPC   H2X20293   7.062   2.693  10.558  1.0331 -0.0338 -0.9190
  178SLPC   H2Y20294   6.949   2.679  10.430 -1.2263  1.2435  2.0965
  178SLPC   C2320295   6.548   2.320  10.201 -0.3621  0.2094  0.1162
  178SLPC   H3R20296   6.580   2.254  10.119  0.2952  0.2824  0.3118
  178SLPC   H3S20297   6.487   2.401  10.155 -0.4749  0.5536  0.8421
  178SLPC   C2420298   6.462   2.235  10.288  0.2629  1.3093 -0.5114
  178SLPC   H4R20299   6.482   2.252  10.396  1.2589  0.2954 -0.5149
  178SLPC   H4S20300   6.486   2.133  10.252 -0.5621  1.4671 -1.5229
  178SLPC   C2520301   6.313   2.261  10.268 -0.0973 -0.5572 -0.4581
  178SLPC   H5R20302   6.294   2.369  10.289 -0.6902 -0.7418 -0.0429
  178SLPC   H5S20303   6.269   2.194  10.345  1.0351 -1.8874 -0.9292
  178SLPC   C2620304   6.250   2.243  10.130 -0.3818  0.0127  0.1647
  178SLPC   H6R20305   6.270   2.140  10.092  0.5597 -0.2706  1.3692
  178SLPC   H6S20306   6.287   2.317  10.056 -4.3698  2.2176  0.0827
  178SLPC   C2720307   6.096   2.254  10.137  0.0299  0.5070  0.5309
  178SLPC   H7R20308   6.073   2.362  10.154  0.5262  0.5734  0.8217
  178SLPC   H7S20309   6.060   2.211  10.232  0.1482  0.9586  0.7846
  178SLPC   C2820310   6.009   2.219  10.016 -0.5023 -0.0391  0.1581
  178SLPC   H8R20311   6.015   2.109  10.000 -1.4565  0.1348 -1.6601
  178SLPC   H8S20312   6.053   2.273   9.929  0.1067  0.8917  1.0100
  178SLPC   C2920313   5.870   2.270  10.022  0.1922 -0.1261  0.1302
  178SLPC   H9R20314   5.826   2.295  10.120 -0.6388 -0.5606 -0.1240
  178SLPC  C21020315   5.789   2.291   9.917  0.1790 -0.2755 -0.1983
  178SLPC  H10R20316   5.695   2.344   9.940  1.2645  1.1116  1.2522
  178SLPC  C21120317   5.827   2.276   9.773  0.9003 -0.5270  0.6688
  178SLPC  H11R20318   5.726   2.264   9.730  0.8489 -4.1499  1.4549
  178SLPC  H11S20319   5.885   2.183   9.756  0.2907 -0.5015 -1.8262
  178SLPC  C21220320   5.906   2.394   9.722  0.1858 -0.3370 -0.1123
  178SLPC  H12R20321   5.953   2.448   9.805 -1.4032 -0.6340  1.0219
  178SLPC  C21320322   5.940   2.418   9.600  0.3634  0.2446 -0.2255
  178SLPC  H13R20323   5.990   2.514   9.576 -2.3910  2.0782  0.9200
  178SLPC  C21420324   5.907   2.329   9.479  0.1099 -0.0651  0.0188
  178SLPC  H14R20325   5.891   2.225   9.515 -1.6513 -0.6873 -2.3149
  178SLPC  H14S20326   5.998   2.325   9.415  0.6938  0.6469  0.7808
  178SLPC  C21520327   5.782   2.366   9.397  1.2076  0.1536 -0.0830
  178SLPC  H15R20328   5.772   2.475   9.382  0.4261  0.3651  1.7260
  178SLPC  H15S20329   5.685   2.338   9.444  0.9722 -1.0545 -1.2126
  178SLPC  C21620330   5.780   2.294   9.265 -0.7027  0.1274  0.4545
  178SLPC  H16R20331   5.850   2.340   9.191  0.1553 -0.4173  0.9186
  178SLPC  H16S20332   5.677   2.292   9.221 -0.5464  2.0755 -0.1247
  178SLPC  C21720333   5.821   2.146   9.274 -0.2194 -0.4759 -0.0823
  178SLPC  H17R20334   5.925   2.132   9.309 -0.8771 -1.9221  1.4452
  178SLPC  H17S20335   5.822   2.115   9.167  0.3150 -0.5721 -0.0494
  178SLPC  C21820336   5.734   2.050   9.356  0.1527 -0.1499 -0.2122
  178SLPC  H18R20337   5.774   1.947   9.347 -1.6861 -1.4066  3.7674
  178SLPC  H18S20338   5.634   2.056   9.308 -0.0134  1.8217  0.2821
  178SLPC  H18T20339   5.731   2.075   9.464 -1.5252 -0.5391 -0.1423
  178SLPC   C3320340   7.137   2.570  10.392  0.2293  0.3603  0.0062
  178SLPC   H3X20341   7.098   2.487  10.328  0.0018 -0.1963  0.8512
  178SLPC   H3Y20342   7.209   2.516  10.457  0.7264 -0.9020 -1.5242
  178SLPC   C3420343   7.187   2.681  10.302 -0.2890 -0.3764 -0.1882
  178SLPC   H4X20344   7.251   2.747  10.364  0.3697 -0.6750 -0.5385
  178SLPC   H4Y20345   7.095   2.738  10.277 -0.4228  0.4088  1.9422
  178SLPC   C3520346   7.273   2.636  10.177 -0.0657 -0.1523  0.4918
  178SLPC   H5X20347   7.211   2.568  10.113  1.5008 -0.3298 -0.9157
  178SLPC   H5Y20348   7.363   2.578  10.208  0.8752  1.0408  0.0558
  178SLPC   C3620349   7.317   2.755  10.093 -0.1881  0.2885  0.6441
  178SLPC   H6X20350   7.382   2.823  10.152 -0.8168  1.2935  0.2010
  178SLPC   H6Y20351   7.230   2.823  10.081 -1.2943 -1.3325 -1.1448
  178SLPC   C3720352   7.373   2.728   9.946 -0.2689  0.0961 -0.8415
  178SLPC   H7X20353   7.384   2.829   9.900  1.7472 -1.0490 -3.0686
  178SLPC   H7Y20354   7.290   2.676   9.894  1.5383 -2.0500 -1.7303
  178SLPC   C3820355   7.506   2.653   9.934 -0.3926 -0.5601  0.1230
  178SLPC   H8X20356   7.511   2.582  10.019  0.9515 -1.2971 -0.5405
  178SLPC   H8Y20357   7.586   2.730   9.938 -2.0029  1.1637  1.3058
  178SLPC   C3920358   7.513   2.571   9.799  0.0962  0.0628  0.0094
  178SLPC   H9X20359   7.427   2.502   9.787  1.2030 -1.3957  0.2499
  178SLPC   H9Y20360   7.603   2.506   9.810  0.8745  0.9338 -1.0537
  178SLPC  C31020361   7.516   2.666   9.682 -0.5398 -0.2489  0.2480
  178SLPC  H10X20362   7.582   2.749   9.714 -1.0193 -0.3461  1.5310
  178SLPC  H10Y20363   7.415   2.711   9.678  0.1749  1.3509 -0.7630
  178SLPC  C31120364   7.557   2.602   9.545 -0.6801 -0.2015 -0.0107
  178SLPC  H11X20365   7.530   2.495   9.531  2.8759 -1.1726 -0.5328
  178SLPC  H11Y20366   7.668   2.606   9.536 -0.7886  0.1862 -1.5905
  178SLPC  C31220367   7.504   2.691   9.438 -1.0148  0.2456 -0.3649
  178SLPC  H12X20368   7.537   2.796   9.455 -0.4141  0.0594 -0.3306
  178SLPC  H12Y20369   7.393   2.690   9.433 -1.1296  1.1960  1.2963
  178SLPC  C31320370   7.546   2.650   9.295 -0.3438 -0.5544  0.2545
  178SLPC  H13X20371   7.531   2.540   9.285 -1.8524 -0.3866  0.4263
  178SLPC  H13Y20372   7.653   2.677   9.281 -0.3052 -0.9289 -0.2177
  178SLPC  C31420373   7.464   2.731   9.193 -0.4546  0.3967  0.1218
  178SLPC  H14X20374   7.487   2.837   9.218 -0.1407 -0.1120  2.1255
  178SLPC  H14Y20375   7.355   2.714   9.208 -1.0496  3.1273 -0.5673
  178SLPC  C31520376   7.496   2.700   9.047 -0.1089  0.7293 -0.5404
  178SLPC  H15X20377   7.607   2.698   9.039 -0.2082 -1.6065 -2.3646
  178SLPC  H15Y20378   7.474   2.594   9.023 -0.5334  1.1795 -2.2660
  178SLPC  C31620379   7.423   2.790   8.944  0.0147 -0.1000  0.1626
  178SLPC  H16X20380   7.505   2.847   8.896 -0.8175  0.8731 -0.1613
  178SLPC  H16Y20381   7.358   2.863   8.998  0.1535  0.7569 -0.7981
  178SLPC  C31720382   7.359   2.714   8.829 -0.4742 -0.0874 -0.1054
  178SLPC  H17X20383   7.275   2.652   8.868 -2.5044  2.1170 -0.7747
  178SLPC  H17Y20384   7.439   2.647   8.788 -0.0933 -0.9504  1.9319
  178SLPC  C31820385   7.313   2.806   8.717  0.5424  0.4261  0.2166
  178SLPC  H18X20386   7.390   2.881   8.691 -0.1241 -0.1610 -4.2613
  178SLPC  H18Y20387   7.228   2.858   8.767 -0.5317 -1.0076 -0.0370
  178SLPC  H18Z20388   7.276   2.760   8.622 -2.0704  1.3284  0.7099
  179SLPC     N20389   2.259   6.427  10.696 -0.5742 -0.3722 -0.3956
  179SLPC   C1320390   2.354   6.520  10.633 -0.1520 -0.2731  0.1509
  179SLPC  H13A20391   2.437   6.549  10.696 -1.1940 -1.2532  2.0664
  179SLPC  H13B20392   2.390   6.464  10.549  0.8370 -1.0590  1.0681
  179SLPC  H13C20393   2.297   6.605  10.597  2.0521  0.9036 -0.8190
  179SLPC   C1420394   2.169   6.496  10.796  0.4540 -1.7127  0.2627
  179SLPC  H14A20395   2.115   6.574  10.744  0.0104 -1.3455  1.2337
  179SLPC  H14B20396   2.097   6.428  10.840 -1.6583  0.3408  0.2107
  179SLPC  H14C20397   2.232   6.535  10.875  1.2660 -1.3981 -0.5235
  179SLPC   C1520398   2.334   6.321  10.772  0.6852  0.3192  0.6886
  179SLPC  H15A20399   2.371   6.247  10.703  0.8112  0.3746  0.6973
  179SLPC  H15B20400   2.414   6.372  10.824  3.4964 -0.8681 -2.1403
  179SLPC  H15C20401   2.268   6.265  10.838  0.5734 -2.7340 -1.7758
  179SLPC   C1220402   2.170   6.358  10.586  0.1426 -0.2764  0.2876
  179SLPC  H12A20403   2.107   6.432  10.536 -1.0738 -2.0339 -0.9060
  179SLPC  H12B20404   2.107   6.294  10.646  1.7385 -0.4423  1.8438
  179SLPC   C1120405   2.237   6.284  10.463 -0.0851 -0.2025  0.7638
  179SLPC  H11A20406   2.157   6.239  10.400  0.3785 -0.5455  0.4188
  179SLPC  H11B20407   2.298   6.198  10.497 -1.6293 -2.3836 -1.6733
  179SLPC     P20408   2.245   6.470  10.282 -0.4659  0.0729  0.6469
  179SLPC   O1320409   2.104   6.495  10.326 -0.3175  0.7347 -0.1053
  179SLPC   O1420410   2.334   6.593  10.265  0.0406  0.3614 -0.6220
  179SLPC   O1220411   2.317   6.368  10.383  0.0227 -0.1902 -0.0755
  179SLPC   O1120412   2.250   6.410  10.139  0.0489  0.1937  0.2507
  179SLPC    C120413   2.238   6.273  10.098 -0.0104 -0.0217 -0.1265
  179SLPC    HA20414   2.150   6.230  10.150 -0.6809  0.7020 -0.6482
  179SLPC    HB20415   2.241   6.266   9.987 -0.8685  0.8365 -0.2231
  179SLPC    C220416   2.368   6.200  10.138 -0.4566  0.6038  0.2409
  179SLPC    HS20417   2.378   6.216  10.248  1.1726  1.4556 -0.0027
  179SLPC   O2120418   2.479   6.276  10.084  0.3680 -0.3983  0.2987
  179SLPC   C2120419   2.595   6.239  10.124 -0.8765  0.3770 -0.0586
  179SLPC   O2220420   2.623   6.157  10.210  0.1698 -0.3147 -0.0364
  179SLPC   C2220421   2.686   6.339  10.060 -0.3461  0.4694  0.5959
  179SLPC   H2R20422   2.659   6.444  10.087 -0.5805  0.5640  0.0034
  179SLPC   H2S20423   2.787   6.312  10.098  0.1769  1.8742  0.2737
  179SLPC    C320424   2.363   6.051  10.091  0.1376  0.1556  0.2943
  179SLPC    HX20425   2.271   6.013  10.141 -0.1070  0.4417  0.0611
  179SLPC    HY20426   2.452   5.998  10.131  0.3782 -1.1738 -1.8740
  179SLPC   O3120427   2.359   6.040   9.944  0.1314 -0.4687 -0.0437
  179SLPC   C3120428   2.333   5.917   9.897  0.2105 -0.4000  0.6148
  179SLPC   O3220429   2.283   5.827   9.961 -0.3155  0.3334 -0.1288
  179SLPC   C3220430   2.357   5.920   9.743 -0.4139 -0.2805 -0.5131
  179SLPC   H2X20431   2.426   5.842   9.705  0.3594 -0.4510  1.1201
  179SLPC   H2Y20432   2.390   6.019   9.704 -4.1849  1.0963 -0.6283
  179SLPC   C2320433   2.685   6.334   9.912  0.1107  0.3221  0.4626
  179SLPC   H3R20434   2.760   6.401   9.865 -0.3520  0.2602 -0.3901
  179SLPC   H3S20435   2.582   6.348   9.873 -1.3672 -2.2603  2.9958
  179SLPC   C2420436   2.738   6.191   9.863 -0.1280  0.0519 -0.0422
  179SLPC   H4R20437   2.664   6.114   9.893 -1.3399  1.1969  0.0176
  179SLPC   H4S20438   2.829   6.177   9.925 -0.6082  0.9909  0.9029
  179SLPC   C2520439   2.759   6.179   9.715  0.0161 -0.4183 -0.3285
  179SLPC   H5R20440   2.809   6.082   9.700  1.5782 -0.1408  2.3318
  179SLPC   H5S20441   2.835   6.254   9.685 -0.0584  0.1628  0.8824
  179SLPC   C2620442   2.634   6.182   9.630  0.4380  0.2153  0.2595
  179SLPC   H6R20443   2.579   6.278   9.622  1.1805  0.5522 -1.3098
  179SLPC   H6S20444   2.556   6.106   9.649 -0.6753  0.4898 -2.6913
  179SLPC   C2720445   2.672   6.127   9.490  0.0688  0.3172 -0.0012
  179SLPC   H7R20446   2.749   6.047   9.490 -0.3294 -0.0757 -0.2718
  179SLPC   H7S20447   2.715   6.216   9.438 -1.0623  0.9303  0.0692
  179SLPC   C2820448   2.558   6.064   9.408  0.2122  0.9283 -0.3661
  179SLPC   H8R20449   2.478   6.138   9.385 -0.3407  0.2464 -0.6785
  179SLPC   H8S20450   2.509   5.992   9.477  1.5863  0.8808  0.6032
  179SLPC   C2920451   2.617   5.983   9.290 -0.0895 -0.5673  0.6013
  179SLPC   H9R20452   2.726   5.970   9.292  0.3377  0.9096 -3.3131
  179SLPC  C21020453   2.555   5.972   9.168 -0.7716 -1.2193  0.0664
  179SLPC  H10R20454   2.617   5.931   9.087  1.0883 -1.4334  1.5212
  179SLPC  C21120455   2.416   6.039   9.135 -0.2640  0.7020 -0.5695
  179SLPC  H11R20456   2.429   6.148   9.150  3.3060  0.2575  0.6019
  179SLPC  H11S20457   2.332   6.004   9.199  1.3168 -0.4120  0.9931
  179SLPC  C21220458   2.370   5.998   8.996 -0.2108  0.6017  0.0401
  179SLPC  H12R20459   2.312   5.904   8.992 -0.3036  0.5682  1.6687
  179SLPC  C21320460   2.380   6.071   8.886 -0.2563 -0.0795 -0.1548
  179SLPC  H13R20461   2.355   6.027   8.788  1.6867 -2.5025  0.3197
  179SLPC  C21420462   2.457   6.205   8.878  0.3975 -0.8520  0.6922
  179SLPC  H14R20463   2.563   6.188   8.851 -0.0675 -1.0336 -1.1583
  179SLPC  H14S20464   2.452   6.261   8.974 -1.1182 -1.2544  0.8711
  179SLPC  C21520465   2.393   6.290   8.762 -0.1923 -0.1602  0.2862
  179SLPC  H15R20466   2.459   6.379   8.761  0.5592 -0.6967 -0.9913
  179SLPC  H15S20467   2.295   6.322   8.803  0.2015  0.1520  0.9965
  179SLPC  C21620468   2.404   6.231   8.623  0.4610 -0.3348 -0.1437
  179SLPC  H16R20469   2.365   6.129   8.604  1.6265 -1.0732  1.3182
  179SLPC  H16S20470   2.513   6.223   8.606  1.1613  0.7835  3.1206
  179SLPC  C21720471   2.360   6.324   8.512 -0.4952  0.6281 -0.6152
  179SLPC  H17R20472   2.407   6.290   8.417 -1.1613  3.1129 -1.9109
  179SLPC  H17S20473   2.399   6.427   8.527 -0.6372  0.3798  1.7717
  179SLPC  C21820474   2.207   6.324   8.492  0.3293  0.1046  0.1296
  179SLPC  H18R20475   2.161   6.223   8.489 -1.3123  0.6916  2.2638
  179SLPC  H18S20476   2.179   6.376   8.398 -1.8568 -1.4605 -0.1764
  179SLPC  H18T20477   2.156   6.380   8.574 -0.1544 -0.2831  0.0987
  179SLPC   C3320478   2.225   5.907   9.671  0.4324  0.4934  0.3960
  179SLPC   H3X20479   2.174   6.005   9.657 -3.0541 -1.0216  1.3693
  179SLPC   H3Y20480   2.152   5.843   9.727  1.4501 -0.1081  1.0695
  179SLPC   C3420481   2.234   5.854   9.528 -0.0505 -0.0089 -0.0574
  179SLPC   H4X20482   2.270   5.750   9.524  0.6498  0.2518 -0.9723
  179SLPC   H4Y20483   2.307   5.911   9.466  0.5269  1.1622  1.6406
  179SLPC   C3520484   2.099   5.864   9.457  0.1025 -0.0835  0.1672
  179SLPC   H5X20485   2.058   5.966   9.439  0.5807 -0.0507 -0.7893
  179SLPC   H5Y20486   2.037   5.805   9.528 -1.3315 -0.1650 -1.0853
  179SLPC   C3620487   2.103   5.791   9.314 -0.6191  0.3887 -0.7059
  179SLPC   H6X20488   2.127   5.684   9.335 -0.0118  0.9586  1.8830
  179SLPC   H6Y20489   2.186   5.834   9.255 -1.9979  0.2472 -2.8422
  179SLPC   C3720490   1.977   5.798   9.235  0.2537  0.0521  0.5066
  179SLPC   H7X20491   1.936   5.901   9.226 -2.0875 -0.7827  1.1153
  179SLPC   H7Y20492   1.898   5.753   9.298 -0.1158 -0.0788 -0.0392
  179SLPC   C3820493   1.984   5.729   9.099  0.1162  0.0235  0.1373
  179SLPC   H8X20494   2.090   5.701   9.081 -0.6434 -3.3625  0.1405
  179SLPC   H8Y20495   1.947   5.802   9.024  0.8137 -1.1870 -1.4611
  179SLPC   C3920496   1.901   5.602   9.094  0.5454  0.2593  0.0025
  179SLPC   H9X20497   1.794   5.620   9.115  0.3480 -0.3761 -0.4177
  179SLPC   H9Y20498   1.949   5.543   9.175  1.9178  1.1719 -0.1037
  179SLPC  C31020499   1.900   5.514   8.968  0.4305  0.3734 -0.0794
  179SLPC  H10X20500   1.861   5.412   8.993  2.0338  0.0433  1.1913
  179SLPC  H10Y20501   2.004   5.494   8.934  1.0073  0.9490  1.2819
  179SLPC  C31120502   1.830   5.561   8.848  0.0994 -0.2461  1.4832
  179SLPC  H11X20503   1.893   5.642   8.805 -1.7642  0.0290 -0.9261
  179SLPC  H11Y20504   1.729   5.605   8.865 -0.2406  0.6587 -2.0060
  179SLPC  C31220505   1.818   5.458   8.733  0.7015 -1.2830  0.1859
  179SLPC  H12X20506   1.913   5.403   8.717 -0.4457 -2.6840 -2.4060
  179SLPC  H12Y20507   1.799   5.514   8.639 -0.8097 -0.1567  1.1025
  179SLPC  C31320508   1.701   5.358   8.765 -0.0448 -0.2514  0.4191
  179SLPC  H13X20509   1.613   5.424   8.780  0.1133  0.3080 -0.9543
  179SLPC  H13Y20510   1.737   5.305   8.856  0.3179 -0.5817  0.0868
  179SLPC  C31420511   1.652   5.253   8.658  0.1308  0.4984  0.6313
  179SLPC  H14X20512   1.561   5.197   8.689  0.5011  0.8136  2.4061
  179SLPC  H14Y20513   1.731   5.174   8.652 -1.4498 -1.3819  2.7349
  179SLPC  C31520514   1.641   5.298   8.505  0.2856 -0.2181 -0.7484
  179SLPC  H15X20515   1.604   5.214   8.441 -0.3298  0.6052 -1.4979
  179SLPC  H15Y20516   1.746   5.310   8.471 -0.2703 -1.0749 -2.9148
  179SLPC  C31620517   1.546   5.413   8.480  0.5136  0.5809 -0.9346
  179SLPC  H16X20518   1.565   5.504   8.540  0.8296  0.4464 -0.8266
  179SLPC  H16Y20519   1.446   5.372   8.507  1.5589 -1.4930  0.0397
  179SLPC  C31720520   1.554   5.447   8.323  0.4389  0.3150 -0.6597
  179SLPC  H17X20521   1.548   5.351   8.268  2.8490  0.1005 -0.6773
  179SLPC  H17Y20522   1.654   5.490   8.298  1.0553 -0.3384  0.5734
  179SLPC  C31820523   1.446   5.551   8.289  0.5075  0.3329 -0.2970
  179SLPC  H18X20524   1.469   5.583   8.185 -0.4331 -1.1440 -0.9930
  179SLPC  H18Y20525   1.458   5.640   8.354 -0.7549  1.1421 -1.1321
  179SLPC  H18Z20526   1.347   5.503   8.298  0.6683  0.0545  0.0236
  180SLPC     N20527   1.163   4.943  10.513  0.7637 -0.0131  0.4932
  180SLPC   C1320528   1.074   4.988  10.401 -0.0787 -0.1193 -0.3002
  180SLPC  H13A20529   1.057   5.094  10.392  0.3471 -0.1770 -2.5734
  180SLPC  H13B20530   1.114   4.960  10.304  3.6354 -0.7162  1.2749
  180SLPC  H13C20531   0.976   4.943  10.411 -0.0541  0.1881  1.7609
  180SLPC   C1420532   1.175   4.796  10.510  0.2913 -0.3617 -0.3093
  180SLPC  H14A20533   1.076   4.755  10.497 -0.5335  2.1618 -2.9221
  180SLPC  H14B20534   1.235   4.760  10.428 -1.4939  0.5282 -2.0908
  180SLPC  H14C20535   1.229   4.763  10.597  2.6701 -1.7819 -2.2270
  180SLPC   C1520536   1.083   4.972  10.638 -0.4833  0.8547  0.6224
  180SLPC  H15A20537   0.995   4.910  10.632  0.4738 -0.4238 -1.1248
  180SLPC  H15B20538   1.144   4.944  10.722 -0.0262 -0.0076  0.0261
  180SLPC  H15C20539   1.054   5.075  10.653 -3.2947  0.2671 -0.0620
  180SLPC   C1220540   1.297   5.013  10.515  0.9873 -0.3927  0.4435
  180SLPC  H12A20541   1.276   5.118  10.524  2.3820 -0.0684  0.0943
  180SLPC  H12B20542   1.334   5.007  10.414 -0.4207  4.3324 -0.5714
  180SLPC   C1120543   1.406   4.968  10.607  0.4513 -0.2529  0.0851
  180SLPC  H11A20544   1.360   4.967  10.708 -1.8751 -3.1007 -0.8428
  180SLPC  H11B20545   1.487   5.044  10.614  0.0690  0.2157 -0.4997
  180SLPC     P20546   1.570   4.836  10.462  0.2586 -0.0122  0.2586
  180SLPC   O1320547   1.702   4.891  10.509 -0.0481 -0.2668 -0.1848
  180SLPC   O1420548   1.578   4.693  10.422 -0.4275 -0.2134 -0.1833
  180SLPC   O1220549   1.456   4.842  10.574 -0.1935 -0.9388  0.0710
  180SLPC   O1120550   1.506   4.927  10.347  0.2433 -0.3282  0.0075
  180SLPC    C120551   1.427   4.876  10.243 -0.3537 -0.1257 -0.1720
  180SLPC    HA20552   1.354   4.808  10.292  0.2237  0.1730  1.1221
  180SLPC    HB20553   1.374   4.958  10.191  0.1260  1.1546  1.3000
  180SLPC    C220554   1.523   4.809  10.132 -0.0598  0.6831  0.2644
  180SLPC    HS20555   1.549   4.713  10.181  0.9801  1.6760  1.7302
  180SLPC   O2120556   1.644   4.890  10.101  0.2754 -0.0351  1.2359
  180SLPC   C2120557   1.758   4.821  10.120 -0.4329  0.1304 -0.8054
  180SLPC   O2220558   1.772   4.725  10.195  0.9577  0.0953 -0.2722
  180SLPC   C2220559   1.869   4.885  10.033  0.1196  0.0183  0.4041
  180SLPC   H2R20560   1.918   4.969  10.086 -2.1192  1.4297  0.3705
  180SLPC   H2S20561   1.942   4.804  10.013  0.8494  1.1990 -2.1420
  180SLPC    C320562   1.452   4.772  10.006 -0.1542 -0.1175 -0.1491
  180SLPC    HX20563   1.411   4.857   9.946 -0.3102 -0.5007 -0.5957
  180SLPC    HY20564   1.367   4.707  10.037  0.5969 -0.5994  0.9460
  180SLPC   O3120565   1.543   4.689   9.932  0.0617 -0.3838  0.2832
  180SLPC   C3120566   1.531   4.703   9.800  0.1620  0.0716  0.1216
  180SLPC   O3220567   1.462   4.779   9.735  0.4150  0.4535  0.2096
  180SLPC   C3220568   1.609   4.593   9.732  0.1153 -0.2933 -0.3420
  180SLPC   H2X20569   1.555   4.500   9.759  0.3765 -0.6907 -1.1549
  180SLPC   H2Y20570   1.712   4.600   9.775  0.7696 -1.2267 -1.7019
  180SLPC   C2320571   1.820   4.918   9.889 -0.3111  0.0593 -0.2804
  180SLPC   H3R20572   1.724   4.973   9.894  0.0719  0.6990  0.2158
  180SLPC   H3S20573   1.798   4.824   9.835 -0.5702  0.5985 -1.1325
  180SLPC   C2420574   1.918   4.981   9.798 -0.1416 -0.2246 -0.1493
  180SLPC   H4R20575   2.010   4.919   9.800 -1.6402 -2.5746  1.6852
  180SLPC   H4S20576   1.958   5.080   9.828  1.7310 -1.0438  0.1903
  180SLPC   C2520577   1.879   4.983   9.649  0.3091  0.2849 -0.1845
  180SLPC   H5R20578   1.793   5.050   9.629 -1.3845 -1.0519  2.2455
  180SLPC   H5S20579   1.853   4.882   9.610 -0.7626 -0.4973  2.3797
  180SLPC   C2620580   2.000   5.030   9.560 -0.3248 -0.1439  0.6598
  180SLPC   H6R20581   2.097   5.009   9.610  0.0100  1.6938  0.8374
  180SLPC   H6S20582   1.977   5.138   9.546  1.4099  0.1163 -0.5098
  180SLPC   C2720583   1.988   4.974   9.411  0.2069 -0.1322 -0.0717
  180SLPC   H7R20584   1.885   4.995   9.375  0.1903  0.5920  0.3801
  180SLPC   H7S20585   2.002   4.864   9.417 -1.4797 -0.4147 -0.8198
  180SLPC   C2820586   2.092   5.040   9.315 -0.3372 -0.1626  0.2414
  180SLPC   H8R20587   2.182   5.014   9.376 -0.8030  0.3177  1.1576
  180SLPC   H8S20588   2.108   5.149   9.306  3.5283 -0.6275 -0.2404
  180SLPC   C2920589   2.083   4.967   9.185 -0.3639  0.2844 -0.2276
  180SLPC   H9R20590   2.017   4.879   9.189  0.4920 -0.4306 -1.2414
  180SLPC  C21020591   2.138   5.003   9.073 -0.0479  0.1671  0.3092
  180SLPC  H10R20592   2.121   4.938   8.986  2.1333  1.5232 -1.2173
  180SLPC  C21120593   2.227   5.121   9.055 -0.6014  0.0867  0.2471
  180SLPC  H11R20594   2.323   5.076   9.021  0.1226 -0.6558  3.0316
  180SLPC  H11S20595   2.265   5.168   9.148  0.8370  2.0028 -1.2239
  180SLPC  C21220596   2.178   5.233   8.965  0.2762 -0.1229 -0.2753
  180SLPC  H12R20597   2.095   5.287   9.012  3.0715  1.9398  2.7046
  180SLPC  C21320598   2.224   5.266   8.841 -0.2758 -1.0448  0.5052
  180SLPC  H13R20599   2.181   5.352   8.788  2.0425  1.4051  2.2907
  180SLPC  C21420600   2.338   5.196   8.777 -0.4983  0.1730 -0.3439
  180SLPC  H14R20601   2.389   5.113   8.831  1.0462 -0.7332 -2.9887
  180SLPC  H14S20602   2.412   5.276   8.757  1.8768 -1.6674  0.5873
  180SLPC  C21520603   2.304   5.134   8.643  0.5933  0.2094 -0.2694
  180SLPC  H15R20604   2.249   5.195   8.570  1.5421 -0.1226 -1.2951
  180SLPC  H15S20605   2.248   5.039   8.655 -0.4639  0.5236 -2.2896
  180SLPC  C21620606   2.431   5.096   8.555  0.1472 -0.1886 -0.6714
  180SLPC  H16R20607   2.392   5.055   8.459 -1.3386 -1.0091  0.2471
  180SLPC  H16S20608   2.478   5.013   8.613  1.8527  0.7590 -0.6345
  180SLPC  C21720609   2.530   5.213   8.533 -0.2320  0.7665 -0.0106
  180SLPC  H17R20610   2.597   5.238   8.618  0.5378 -1.3377  0.0543
  180SLPC  H17S20611   2.466   5.304   8.532  0.0106  0.9603  0.9370
  180SLPC  C21820612   2.622   5.210   8.415 -0.3149  0.3198  0.4855
  180SLPC  H18R20613   2.691   5.295   8.399  0.8896 -0.9235 -1.3028
  180SLPC  H18S20614   2.559   5.196   8.324 -1.0220 -2.2064  1.2732
  180SLPC  H18T20615   2.692   5.124   8.428 -1.1164 -0.6906 -1.4378
  180SLPC   C3320616   1.627   4.608   9.585  0.5116  0.4658  0.6542
  180SLPC   H3X20617   1.662   4.708   9.552  1.8173 -0.3915 -0.6511
  180SLPC   H3Y20618   1.521   4.612   9.551  0.3691 -1.4166  0.8076
  180SLPC   C3420619   1.701   4.505   9.504 -0.0288  0.7652 -0.8042
  180SLPC   H4X20620   1.676   4.407   9.550  1.4473  0.0267 -1.4970
  180SLPC   H4Y20621   1.809   4.518   9.522 -0.6386  0.7825  4.1376
  180SLPC   C3520622   1.662   4.478   9.357  0.3821 -0.0239  0.1477
  180SLPC   H5X20623   1.558   4.439   9.356  0.7753 -1.1715 -1.6517
  180SLPC   H5Y20624   1.716   4.391   9.314 -0.7706 -0.6908  0.0025
  180SLPC   C3620625   1.672   4.599   9.254 -0.4403  0.6205 -0.4959
  180SLPC   H6X20626   1.777   4.617   9.224  0.2019 -2.2353 -0.2615
  180SLPC   H6Y20627   1.628   4.686   9.306  1.5046  1.8055 -0.7470
  180SLPC   C3720628   1.594   4.576   9.119  0.1855 -0.1166 -0.2049
  180SLPC   H7X20629   1.590   4.671   9.062 -1.2304 -0.6982 -1.1319
  180SLPC   H7Y20630   1.486   4.557   9.133 -0.5298  2.0705 -2.1115
  180SLPC   C3820631   1.667   4.468   9.034  0.4715 -0.6234 -0.1599
  180SLPC   H8X20632   1.663   4.370   9.086 -0.3292 -0.1815  0.6265
  180SLPC   H8Y20633   1.776   4.486   9.020  0.7600 -0.2101  2.2299
  180SLPC   C3920634   1.588   4.435   8.906  0.0678 -0.3460  0.0145
  180SLPC   H9X20635   1.479   4.434   8.931  0.1831 -0.3046  0.5272
  180SLPC   H9Y20636   1.622   4.334   8.874  1.2593  0.3360 -0.9554
  180SLPC  C31020637   1.614   4.542   8.793  0.6689 -0.2086  0.0203
  180SLPC  H10X20638   1.721   4.539   8.762  0.6218 -0.8664 -0.0971
  180SLPC  H10Y20639   1.604   4.643   8.838  0.2147 -0.6000  0.8187
  180SLPC  C31120640   1.514   4.527   8.677 -0.1088  0.7841  0.3411
  180SLPC  H11X20641   1.415   4.536   8.725  0.2745  1.9545  0.9657
  180SLPC  H11Y20642   1.517   4.424   8.635 -1.2336  0.8764  0.0214
  180SLPC  C31220643   1.514   4.625   8.560 -0.4143  0.2017 -0.8760
  180SLPC  H12X20644   1.611   4.613   8.508  0.3225  0.5250  0.3825
  180SLPC  H12Y20645   1.504   4.725   8.607  2.3093 -0.5082  1.5449
  180SLPC  C31320646   1.411   4.590   8.457  0.1580  0.1698 -0.6176
  180SLPC  H13X20647   1.423   4.497   8.398 -0.2701  1.0991 -2.2286
  180SLPC  H13Y20648   1.412   4.672   8.382  1.8870  1.5254  0.7820
  180SLPC  C31420649   1.266   4.578   8.510  0.3706  0.6814  0.2105
  180SLPC  H14X20650   1.257   4.662   8.582 -1.0829 -0.0800  0.9733
  180SLPC  H14Y20651   1.246   4.479   8.556 -2.9185  0.4958 -1.3359
  180SLPC  C31520652   1.156   4.592   8.409 -0.0849 -0.0087 -0.6157
  180SLPC  H15X20653   1.167   4.558   8.304  1.2926  0.8522 -0.7882
  180SLPC  H15Y20654   1.136   4.701   8.403  1.8241  0.5529  1.6660
  180SLPC  C31620655   1.027   4.518   8.459 -0.2084  0.0751 -0.2043
  180SLPC  H16X20656   1.025   4.536   8.569 -1.7015 -1.4677  0.0525
  180SLPC  H16Y20657   1.043   4.410   8.438  0.1819  0.5089 -2.3718
  180SLPC  C31720658   0.903   4.573   8.385 -0.1609  0.4853 -0.2593
  180SLPC  H17X20659   0.945   4.585   8.283 -0.3936  0.7607 -0.3205
  180SLPC  H17Y20660   0.891   4.675   8.426  3.8453  0.4565  1.5106
  180SLPC  C31820661   0.785   4.478   8.391  0.6412  0.3227  0.4825
  180SLPC  H18X20662   0.746   4.451   8.492  1.2656 -1.4969  0.2606
  180SLPC  H18Y20663   0.806   4.386   8.333 -2.8276 -0.5727  0.4172
  180SLPC  H18Z20664   0.701   4.526   8.336 -0.2175 -0.8400  0.7471
  181SLPC     N20665   3.663   2.530  11.116 -0.8973  0.2472 -0.3734
  181SLPC   C1320666   3.532   2.472  11.121  0.3613  0.0348 -0.1329
  181SLPC  H13A20667   3.459   2.549  11.104 -0.1087 -0.5370 -0.7459
  181SLPC  H13B20668   3.516   2.386  11.059 -0.0587  1.2427 -1.7515
  181SLPC  H13C20669   3.506   2.446  11.223 -0.2731  0.5716 -0.1461
  181SLPC   C1420670   3.765   2.441  11.182 -0.6274 -0.3588 -0.5046
  181SLPC  H14A20671   3.775   2.340  11.144 -1.1848 -0.9624  0.8772
  181SLPC  H14B20672   3.860   2.487  11.161 -0.8434  1.0974  1.3814
  181SLPC  H14C20673   3.748   2.426  11.288 -0.6785  1.4208 -0.2309
  181SLPC   C1520674   3.668   2.660  11.187 -0.3012 -0.4942 -0.0339
  181SLPC  H15A20675   3.605   2.660  11.275  0.6666  2.5187  0.7837
  181SLPC  H15B20676   3.769   2.691  11.205 -0.6561  0.4461  0.4089
  181SLPC  H15C20677   3.621   2.736  11.126 -0.2250 -0.8307 -0.5153
  181SLPC   C1220678   3.695   2.566  10.971 -0.1381 -0.4232 -0.3630
  181SLPC  H12A20679   3.639   2.652  10.938 -1.4872 -1.1809 -0.0969
  181SLPC  H12B20680   3.670   2.479  10.912  0.0410 -0.4633 -0.3803
  181SLPC   C1120681   3.841   2.615  10.937  0.3063 -0.1247  0.0339
  181SLPC  H11A20682   3.856   2.599  10.828  0.2040  2.1226 -0.3532
  181SLPC  H11B20683   3.909   2.539  10.981 -1.9927 -2.4059 -0.0833
  181SLPC     P20684   3.800   2.877  10.926 -0.1164 -0.7717 -0.1335
  181SLPC   O1320685   3.656   2.871  10.958 -0.0407  0.1949  0.0660
  181SLPC   O1420686   3.870   3.000  10.971  0.2003  0.1321 -0.3170
  181SLPC   O1220687   3.869   2.750  10.984  0.0434  0.4718 -0.0019
  181SLPC   O1120688   3.824   2.858  10.772  0.7406  0.1706  0.3157
  181SLPC    C120689   3.962   2.859  10.731 -0.1379  0.4395  0.7760
  181SLPC    HA20690   4.007   2.949  10.777  1.5333 -1.3220  2.8156
  181SLPC    HB20691   4.023   2.776  10.772  0.6197  0.9025  0.5968
  181SLPC    C220692   3.985   2.869  10.584 -0.4037 -0.1014 -0.2408
  181SLPC    HS20693   4.091   2.889  10.559 -0.1570 -1.4777 -0.3541
  181SLPC   O2120694   3.887   2.956  10.527  0.2117  0.1363 -0.6576
  181SLPC   C2120695   3.916   3.080  10.545  0.0511 -0.8247  0.8404
  181SLPC   O2220696   4.021   3.124  10.592  0.0745 -0.9718  0.5637
  181SLPC   C2220697   3.801   3.174  10.504  0.4668 -0.0590 -0.4565
  181SLPC   H2R20698   3.718   3.117  10.458  0.5410  0.7225 -1.5899
  181SLPC   H2S20699   3.759   3.216  10.598  0.8738  0.2576 -0.4131
  181SLPC    C320700   3.974   2.731  10.518  0.0740  0.8006 -0.6283
  181SLPC    HX20701   3.871   2.694  10.537  0.6335 -0.8045 -0.5765
  181SLPC    HY20702   4.041   2.659  10.570 -4.3016 -1.4017  2.6086
  181SLPC   O3120703   3.990   2.746  10.377 -0.2455  0.0960  0.4042
  181SLPC   C3120704   4.012   2.635  10.305  0.7501 -0.2335  0.6303
  181SLPC   O3220705   3.993   2.521  10.345  0.0584 -0.6906 -0.5980
  181SLPC   C3220706   4.056   2.671  10.166 -0.4347  0.9121  0.8754
  181SLPC   H2X20707   4.165   2.660  10.147 -0.6063  1.8825 -0.8775
  181SLPC   H2Y20708   4.033   2.779  10.153  0.3745  1.0326  0.4014
  181SLPC   C2320709   3.838   3.289  10.406  0.3084 -0.4738 -0.4253
  181SLPC   H3R20710   3.927   3.342  10.448 -0.0004  0.9117 -1.4337
  181SLPC   H3S20711   3.750   3.356  10.417 -0.2053 -1.0450 -0.9552
  181SLPC   C2420712   3.871   3.250  10.263 -0.1045  0.5479  0.4381
  181SLPC   H4R20713   3.774   3.238  10.211  1.1341 -1.6945 -1.5633
  181SLPC   H4S20714   3.938   3.161  10.262 -0.3794  0.3330 -0.9194
  181SLPC   C2520715   3.956   3.352  10.181 -0.0495 -0.0449 -0.6989
  181SLPC   H5R20716   4.061   3.361  10.216  0.1741 -2.2504 -0.6340
  181SLPC   H5S20717   3.904   3.450  10.191  2.1432  0.9783  1.4526
  181SLPC   C2620718   3.962   3.305  10.035 -0.5583 -0.1271  0.7573
  181SLPC   H6R20719   3.860   3.275  10.002 -0.4167 -0.9301  1.0132
  181SLPC   H6S20720   4.029   3.216  10.041  0.1134  0.3085 -0.0481
  181SLPC   C2720721   4.028   3.408   9.945  0.4454  0.6868  0.0163
  181SLPC   H7R20722   4.128   3.408   9.993  0.3975 -1.7373  0.2282
  181SLPC   H7S20723   3.985   3.505   9.977 -2.0221  0.0314 -1.0623
  181SLPC   C2820724   4.027   3.389   9.791 -0.5848  0.4425  0.4144
  181SLPC   H8R20725   3.926   3.413   9.751 -0.6985  0.3630  0.6470
  181SLPC   H8S20726   4.049   3.281   9.774  1.0786  1.0895 -2.0125
  181SLPC   C2920727   4.134   3.466   9.722 -0.4094  0.3663 -0.7699
  181SLPC   H9R20728   4.228   3.444   9.773 -1.0599 -3.1685 -0.8436
  181SLPC  C21020729   4.131   3.555   9.620 -0.0329 -0.1895 -0.2780
  181SLPC  H10R20730   4.226   3.596   9.582  0.4256  1.5682  2.5193
  181SLPC  C21120731   4.012   3.589   9.540 -0.1969  0.2721  0.0092
  181SLPC  H11R20732   3.918   3.581   9.599 -1.1466  0.9917 -1.3350
  181SLPC  H11S20733   4.017   3.510   9.462 -2.3118 -0.7996  0.8706
  181SLPC  C21220734   4.016   3.729   9.479 -0.0508  0.1323  0.4301
  181SLPC  H12R20735   4.034   3.732   9.371  1.3611  0.3155  0.6503
  181SLPC  C21320736   3.993   3.837   9.560 -0.0943 -0.0341 -0.1159
  181SLPC  H13R20737   3.993   3.941   9.524  1.0240  0.2316  0.6027
  181SLPC  C21420738   3.957   3.831   9.712 -0.2035 -0.7704  1.5595
  181SLPC  H14R20739   4.044   3.867   9.771  0.7450  1.9676 -1.2226
  181SLPC  H14S20740   3.935   3.726   9.742 -1.8725 -1.8382 -2.6168
  181SLPC  C21520741   3.822   3.906   9.737  0.0337 -0.1660 -0.3630
  181SLPC  H15R20742   3.739   3.852   9.687  0.7855 -2.2838  0.5526
  181SLPC  H15S20743   3.818   4.007   9.689 -1.5493  0.0123  0.0768
  181SLPC  C21620744   3.800   3.931   9.886 -0.4662  0.0904 -0.5882
  181SLPC  H16R20745   3.872   4.013   9.908  0.2771 -0.7061  0.0026
  181SLPC  H16S20746   3.827   3.842   9.947  1.1501  0.4503 -0.7230
  181SLPC  C21720747   3.662   3.986   9.931  0.0360 -0.0443  0.8495
  181SLPC  H17R20748   3.597   3.899   9.907  0.8873 -0.5045  0.1482
  181SLPC  H17S20749   3.639   4.081   9.878  0.1165  0.3610  1.5403
  181SLPC  C21820750   3.673   4.013  10.076 -0.9898  0.2638 -0.0271
  181SLPC  H18R20751   3.577   4.041  10.125  0.4586  3.8969  1.0225
  181SLPC  H18S20752   3.741   4.099  10.093 -1.0002  0.2745 -0.0427
  181SLPC  H18T20753   3.725   3.931  10.130 -3.0668 -0.3174  1.2318
  181SLPC   C3320754   3.964   2.598  10.067  0.1926  0.3287 -0.2058
  181SLPC   H3X20755   3.855   2.604  10.086 -0.1608 -2.4106 -1.0258
  181SLPC   H3Y20756   3.990   2.490  10.069 -0.5441  0.1023 -1.7388
  181SLPC   C3420757   3.975   2.661   9.923  0.1453 -0.6161 -0.8236
  181SLPC   H4X20758   3.938   2.765   9.919 -0.5149 -0.8524 -4.6440
  181SLPC   H4Y20759   3.906   2.604   9.858 -0.0652 -1.2204 -0.0839
  181SLPC   C3520760   4.114   2.661   9.858  0.0711 -0.1273  0.2222
  181SLPC   H5X20761   4.127   2.553   9.836  1.2113  0.1736 -0.7206
  181SLPC   H5Y20762   4.194   2.699   9.926  1.7029 -0.1989 -1.5725
  181SLPC   C3620763   4.122   2.730   9.725  0.2187  0.3241  0.2445
  181SLPC   H6X20764   4.228   2.729   9.689  0.4097 -1.9080  0.7240
  181SLPC   H6Y20765   4.078   2.830   9.744 -1.6479 -0.4651  0.3125
  181SLPC   C3720766   4.044   2.664   9.614 -0.5897  0.6141  0.0369
  181SLPC   H7X20767   3.939   2.654   9.649 -0.4366  0.3938  0.4417
  181SLPC   H7Y20768   4.087   2.563   9.596 -2.9023 -0.2846 -0.8657
  181SLPC   C3820769   4.043   2.742   9.479 -0.1601  0.1631  0.3655
  181SLPC   H8X20770   4.146   2.760   9.442 -0.9301  0.4976 -1.7898
  181SLPC   H8Y20771   3.979   2.830   9.500 -1.6117 -1.0170  1.0630
  181SLPC   C3920772   3.975   2.671   9.358  0.1634 -0.3591 -0.0356
  181SLPC   H9X20773   3.872   2.652   9.396  0.9560  1.5163  3.5204
  181SLPC   H9Y20774   4.013   2.568   9.348 -3.8043 -2.1708  1.3879
  181SLPC  C31020775   3.962   2.753   9.226 -0.0149 -0.3245 -0.0314
  181SLPC  H10X20776   4.057   2.787   9.179  0.3351  1.0244  1.5477
  181SLPC  H10Y20777   3.897   2.841   9.246  1.4014  0.5927  0.7419
  181SLPC  C31120778   3.891   2.682   9.107 -0.3020 -0.3900  0.0248
  181SLPC  H11X20779   3.793   2.638   9.137  0.5299 -0.1467  3.5474
  181SLPC  H11Y20780   3.948   2.594   9.070 -3.1258 -1.3365 -2.5450
  181SLPC  C31220781   3.860   2.777   8.992  0.0638 -0.1876 -0.6291
  181SLPC  H12X20782   3.948   2.844   8.980 -1.1103  1.3015 -1.3411
  181SLPC  H12Y20783   3.776   2.831   9.041 -0.0436 -0.1323 -0.8722
  181SLPC  C31320784   3.815   2.719   8.857  0.3306 -0.0197 -0.4571
  181SLPC  H13X20785   3.729   2.652   8.878 -0.6762  1.3909  0.0496
  181SLPC  H13Y20786   3.906   2.674   8.812  2.0609  2.6011  0.1595
  181SLPC  C31420787   3.756   2.832   8.766  0.4576 -0.7200 -0.0504
  181SLPC  H14X20788   3.829   2.916   8.761 -0.7479  0.4527  1.1478
  181SLPC  H14Y20789   3.668   2.876   8.818 -1.0075  1.1197 -3.7566
  181SLPC  C31520790   3.703   2.786   8.629  0.5795  0.9441  0.8514
  181SLPC  H15X20791   3.643   2.694   8.645  0.8995  0.4567 -0.6532
  181SLPC  H15Y20792   3.786   2.746   8.567 -2.0240 -0.1066 -2.1802
  181SLPC  C31620793   3.622   2.888   8.548 -0.2666 -0.0226  0.1877
  181SLPC  H16X20794   3.570   2.963   8.612 -0.1443  0.1322  0.1068
  181SLPC  H16Y20795   3.548   2.837   8.483  0.2539 -0.6720  0.0977
  181SLPC  C31720796   3.713   2.969   8.453 -0.3960  0.0628 -0.5029
  181SLPC  H17X20797   3.770   2.907   8.381 -0.0400 -1.8539  1.3388
  181SLPC  H17Y20798   3.785   3.026   8.516  0.4894 -0.2762 -1.1919
  181SLPC  C31820799   3.634   3.071   8.367  0.0838  0.1040 -0.1864
  181SLPC  H18X20800   3.606   3.032   8.267 -0.8140 -1.8222  0.7719
  181SLPC  H18Y20801   3.698   3.160   8.350  0.3744  0.1813  1.2178
  181SLPC  H18Z20802   3.547   3.105   8.427 -0.4203 -1.7406  0.1722
  182SLPC     N20803   3.362   4.199  10.793  0.2965 -0.4160  0.3156
  182SLPC   C1320804   3.444   4.093  10.723 -0.2696  0.4787  0.0335
  182SLPC  H13A20805   3.513   4.136  10.652  3.4087 -2.1269  1.6886
  182SLPC  H13B20806   3.501   4.034  10.793 -0.1161 -2.2053 -2.1638
  182SLPC  H13C20807   3.379   4.024  10.671  1.6355 -1.5351  0.1356
  182SLPC   C1420808   3.444   4.261  10.899  0.0221  0.3654  0.1606
  182SLPC  H14A20809   3.468   4.194  10.980  0.0994  0.3058  0.0881
  182SLPC  H14B20810   3.530   4.311  10.857 -0.4850  0.2825 -1.0320
  182SLPC  H14C20811   3.391   4.338  10.952 -0.2919  0.3850 -0.1738
  182SLPC   C1520812   3.235   4.137  10.869  0.1800 -0.6576 -0.6727
  182SLPC  H15A20813   3.163   4.204  10.912  0.0867 -0.9699 -0.3400
  182SLPC  H15B20814   3.167   4.090  10.799 -0.3798 -0.0216 -0.5624
  182SLPC  H15C20815   3.275   4.066  10.940 -0.4058  0.2669  0.6153
  182SLPC   C1220816   3.310   4.310  10.696  0.6059 -0.2201  0.4779
  182SLPC  H12A20817   3.295   4.400  10.753  0.7581 -0.9112  1.6387
  182SLPC  H12B20818   3.229   4.289  10.628  2.3577  1.8871 -2.5086
  182SLPC   C1120819   3.419   4.355  10.589 -0.8291  0.2748 -0.3381
  182SLPC  H11A20820   3.380   4.423  10.511  1.2608 -0.3841 -2.0642
  182SLPC  H11B20821   3.439   4.262  10.532 -0.3124 -0.9234  1.6843
  182SLPC     P20822   3.682   4.375  10.619  0.5404  0.1370 -0.3749
  182SLPC   O1320823   3.788   4.419  10.710  0.2381  0.5693  0.1788
  182SLPC   O1420824   3.682   4.227  10.595 -0.6388 -0.4237  0.2202
  182SLPC   O1220825   3.533   4.413  10.659 -0.2289  0.6640 -0.1755
  182SLPC   O1120826   3.693   4.455  10.480  0.1673 -0.1294  0.4722
  182SLPC    C120827   3.663   4.592  10.483 -0.2651  1.1364 -0.1389
  182SLPC    HA20828   3.558   4.614  10.513  0.1401  2.6951  0.2338
  182SLPC    HB20829   3.721   4.633  10.569 -0.6325 -0.7241  1.0632
  182SLPC    C220830   3.706   4.667  10.354 -1.3257  0.0049 -0.5115
  182SLPC    HS20831   3.689   4.775  10.375 -0.7921  0.7662 -3.4574
  182SLPC   O2120832   3.636   4.621  10.239 -0.5124  0.3683  0.3464
  182SLPC   C2120833   3.524   4.673  10.215  0.1108 -0.8860 -0.2852
  182SLPC   O2220834   3.468   4.758  10.284  0.4732  0.4205  0.1942
  182SLPC   C2220835   3.477   4.626  10.072  0.1508 -0.4307 -0.0523
  182SLPC   H2R20836   3.551   4.666  10.000  1.4417 -0.3399  1.2863
  182SLPC   H2S20837   3.477   4.515  10.080 -0.9084 -0.5251 -1.0931
  182SLPC    C320838   3.861   4.648  10.334  0.1015 -0.3923  0.5954
  182SLPC    HX20839   3.881   4.540  10.322  0.9148 -0.0677 -1.2491
  182SLPC    HY20840   3.922   4.672  10.424 -0.5734  4.3985  0.0387
  182SLPC   O3120841   3.898   4.716  10.208  0.9176  0.0956  0.6201
  182SLPC   C3120842   4.022   4.747  10.199 -0.0753  0.0024 -0.1381
  182SLPC   O3220843   4.111   4.730  10.284  0.6155  0.2403 -0.2084
  182SLPC   C3220844   4.047   4.805  10.064 -0.1531 -0.1354 -0.5271
  182SLPC   H2X20845   3.979   4.889  10.036  3.2097  2.5105 -1.5442
  182SLPC   H2Y20846   4.038   4.722   9.992  1.1411 -0.1131 -0.7347
  182SLPC   C2320847   3.333   4.686  10.041 -0.0174  0.7972  0.1060
  182SLPC   H3R20848   3.341   4.791  10.007  1.1121  0.4705 -0.6936
  182SLPC   H3S20849   3.276   4.688  10.136  0.0546  2.6391  0.1321
  182SLPC   C2420850   3.280   4.592   9.928  0.3047  0.0991 -0.5612
  182SLPC   H4R20851   3.266   4.491   9.972  0.5113 -0.2716 -1.3326
  182SLPC   H4S20852   3.360   4.590   9.850  0.8856  0.4120  0.0180
  182SLPC   C2520853   3.149   4.638   9.874 -0.4970 -1.0481  0.3445
  182SLPC   H5R20854   3.081   4.665   9.958 -0.9712  0.1484 -0.4000
  182SLPC   H5S20855   3.092   4.562   9.816 -4.2477 -0.3994  2.8150
  182SLPC   C2620856   3.157   4.770   9.792  0.9859 -0.4112  0.1282
  182SLPC   H6R20857   3.214   4.739   9.702 -1.2395 -5.2798  0.0742
  182SLPC   H6S20858   3.218   4.841   9.853 -0.8964  1.1960  0.2699
  182SLPC   C2720859   3.009   4.828   9.770 -0.4631 -1.3145  0.6232
  182SLPC   H7R20860   2.962   4.814   9.869 -1.2397 -2.4796  0.1090
  182SLPC   H7S20861   2.959   4.758   9.700  1.7938 -2.3801 -0.0073
  182SLPC   C2820862   3.013   4.970   9.714  0.1736  0.4349 -0.3877
  182SLPC   H8R20863   3.095   4.979   9.640  0.4239 -1.8622 -0.4677
  182SLPC   H8S20864   3.059   5.024   9.800  3.0708 -2.9272  0.3767
  182SLPC   C2920865   2.877   5.029   9.674 -0.2309 -0.2889  0.4303
  182SLPC   H9R20866   2.829   5.101   9.742  0.9714  2.2378 -1.2394
  182SLPC  C21020867   2.800   5.001   9.565  0.5892  0.1591  0.6630
  182SLPC  H10R20868   2.704   5.049   9.542  0.9810  0.0286 -1.3675
  182SLPC  C21120869   2.836   4.905   9.454  0.2060  1.2534  0.1789
  182SLPC  H11R20870   2.741   4.869   9.407 -0.2904  1.1566  1.2328
  182SLPC  H11S20871   2.874   4.810   9.497 -1.4566  0.7212  0.5462
  182SLPC  C21220872   2.935   4.960   9.359  0.1873  0.1964 -0.1576
  182SLPC  H12R20873   2.928   5.070   9.358 -2.1954  0.0968 -0.2185
  182SLPC  C21320874   3.017   4.890   9.275  0.6619 -0.6818 -0.4699
  182SLPC  H13R20875   3.093   4.942   9.214  2.3389 -0.8343  1.3614
  182SLPC  C21420876   3.037   4.737   9.275  0.3250 -0.3993  0.3824
  182SLPC  H14R20877   3.064   4.704   9.172  0.3107  1.5596 -0.2988
  182SLPC  H14S20878   2.944   4.684   9.304 -1.0372  1.0102 -1.1696
  182SLPC  C21520879   3.137   4.703   9.384 -0.3261 -0.2238  0.3199
  182SLPC  H15R20880   3.116   4.747   9.484  0.8514  1.6110 -0.1829
  182SLPC  H15S20881   3.241   4.734   9.359 -0.1553 -0.8667  0.2182
  182SLPC  C21620882   3.137   4.552   9.417  0.1449  0.7871 -0.4957
  182SLPC  H16R20883   3.153   4.510   9.316 -0.4024  0.9705 -0.6600
  182SLPC  H16S20884   3.034   4.527   9.448 -0.0155 -0.1646 -1.7194
  182SLPC  C21720885   3.252   4.497   9.502 -0.6178  0.3029  0.0930
  182SLPC  H17R20886   3.237   4.391   9.531 -2.1772 -0.0091 -1.6678
  182SLPC  H17S20887   3.256   4.546   9.602  1.7422 -0.6820  0.5394
  182SLPC  C21820888   3.397   4.511   9.438  0.1120 -0.3784 -0.3002
  182SLPC  H18R20889   3.405   4.461   9.338  0.9653 -1.0547  0.0898
  182SLPC  H18S20890   3.465   4.457   9.508 -2.2092 -1.2584  1.3802
  182SLPC  H18T20891   3.426   4.617   9.429  0.6511 -0.5081 -0.1363
  182SLPC   C3320892   4.196   4.847  10.044 -0.4572 -0.1001 -0.4245
  182SLPC   H3X20893   4.263   4.759  10.050  1.9265  1.5110 -1.8355
  182SLPC   H3Y20894   4.229   4.918  10.123 -1.4325 -0.2253  0.1074
  182SLPC   C3420895   4.204   4.934   9.918 -0.0575  0.1669  0.3640
  182SLPC   H4X20896   4.308   4.973   9.926  0.0259  0.0505 -0.1533
  182SLPC   H4Y20897   4.136   5.020   9.935  0.1831  0.6014 -0.7937
  182SLPC   C3520898   4.197   4.853   9.788 -0.8261  0.2913 -0.2827
  182SLPC   H5X20899   4.105   4.792   9.791 -0.0742 -0.9026 -0.7111
  182SLPC   H5Y20900   4.288   4.790   9.779 -0.7491  0.4133 -0.3728
  182SLPC   C3620901   4.181   4.948   9.666 -0.7612  0.0839 -0.4700
  182SLPC   H6X20902   4.280   4.989   9.639 -0.8866  2.4228  2.2233
  182SLPC   H6Y20903   4.125   5.036   9.703 -0.9361 -0.5965  0.9525
  182SLPC   C3720904   4.101   4.879   9.551  0.2821 -0.6315 -0.5960
  182SLPC   H7X20905   4.009   4.835   9.595  0.7274 -0.0367  0.9820
  182SLPC   H7Y20906   4.173   4.809   9.504 -0.5062  0.0020 -2.8874
  182SLPC   C3820907   4.078   4.990   9.449  0.3563  0.4876 -0.3976
  182SLPC   H8X20908   4.176   5.035   9.421 -0.0780  1.7105 -0.0367
  182SLPC   H8Y20909   4.034   5.071   9.511  0.5796 -0.3688  0.9119
  182SLPC   C3920910   3.995   4.939   9.336  0.4170 -0.3091  0.3286
  182SLPC   H9X20911   3.922   5.011   9.294 -3.8935 -3.1772  2.2289
  182SLPC   H9Y20912   3.937   4.851   9.370  1.5679 -1.2379 -0.0280
  182SLPC  C31020913   4.094   4.882   9.232  0.0293  0.0111 -0.0712
  182SLPC  H10X20914   4.173   4.820   9.279 -1.3851 -0.8654  1.2600
  182SLPC  H10Y20915   4.152   4.960   9.178 -0.4211 -1.7017 -3.3028
  182SLPC  C31120916   4.015   4.813   9.116  0.0824 -0.0039  0.1503
  182SLPC  H11X20917   3.931   4.759   9.165 -0.3595  2.4053  2.2638
  182SLPC  H11Y20918   4.090   4.757   9.055 -1.3738  0.5744 -2.3325
  182SLPC  C31220919   3.953   4.914   9.022 -0.1463  0.1289  0.4593
  182SLPC  H12X20920   4.029   4.978   8.972  0.5515 -0.8082  0.3171
  182SLPC  H12Y20921   3.883   4.971   9.087 -1.4130 -3.6635  2.7006
  182SLPC  C31320922   3.880   4.856   8.907 -0.3840  0.4333  0.0397
  182SLPC  H13X20923   3.800   4.788   8.942 -0.9576  0.6691 -0.7729
  182SLPC  H13Y20924   3.961   4.809   8.847  0.2819 -1.0985  2.0408
  182SLPC  C31420925   3.810   4.961   8.820  0.3775  0.2118 -1.1323
  182SLPC  H14X20926   3.881   5.044   8.800  0.8947  0.7360  2.2285
  182SLPC  H14Y20927   3.737   5.013   8.886  0.2820 -0.6912 -0.5066
  182SLPC  C31520928   3.752   4.902   8.695 -0.4971  0.0321  0.1209
  182SLPC  H15X20929   3.698   4.806   8.703 -3.4030  1.3463 -1.9298
  182SLPC  H15Y20930   3.837   4.890   8.624 -1.4349 -1.6865 -0.7768
  182SLPC  C31620931   3.648   5.001   8.632 -0.0263  0.1423  0.2287
  182SLPC  H16X20932   3.714   5.080   8.590 -1.5811  2.1022  1.3100
  182SLPC  H16Y20933   3.577   5.028   8.713 -0.9389 -2.4472  0.3892
  182SLPC  C31720934   3.549   4.942   8.523  0.1410  0.4544  0.1052
  182SLPC  H17X20935   3.508   4.849   8.566  1.1688  0.7427  1.8097
  182SLPC  H17Y20936   3.614   4.906   8.440 -0.6532  0.4173 -0.5128
  182SLPC  C31820937   3.443   5.038   8.466 -0.2443 -0.2829  0.2307
  182SLPC  H18X20938   3.376   4.979   8.400 -0.1722 -1.4847  1.1896
  182SLPC  H18Y20939   3.482   5.123   8.404  4.3131 -1.6782  0.7724
  182SLPC  H18Z20940   3.381   5.079   8.548  0.6392 -1.3287  1.4640
  183SLPC     N20941   5.462   5.703  11.211  0.2931  0.2660 -0.4421
  183SLPC   C1320942   5.390   5.799  11.127  0.0912  0.2200 -0.2899
  183SLPC  H13A20943   5.325   5.863  11.185 -0.5735 -0.8322  0.1618
  183SLPC  H13B20944   5.444   5.858  11.055 -0.6030  0.1045 -0.9191
  183SLPC  H13C20945   5.326   5.740  11.063 -0.4959 -0.6498  1.0446
  183SLPC   C1420946   5.366   5.669  11.319 -0.5484  0.0888 -0.0579
  183SLPC  H14A20947   5.415   5.607  11.392  4.5521  1.8197 -1.5685
  183SLPC  H14B20948   5.335   5.755  11.376  0.6274 -0.5318  1.5855
  183SLPC  H14C20949   5.276   5.619  11.288  0.2295 -0.5196 -1.4676
  183SLPC   C1520950   5.585   5.758  11.277  0.2642 -0.3052 -0.4987
  183SLPC  H15A20951   5.655   5.775  11.197 -0.2314 -2.8141 -1.5567
  183SLPC  H15B20952   5.560   5.853  11.322  1.4149  1.1294 -2.6901
  183SLPC  H15C20953   5.627   5.691  11.350 -1.2732  1.0013  1.7076
  183SLPC   C1220954   5.497   5.577  11.133 -0.2898 -0.5999  0.5007
  183SLPC  H12A20955   5.405   5.524  11.112 -0.5308 -0.2423  0.6353
  183SLPC  H12B20956   5.532   5.509  11.210  2.9155  0.5463  0.1792
  183SLPC   C1120957   5.592   5.592  11.010  0.0572 -0.2752 -0.1690
  183SLPC  H11A20958   5.546   5.668  10.943 -0.3736 -0.1164  0.3067
  183SLPC  H11B20959   5.585   5.492  10.962 -0.6365 -1.3909  2.1218
  183SLPC     P20960   5.834   5.627  10.937  0.1794 -0.1137  0.0456
  183SLPC   O1320961   5.848   5.770  10.895  0.1311  0.0676 -0.4440
  183SLPC   O1420962   5.960   5.567  10.993  0.6012  0.0700  0.5370
  183SLPC   O1220963   5.723   5.618  11.051 -0.2788  0.3752 -0.1565
  183SLPC   O1120964   5.780   5.531  10.819  0.1780 -0.0062 -0.4106
  183SLPC    C120965   5.786   5.559  10.680  0.2039  0.7196 -0.4528
  183SLPC    HA20966   5.852   5.644  10.652 -0.0677  0.3298 -2.4743
  183SLPC    HB20967   5.835   5.469  10.635 -0.2203 -0.5783  1.5629
  183SLPC    C220968   5.640   5.563  10.631 -0.1670 -0.1954 -0.0670
  183SLPC    HS20969   5.591   5.632  10.702 -0.3672 -0.2276 -0.1719
  183SLPC   O2120970   5.587   5.427  10.652 -0.0173  0.2627 -0.0370
  183SLPC   C2120971   5.451   5.427  10.644  0.3468 -0.4446 -0.4345
  183SLPC   O2220972   5.379   5.523  10.666  0.1058 -0.3826  0.6006
  183SLPC   C2220973   5.412   5.293  10.585  0.7367  0.2062  0.3710
  183SLPC   H2R20974   5.499   5.248  10.533 -1.4468  0.0920 -3.5576
  183SLPC   H2S20975   5.381   5.228  10.670  1.9394 -1.0909 -0.1482
  183SLPC    C320976   5.632   5.614  10.487 -0.2085 -0.7636  0.5464
  183SLPC    HX20977   5.679   5.715  10.477  0.5956 -1.1089  0.7898
  183SLPC    HY20978   5.525   5.625  10.458  0.2662  2.4187 -0.4626
  183SLPC   O3120979   5.697   5.524  10.401 -0.1323  0.6959  0.1065
  183SLPC   C3120980   5.818   5.549  10.344  0.5784 -0.3952 -0.6868
  183SLPC   O3220981   5.885   5.644  10.369 -0.3022 -0.6598  0.5339
  183SLPC   C3220982   5.858   5.452  10.237 -0.1944 -0.2116  0.1718
  183SLPC   H2X20983   5.769   5.401  10.196  1.9460 -3.0044 -1.3374
  183SLPC   H2Y20984   5.930   5.374  10.272  0.4519 -0.6706 -2.0163
  183SLPC   C2320985   5.284   5.303  10.498  0.7799 -0.2150 -0.3394
  183SLPC   H3R20986   5.194   5.334  10.556 -0.3128 -2.1385 -0.9124
  183SLPC   H3S20987   5.251   5.200  10.474  1.4210 -0.9880  1.8509
  183SLPC   C2420988   5.305   5.395  10.378  0.2352  0.2228  0.2450
  183SLPC   H4R20989   5.355   5.490  10.410  1.2706 -0.6418  1.3114
  183SLPC   H4S20990   5.208   5.421  10.331  0.8941  0.3293 -1.0951
  183SLPC   C2520991   5.388   5.327  10.270 -0.0393 -0.8839  0.3391
  183SLPC   H5R20992   5.326   5.243  10.232 -2.4134  0.4350  1.1172
  183SLPC   H5S20993   5.486   5.289  10.305  0.0501 -1.7070 -0.7378
  183SLPC   C2620994   5.406   5.416  10.153  0.4985 -0.7540 -0.1792
  183SLPC   H6R20995   5.474   5.494  10.194 -0.9926 -0.5067  2.0398
  183SLPC   H6S20996   5.313   5.452  10.104  1.3732 -0.2308 -1.4955
  183SLPC   C2720997   5.484   5.341  10.046 -0.4066  0.3477  0.0939
  183SLPC   H7R20998   5.428   5.245  10.032  3.1935 -1.9766  0.3754
  183SLPC   H7S20999   5.586   5.320  10.084 -0.5472 -2.2233 -0.7679
  183SLPC   C2821000   5.487   5.406   9.907 -0.0518 -0.0195 -0.8781
  183SLPC   H8R21001   5.537   5.506   9.904  0.9500 -0.5087 -0.9596
  183SLPC   H8S21002   5.383   5.422   9.871  0.7077 -0.4336 -3.4560
  183SLPC   C2921003   5.567   5.322   9.814 -0.6262 -0.0291 -0.1859
  183SLPC   H9R21004   5.669   5.299   9.849 -0.6074 -0.0341 -0.2444
  183SLPC  C21021005   5.517   5.253   9.714  0.1890  0.8771 -0.4473
  183SLPC  H10R21006   5.586   5.187   9.660  0.7491  1.5070 -0.5268
  183SLPC  C21121007   5.378   5.243   9.662  0.0649  0.6002  0.4042
  183SLPC  H11R21008   5.350   5.333   9.603 -0.5937 -1.6534 -2.9841
  183SLPC  H11S21009   5.311   5.242   9.751  1.2047  0.0141  1.2845
  183SLPC  C21221010   5.356   5.130   9.560 -0.5128  0.5847 -0.3312
  183SLPC  H12R21011   5.430   5.122   9.479  0.6677  1.3223  0.6379
  183SLPC  C21321012   5.265   5.032   9.556 -0.2682  0.0207  0.3516
  183SLPC  H13R21013   5.271   4.954   9.479  0.8615 -1.2188  1.6320
  183SLPC  C21421014   5.151   5.008   9.652  0.2089 -0.3203 -0.3641
  183SLPC  H14R21015   5.059   5.019   9.590  1.3306  1.7181 -1.8058
  183SLPC  H14S21016   5.141   5.093   9.723 -2.0607 -1.0203  0.2277
  183SLPC  C21521017   5.147   4.874   9.719 -0.3821  0.1730 -0.7869
  183SLPC  H15R21018   5.158   4.784   9.655 -0.7339 -1.9831  1.9864
  183SLPC  H15S21019   5.046   4.860   9.762 -0.1007 -1.2058 -0.5083
  183SLPC  C21621020   5.241   4.861   9.843  0.1943  0.7873  0.1000
  183SLPC  H16R21021   5.344   4.881   9.807 -0.1231  1.2780 -0.5502
  183SLPC  H16S21022   5.242   4.763   9.895  1.0173 -0.6121 -2.3770
  183SLPC  C21721023   5.206   4.965   9.957  1.1071 -0.6534 -0.3751
  183SLPC  H17R21024   5.104   4.941   9.994 -0.1699  0.2169 -3.0417
  183SLPC  H17S21025   5.206   5.071   9.921 -2.2254 -0.7533 -0.9846
  183SLPC  C21821026   5.291   4.957  10.077 -0.1516  0.0451 -0.3073
  183SLPC  H18R21027   5.397   4.977  10.051 -0.5139  1.6851 -0.6328
  183SLPC  H18S21028   5.291   4.857  10.126  1.5286 -0.4879 -1.2985
  183SLPC  H18T21029   5.260   5.036  10.148  2.0447  0.6793  0.0136
  183SLPC   C3321030   5.926   5.509  10.112 -0.2542  0.9833  0.1640
  183SLPC   H3X21031   5.960   5.425  10.047 -1.1395  0.9063 -0.2209
  183SLPC   H3Y21032   6.012   5.578  10.124 -0.5161  1.6214 -1.3546
  183SLPC   C3421033   5.833   5.586  10.032 -0.4101 -0.6172  0.0794
  183SLPC   H4X21034   5.784   5.662  10.097 -0.4027 -1.8364  1.5796
  183SLPC   H4Y21035   5.750   5.514  10.016  0.3888 -1.0673 -2.4468
  183SLPC   C3521036   5.894   5.657   9.914  0.2268 -0.3939 -0.2511
  183SLPC   H5X21037   5.966   5.595   9.856 -1.0592 -0.8948 -1.3689
  183SLPC   H5Y21038   5.955   5.742   9.953 -0.0599  0.1494 -0.9524
  183SLPC   C3621039   5.796   5.693   9.797  0.5163  0.5402 -0.2170
  183SLPC   H6X21040   5.749   5.786   9.833  0.0174 -0.1227  0.8883
  183SLPC   H6Y21041   5.713   5.620   9.808  1.7698 -0.5817  3.2499
  183SLPC   C3721042   5.842   5.701   9.654 -0.3165 -0.1813  0.6122
  183SLPC   H7X21043   5.884   5.605   9.618  3.0331  1.0296  0.9488
  183SLPC   H7Y21044   5.927   5.772   9.651 -0.5525  0.0793 -0.0663
  183SLPC   C3821045   5.724   5.743   9.559  0.0172 -0.9672  0.1549
  183SLPC   H8X21046   5.706   5.852   9.555 -2.7337 -1.3893 -2.3073
  183SLPC   H8Y21047   5.630   5.698   9.598  0.0379 -0.9165  0.2648
  183SLPC   C3921048   5.741   5.695   9.412  0.2877 -0.5074 -0.5696
  183SLPC   H9X21049   5.775   5.590   9.410  1.2926 -0.2107  0.0867
  183SLPC   H9Y21050   5.821   5.762   9.374 -0.1948 -0.3342 -1.3087
  183SLPC  C31021051   5.619   5.714   9.318 -0.2644 -0.0668 -0.2387
  183SLPC  H10X21052   5.593   5.822   9.324 -0.6302 -0.0641 -1.5219
  183SLPC  H10Y21053   5.541   5.661   9.377 -0.9268  0.7824 -0.3313
  183SLPC  C31121054   5.643   5.663   9.176  0.5513  0.5039  0.8169
  183SLPC  H11X21055   5.692   5.564   9.163 -0.2129  0.1011  0.9322
  183SLPC  H11Y21056   5.707   5.728   9.114 -2.2066  1.4714 -1.2157
  183SLPC  C31221057   5.507   5.642   9.105 -0.1259 -0.5402  0.1620
  183SLPC  H12X21058   5.433   5.724   9.115 -1.0241 -1.3563  0.3688
  183SLPC  H12Y21059   5.454   5.552   9.145 -2.6499  0.1959 -1.3614
  183SLPC  C31321060   5.522   5.615   8.954 -0.5380  0.0354 -0.0951
  183SLPC  H13X21061   5.423   5.589   8.910 -0.5000 -0.3410  0.0357
  183SLPC  H13Y21062   5.578   5.521   8.937 -1.1057 -0.1758 -0.8682
  183SLPC  C31421063   5.589   5.730   8.883 -0.6238 -0.6860 -0.1331
  183SLPC  H14X21064   5.700   5.723   8.894 -0.7881 -1.6588  1.1325
  183SLPC  H14Y21065   5.543   5.817   8.935 -0.6627  0.0501 -1.3551
  183SLPC  C31521066   5.562   5.738   8.732 -0.0347 -0.1751  0.3583
  183SLPC  H15X21067   5.624   5.820   8.691  0.8351  0.4506  2.7251
  183SLPC  H15Y21068   5.454   5.760   8.722 -0.7065 -2.9011  0.6269
  183SLPC  C31621069   5.579   5.609   8.651 -0.4104  0.4378  0.5602
  183SLPC  H16X21070   5.508   5.535   8.694 -0.5562 -0.4032 -1.0447
  183SLPC  H16Y21071   5.677   5.556   8.655  0.6879  2.1716 -1.3152
  183SLPC  C31721072   5.540   5.631   8.503 -0.3469  0.5294  0.1471
  183SLPC  H17X21073   5.624   5.684   8.453  1.1955 -1.2083  0.7381
  183SLPC  H17Y21074   5.449   5.694   8.503 -0.1638  0.7950  0.0347
  183SLPC  C31821075   5.510   5.503   8.425  0.2411 -0.2105 -0.3881
  183SLPC  H18X21076   5.603   5.447   8.406  0.7625  0.7271 -0.6855
  183SLPC  H18Y21077   5.464   5.528   8.327  2.0894 -2.2962 -1.8625
  183SLPC  H18Z21078   5.435   5.446   8.483 -0.4506 -0.3411 -1.3859
  184SLPC     N21079   1.608   1.171  10.829 -0.3849  0.2551  0.3153
  184SLPC   C1321080   1.541   1.041  10.830  0.7056  0.4439 -0.5370
  184SLPC  H13A21081   1.570   0.989  10.920  0.0655 -2.0522 -1.6880
  184SLPC  H13B21082   1.434   1.050  10.820  0.6162 -0.4485 -0.4817
  184SLPC  H13C21083   1.576   0.980  10.748  0.0779  3.0115 -2.8683
  184SLPC   C1421084   1.755   1.151  10.849 -0.2818  0.2774  0.4183
  184SLPC  H14A21085   1.822   1.096  10.785  0.6888  0.8402  0.9232
  184SLPC  H14B21086   1.803   1.246  10.869  0.2091  0.5537 -1.8878
  184SLPC  H14C21087   1.766   1.092  10.939 -0.5504 -0.8913 -0.2949
  184SLPC   C1521088   1.548   1.261  10.933  0.0609  0.2800 -0.0645
  184SLPC  H15A21089   1.555   1.203  11.024  0.7590  0.1728 -0.1805
  184SLPC  H15B21090   1.601   1.355  10.930  0.3966  0.0646 -1.9549
  184SLPC  H15C21091   1.445   1.284  10.908  0.7103  2.1251 -1.2418
  184SLPC   C1221092   1.591   1.231  10.687  0.3548 -0.1189  0.4419
  184SLPC  H12A21093   1.651   1.319  10.666 -0.5434 -0.0152 -1.9906
  184SLPC  H12B21094   1.487   1.259  10.678  0.5484  0.4290 -0.1169
  184SLPC   C1121095   1.623   1.129  10.564  0.4455 -0.1662 -0.6373
  184SLPC  H11A21096   1.709   1.067  10.598  0.8754  0.1379 -1.1707
  184SLPC  H11B21097   1.650   1.206  10.489  0.0605  1.1123  0.4907
  184SLPC     P21098   1.393   1.081  10.444 -0.4371 -0.0975  0.1438
  184SLPC   O1321099   1.324   0.966  10.385  0.1034 -0.2257 -0.3474
  184SLPC   O1421100   1.314   1.168  10.531 -0.3211 -0.0340  0.0786
  184SLPC   O1221101   1.519   1.033  10.532 -0.1938  0.0208  0.4178
  184SLPC   O1121102   1.464   1.158  10.324 -0.7622  0.3310  0.3886
  184SLPC    C121103   1.545   1.099  10.232  0.0315  0.3793  0.3544
  184SLPC    HA21104   1.644   1.147  10.241  0.3586 -0.5454  2.0465
  184SLPC    HB21105   1.564   0.992  10.255  1.3131  0.0722 -1.8578
  184SLPC    C221106   1.495   1.104  10.086 -0.5132  0.6386 -0.2313
  184SLPC    HS21107   1.580   1.062  10.029  0.7767 -0.0538  2.0911
  184SLPC   O2121108   1.479   1.245  10.064  0.4752 -0.5361 -0.2174
  184SLPC   C2121109   1.532   1.287   9.940  0.4980 -0.2946 -0.7086
  184SLPC   O2221110   1.605   1.225   9.868 -0.8531  0.4128 -0.4716
  184SLPC   C2221111   1.492   1.430   9.906 -0.9481 -0.1258 -0.9545
  184SLPC   H2R21112   1.413   1.470   9.973 -0.4006 -0.5772 -0.0263
  184SLPC   H2S21113   1.576   1.498   9.932 -0.8407 -0.5325 -0.1998
  184SLPC    C321114   1.362   1.027  10.061  0.1499 -0.7515 -0.4641
  184SLPC    HX21115   1.281   1.074  10.120  1.2503  0.2024  0.3305
  184SLPC    HY21116   1.370   0.921  10.092 -2.6511 -0.3544  2.0345
  184SLPC   O3121117   1.312   1.038   9.931  0.1650 -0.6518  0.4351
  184SLPC   C3121118   1.369   0.957   9.842  0.4665  0.6751 -0.4087
  184SLPC   O3221119   1.455   0.875   9.875  0.3423  0.1392  0.0079
  184SLPC   C3221120   1.328   0.993   9.710 -0.3970  0.2871  0.5161
  184SLPC   H2X21121   1.307   1.102   9.712  0.7115  0.5124  2.0851
  184SLPC   H2Y21122   1.236   0.945   9.671  0.3971 -1.7909  1.0707
  184SLPC   C2321123   1.454   1.467   9.761  0.6729 -0.5543  0.1498
  184SLPC   H3R21124   1.542   1.428   9.706  0.6955  0.9979 -1.0069
  184SLPC   H3S21125   1.454   1.578   9.759  2.6436 -0.4024  2.9962
  184SLPC   C2421126   1.318   1.433   9.691 -0.1185  0.0822 -0.0870
  184SLPC   H4R21127   1.230   1.479   9.742 -1.6326  0.7899 -3.0689
  184SLPC   H4S21128   1.301   1.325   9.710 -3.7560  0.4412 -0.5993
  184SLPC   C2521129   1.308   1.469   9.543 -0.9536 -0.3991  0.2915
  184SLPC   H5R21130   1.389   1.417   9.488  0.6184  1.5288  0.6725
  184SLPC   H5S21131   1.336   1.576   9.534 -0.3181 -0.5671  0.2336
  184SLPC   C2621132   1.171   1.440   9.470 -0.5400 -0.1046  0.3349
  184SLPC   H6R21133   1.098   1.515   9.509 -1.1172 -0.6355  0.2897
  184SLPC   H6S21134   1.122   1.345   9.499 -0.7848  0.2689  1.1721
  184SLPC   C2721135   1.181   1.455   9.318 -0.2543  0.4262  0.4945
  184SLPC   H7R21136   1.243   1.371   9.280 -1.4206 -0.2992  0.1536
  184SLPC   H7S21137   1.236   1.547   9.286  1.5896  0.6960  3.9581
  184SLPC   C2821138   1.048   1.445   9.245  0.4903 -0.6682  0.4512
  184SLPC   H8R21139   0.992   1.353   9.273 -0.9279 -0.4533 -1.4555
  184SLPC   H8S21140   1.066   1.436   9.135 -2.7435 -5.4578 -0.0071
  184SLPC   C2921141   0.954   1.560   9.269 -0.1267 -0.5499  0.0059
  184SLPC   H9R21142   0.999   1.644   9.325 -0.3667 -0.3506 -0.0972
  184SLPC  C21021143   0.822   1.572   9.236  0.2725  0.1603 -0.2981
  184SLPC  H10R21144   0.761   1.657   9.270 -0.6723 -0.3752 -0.6448
  184SLPC  C21121145   0.745   1.464   9.164 -0.1583  0.8775 -0.4087
  184SLPC  H11R21146   0.691   1.409   9.244  1.3246 -0.4901 -0.2889
  184SLPC  H11S21147   0.802   1.375   9.130  0.0118  1.3966 -1.5074
  184SLPC  C21221148   0.647   1.494   9.051 -0.2685  0.5647 -0.7309
  184SLPC  H12R21149   0.543   1.506   9.086 -1.4083  0.0261 -3.6173
  184SLPC  C21321150   0.668   1.514   8.921  0.1508 -0.9228 -0.0595
  184SLPC  H13R21151   0.592   1.541   8.847  1.2284  2.3120 -0.1898
  184SLPC  C21421152   0.802   1.509   8.858 -0.5104 -0.0950  0.4666
  184SLPC  H14R21153   0.793   1.468   8.756  0.3537  0.7341  0.0327
  184SLPC  H14S21154   0.866   1.435   8.912 -0.1204 -0.8547 -0.9971
  184SLPC  C21521155   0.873   1.647   8.837  0.7198 -0.2271  0.6812
  184SLPC  H15R21156   0.974   1.622   8.799  0.7359  0.7354  0.0441
  184SLPC  H15S21157   0.877   1.701   8.935 -1.6802  3.6233 -1.0716
  184SLPC  C21621158   0.800   1.745   8.741  0.6207 -0.6824 -0.1938
  184SLPC  H16R21159   0.692   1.758   8.763  0.5933  0.7473 -1.0628
  184SLPC  H16S21160   0.800   1.688   8.645  3.2099  0.0034 -0.6566
  184SLPC  C21721161   0.871   1.877   8.722 -0.5932 -0.0151 -0.2863
  184SLPC  H17R21162   0.974   1.856   8.685 -0.5505 -0.0047 -0.1721
  184SLPC  H17S21163   0.875   1.913   8.827  1.1459 -2.7507  0.6940
  184SLPC  C21821164   0.805   1.968   8.623  0.6282  0.2483 -0.3152
  184SLPC  H18R21165   0.698   1.981   8.651  0.4189  0.4420 -1.1766
  184SLPC  H18S21166   0.801   1.927   8.520  0.3415  1.4784 -0.8153
  184SLPC  H18T21167   0.847   2.071   8.619  0.7230  0.1624 -2.3958
  184SLPC   C3321168   1.433   0.959   9.601 -0.1078 -0.1877  0.4902
  184SLPC   H3X21169   1.445   0.849   9.597 -1.6075 -0.3716  0.4494
  184SLPC   H3Y21170   1.528   0.999   9.643  0.0108 -0.7178  0.7330
  184SLPC   C3421171   1.411   1.024   9.461 -0.1690  0.6556 -0.1630
  184SLPC   H4X21172   1.513   1.018   9.416  0.1390  0.8959  0.4955
  184SLPC   H4Y21173   1.384   1.129   9.485 -0.4837  0.4142  0.5684
  184SLPC   C3521174   1.294   0.961   9.380  0.2365  0.8610  0.2318
  184SLPC   H5X21175   1.196   0.955   9.433  0.3504  0.5996  0.4187
  184SLPC   H5Y21176   1.320   0.854   9.362  1.8624  1.3555 -0.5851
  184SLPC   C3621177   1.270   1.029   9.244 -0.0222  0.0728 -0.5769
  184SLPC   H6X21178   1.364   1.050   9.187  0.1444  0.1599 -0.2733
  184SLPC   H6Y21179   1.218   1.127   9.258  0.8865  0.5040 -0.0913
  184SLPC   C3721180   1.179   0.943   9.150 -0.3004 -0.6513 -0.4692
  184SLPC   H7X21181   1.081   0.903   9.185 -1.9389  0.1699 -3.6790
  184SLPC   H7Y21182   1.241   0.860   9.112  0.0500  0.3806 -2.2735
  184SLPC   C3821183   1.143   1.025   9.022  0.2264  0.7216  0.1286
  184SLPC   H8X21184   1.233   1.077   8.983  0.4896  0.3046  0.1696
  184SLPC   H8Y21185   1.077   1.108   9.054 -0.5819 -0.6549  2.3005
  184SLPC   C3921186   1.064   0.963   8.908  0.1847 -0.0806 -0.0867
  184SLPC   H9X21187   1.033   1.047   8.842 -2.1702 -1.6726 -1.1115
  184SLPC   H9Y21188   0.972   0.914   8.946 -0.1002  1.8833  1.9984
  184SLPC  C31021189   1.140   0.868   8.818  0.0827 -0.7337 -0.5773
  184SLPC  H10X21190   1.214   0.813   8.880  1.2395 -0.9071 -2.0418
  184SLPC  H10Y21191   1.199   0.921   8.741 -0.0288 -0.0161 -0.1738
  184SLPC  C31121192   1.038   0.767   8.751  0.1506  0.0143  0.5830
  184SLPC  H11X21193   0.945   0.822   8.728 -0.8485 -1.8319  0.0348
  184SLPC  H11Y21194   1.021   0.695   8.834 -1.2040  0.5666  0.8108
  184SLPC  C31221195   1.089   0.695   8.629  0.1160 -0.4183  0.0505
  184SLPC  H12X21196   1.194   0.670   8.659  0.3135  0.4592  0.1336
  184SLPC  H12Y21197   1.083   0.768   8.546 -2.0945 -0.9739 -0.3210
  184SLPC  C31321198   1.001   0.569   8.601 -0.7492  0.0965 -0.1592
  184SLPC  H13X21199   0.895   0.600   8.612 -0.7384  0.5626 -1.2480
  184SLPC  H13Y21200   1.018   0.492   8.680  1.2848  1.4655  0.8202
  184SLPC  C31421201   1.039   0.503   8.477 -0.6914 -0.0696  0.3670
  184SLPC  H14X21202   1.004   0.400   8.455  2.4382 -0.9501 -0.9410
  184SLPC  H14Y21203   1.149   0.505   8.465 -0.5372 -1.1103  1.4722
  184SLPC  C31521204   0.991   0.582   8.351 -0.7033  0.5332  1.1142
  184SLPC  H15X21205   1.029   0.686   8.349  0.9361  0.0306  2.9749
  184SLPC  H15Y21206   0.880   0.594   8.348 -0.7685 -0.2150 -0.9480
  184SLPC  C31621207   1.037   0.505   8.220  0.3933  0.5663 -0.7509
  184SLPC  H16X21208   0.968   0.417   8.217 -1.7999  2.2311 -2.7953
  184SLPC  H16Y21209   1.145   0.490   8.242  0.1027 -0.3715  0.1261
  184SLPC  C31721210   1.006   0.592   8.093  0.2804  0.3002  0.4398
  184SLPC  H17X21211   1.075   0.677   8.110  0.3119  0.2240  0.6982
  184SLPC  H17Y21212   0.899   0.615   8.113  0.5012  1.1732  0.6817
  184SLPC  C31821213   1.024   0.535   7.947 -0.0112  0.5866 -0.4249
  184SLPC  H18X21214   0.986   0.598   7.864 -0.5972  2.9147  1.5004
  184SLPC  H18Y21215   0.973   0.436   7.939 -0.2294  0.5411  1.1709
  184SLPC  H18Z21216   1.132   0.512   7.933 -0.2579 -1.4205  0.5150
  185SLPC     N21217   3.351   4.525   6.170  0.1261 -0.8547  0.4779
  185SLPC   C1321218   3.436   4.610   6.082  0.5898 -0.5623 -0.5646
  185SLPC  H13A21219   3.398   4.705   6.049  2.4313  0.9086  1.2418
  185SLPC  H13B21220   3.524   4.631   6.141 -0.8921  1.7346  1.0282
  185SLPC  H13C21221   3.454   4.559   5.989 -0.1416  0.6319 -1.3805
  185SLPC   C1421222   3.225   4.514   6.097 -0.2706  0.5390 -0.2473
  185SLPC  H14A21223   3.183   4.610   6.072  1.0045  1.7547  1.9509
  185SLPC  H14B21224   3.233   4.451   6.010 -1.3548 -1.7560  1.2006
  185SLPC  H14C21225   3.141   4.467   6.147 -0.8752  0.0209 -1.6884
  185SLPC   C1521226   3.330   4.594   6.303 -0.2546  0.3921  0.5217
  185SLPC  H15A21227   3.249   4.562   6.367 -0.9757  1.0297 -0.0505
  185SLPC  H15B21228   3.414   4.583   6.370  1.7032 -0.2001 -1.9001
  185SLPC  H15C21229   3.321   4.701   6.294  1.1979  0.6983  2.3060
  185SLPC   C1221230   3.417   4.390   6.180  0.4629 -0.5278  0.3268
  185SLPC  H12A21231   3.522   4.408   6.201  0.6882 -1.9019  0.4590
  185SLPC  H12B21232   3.409   4.339   6.085 -1.2455  0.0042  0.1662
  185SLPC   C1121233   3.357   4.288   6.281 -0.7586  0.0007  0.7360
  185SLPC  H11A21234   3.369   4.323   6.386 -3.3334  1.1668  0.7187
  185SLPC  H11B21235   3.420   4.197   6.274  0.5400  0.9875 -1.3036
  185SLPC     P21236   3.100   4.268   6.347 -0.1724 -0.0702  0.0920
  185SLPC   O1321237   3.006   4.330   6.254  0.3907 -0.2017 -0.3656
  185SLPC   O1421238   3.073   4.139   6.409 -0.5154  0.4056 -0.2940
  185SLPC   O1221239   3.222   4.249   6.252 -0.6816  0.2823 -0.4841
  185SLPC   O1121240   3.151   4.368   6.458  0.1377  0.1708 -0.7997
  185SLPC    C121241   3.074   4.470   6.505 -0.7079  0.7562  0.2559
  185SLPC    HA21242   3.143   4.544   6.551 -0.2957  0.8061 -0.4329
  185SLPC    HB21243   3.032   4.534   6.425  1.3311  1.5083 -0.2765
  185SLPC    C221244   2.965   4.444   6.611 -0.1853 -0.1978  0.7265
  185SLPC    HS21245   2.873   4.411   6.559 -0.4332 -0.1045  1.1072
  185SLPC   O2121246   2.952   4.569   6.677 -0.1198 -0.2950 -0.4972
  185SLPC   C2121247   2.840   4.605   6.732  0.3365  0.4039  0.5133
  185SLPC   O2221248   2.743   4.527   6.741 -0.3780  0.4910 -0.3764
  185SLPC   C2221249   2.850   4.745   6.796  0.7087  0.5681  0.2213
  185SLPC   H2R21250   2.921   4.810   6.741 -0.5612  4.9304  3.2218
  185SLPC   H2S21251   2.746   4.785   6.786  0.0985 -1.4099 -2.4009
  185SLPC    C321252   3.009   4.335   6.709 -0.1726 -0.4231  0.4629
  185SLPC    HX21253   3.111   4.374   6.730 -1.3542  2.9409  0.3957
  185SLPC    HY21254   3.019   4.246   6.643  0.3920  0.2346 -0.3555
  185SLPC   O3121255   2.922   4.305   6.822 -1.1925 -0.2113 -0.5207
  185SLPC   C3121256   2.966   4.362   6.929 -0.5954 -0.1700  0.0675
  185SLPC   O3221257   3.076   4.406   6.944 -0.8573  0.4285  0.0342
  185SLPC   C3221258   2.858   4.347   7.040 -0.3414 -0.0246  0.0378
  185SLPC   H2X21259   2.846   4.239   7.063 -0.1655  0.2884  1.7173
  185SLPC   H2Y21260   2.768   4.375   6.981  0.7819 -0.1617 -1.8250
  185SLPC   C2321261   2.882   4.732   6.947  0.6810 -0.3470  0.1056
  185SLPC   H3R21262   2.979   4.682   6.971  0.8884  1.0137  2.3918
  185SLPC   H3S21263   2.806   4.669   6.998 -1.0761  2.3254  0.9978
  185SLPC   C2421264   2.880   4.873   7.011 -0.1469  0.4925  0.1385
  185SLPC   H4R21265   2.779   4.914   7.029  0.5986  2.0080  1.0794
  185SLPC   H4S21266   2.941   4.946   6.954  1.9892 -1.6190 -0.4672
  185SLPC   C2521267   2.965   4.860   7.148  0.0800  0.3048  0.4091
  185SLPC   H5R21268   3.061   4.915   7.135 -0.3215  0.5807 -1.7141
  185SLPC   H5S21269   2.981   4.757   7.185 -1.7875 -0.1710 -0.0151
  185SLPC   C2621270   2.884   4.926   7.264  0.1707  0.4216  0.4219
  185SLPC   H6R21271   2.784   4.881   7.276  0.3727 -0.6404 -1.4320
  185SLPC   H6S21272   2.867   5.034   7.241  1.5993  1.0377  2.0644
  185SLPC   C2721273   2.964   4.927   7.396  0.5471 -0.2392 -0.2456
  185SLPC   H7R21274   3.055   4.989   7.385  0.2488  0.4398  0.8568
  185SLPC   H7S21275   2.997   4.821   7.404  2.7083  0.3588 -0.5887
  185SLPC   C2821276   2.889   4.983   7.517 -0.2073 -0.6811  0.2160
  185SLPC   H8R21277   2.799   4.922   7.536  1.2602 -2.7033  1.0707
  185SLPC   H8S21278   2.861   5.088   7.494 -0.0379 -0.2628  1.7611
  185SLPC   C2921279   2.979   5.002   7.637 -0.4884  0.1698 -0.1653
  185SLPC   H9R21280   3.072   5.046   7.599 -0.1575 -1.6564 -1.5556
  185SLPC  C21021281   2.967   4.956   7.764  0.4965  0.0092 -0.3802
  185SLPC  H10R21282   3.045   4.987   7.835 -0.3358  0.8830  0.1919
  185SLPC  C21121283   2.849   4.880   7.828 -0.0157 -0.3748  0.4073
  185SLPC  H11R21284   2.889   4.812   7.906  0.1995  0.0267  0.6482
  185SLPC  H11S21285   2.794   4.822   7.750 -0.9744  0.1458  0.6729
  185SLPC  C21221286   2.748   4.981   7.880 -0.7155  0.0528 -0.1639
  185SLPC  H12R21287   2.720   5.062   7.812  2.5774 -0.6694 -2.6207
  185SLPC  C21321288   2.710   4.987   8.007 -0.1925  1.0505  0.2927
  185SLPC  H13R21289   2.650   5.071   8.045  1.1464  2.1132  0.1111
  185SLPC  C21421290   2.748   4.902   8.129 -0.4041 -0.2014  0.7624
  185SLPC  H14R21291   2.804   4.812   8.095  4.8271  2.4770  1.2435
  185SLPC  H14S21292   2.656   4.866   8.179 -0.7573  0.6228  0.7188
  185SLPC  C21521293   2.854   4.956   8.227  0.3922  0.1929  0.9195
  185SLPC  H15R21294   2.824   5.063   8.238  0.4805  0.5839 -1.8547
  185SLPC  H15S21295   2.954   4.955   8.179 -0.2288  2.0973 -0.5692
  185SLPC  C21621296   2.861   4.883   8.366  0.1294 -0.1797  0.1310
  185SLPC  H16R21297   2.753   4.874   8.391  0.4967 -1.3232  1.4148
  185SLPC  H16S21298   2.919   4.944   8.438  1.8603 -2.4481  0.7619
  185SLPC  C21721299   2.923   4.737   8.358 -0.1408 -0.1562 -0.9458
  185SLPC  H17R21300   3.034   4.736   8.352 -0.0340  0.5076  0.5017
  185SLPC  H17S21301   2.887   4.687   8.265 -1.3708  1.7667 -1.5765
  185SLPC  C21821302   2.892   4.652   8.475  0.1502  0.3410  0.4387
  185SLPC  H18R21303   2.964   4.568   8.487  0.2853  0.2950 -0.5584
  185SLPC  H18S21304   2.802   4.591   8.452  2.8399 -3.0404 -2.1529
  185SLPC  H18T21305   2.888   4.710   8.569  0.7033 -0.9649  1.2893
  185SLPC   C3321306   2.868   4.424   7.167  0.5016 -0.5527 -0.0883
  185SLPC   H3X21307   2.768   4.422   7.216  0.5208  0.3123  0.0034
  185SLPC   H3Y21308   2.893   4.532   7.156  0.9187 -0.6138  0.2057
  185SLPC   C3421309   2.979   4.361   7.254  0.1533  0.4036 -0.0761
  185SLPC   H4X21310   3.073   4.395   7.207 -1.1589  2.3957 -1.4073
  185SLPC   H4Y21311   2.977   4.250   7.248  2.4757  0.2188  1.2733
  185SLPC   C3521312   2.957   4.389   7.403  0.6378 -0.2136  0.5224
  185SLPC   H5X21313   3.046   4.344   7.454  1.0865 -0.0875 -0.1387
  185SLPC   H5Y21314   2.861   4.346   7.439  0.1243  1.2766  1.0023
  185SLPC   C3621315   2.955   4.539   7.442 -0.2700  0.3576 -0.5097
  185SLPC   H6X21316   2.865   4.587   7.397 -0.4905 -1.1255 -1.7313
  185SLPC   H6Y21317   3.043   4.595   7.405 -1.4489  3.1248  0.5594
  185SLPC   C3721318   2.943   4.560   7.592  0.3634 -0.1963 -0.7803
  185SLPC   H7X21319   2.976   4.662   7.621 -1.3521  0.4387 -1.0095
  185SLPC   H7Y21320   3.013   4.491   7.646  0.5733  0.2049 -0.5375
  185SLPC   C3821321   2.803   4.534   7.648  0.8932  0.0691  0.0217
  185SLPC   H8X21322   2.755   4.437   7.622 -1.4992  0.5073  2.3267
  185SLPC   H8Y21323   2.737   4.613   7.607  0.0250 -1.8366 -2.5058
  185SLPC   C3921324   2.801   4.538   7.806  0.2078  0.2878 -0.1707
  185SLPC   H9X21325   2.700   4.563   7.847  1.1155 -1.3859  3.5132
  185SLPC   H9Y21326   2.873   4.616   7.836  0.6730  0.4662 -1.6452
  185SLPC  C31021327   2.849   4.405   7.868 -0.0364  0.8809  0.0652
  185SLPC  H10X21328   2.951   4.378   7.834 -0.7787 -2.7713  0.3110
  185SLPC  H10Y21329   2.785   4.322   7.834 -1.2706  2.0598 -0.5882
  185SLPC  C31121330   2.850   4.398   8.021 -1.1066 -0.2299 -0.3773
  185SLPC  H11X21331   2.904   4.492   8.042  0.6773 -1.1521 -0.6101
  185SLPC  H11Y21332   2.918   4.316   8.055  0.0860  1.2202  0.9016
  185SLPC  C31221333   2.708   4.379   8.081 -0.2668  0.1145 -0.3183
  185SLPC  H12X21334   2.660   4.293   8.030  2.9459 -0.7523 -2.2100
  185SLPC  H12Y21335   2.647   4.464   8.044  1.1614  1.1029 -0.5170
  185SLPC  C31321336   2.707   4.386   8.235  0.1874  0.1359  1.2413
  185SLPC  H13X21337   2.747   4.483   8.271  3.5072 -0.6172 -0.0807
  185SLPC  H13Y21338   2.776   4.308   8.273  1.2105 -0.0142 -0.8289
  185SLPC  C31421339   2.561   4.365   8.278 -0.6957  0.1712  0.1072
  185SLPC  H14X21340   2.521   4.280   8.219 -0.0701  0.5316 -0.8697
  185SLPC  H14Y21341   2.498   4.456   8.266 -1.7842 -0.5801 -0.0515
  185SLPC  C31521342   2.544   4.317   8.425  0.2954  0.4672 -0.4597
  185SLPC  H15X21343   2.604   4.223   8.428 -1.1936 -0.4868  0.5462
  185SLPC  H15Y21344   2.443   4.277   8.445  1.1918 -2.2859 -1.0757
  185SLPC  C31621345   2.575   4.410   8.544  0.3334  0.5677  0.5629
  185SLPC  H16X21346   2.515   4.503   8.531  2.3288  2.0652  1.4710
  185SLPC  H16Y21347   2.685   4.426   8.541  0.9216 -2.4264  1.9623
  185SLPC  C31721348   2.552   4.361   8.691  0.1550 -0.2738 -0.7606
  185SLPC  H17X21349   2.443   4.358   8.711  0.7243 -0.3869  2.8484
  185SLPC  H17Y21350   2.587   4.444   8.756 -0.1998  0.2270 -1.1997
  185SLPC  C31821351   2.608   4.229   8.735 -0.4028  0.2387  0.0487
  185SLPC  H18X21352   2.545   4.205   8.824 -0.8784  0.7304 -0.1504
  185SLPC  H18Y21353   2.717   4.218   8.752 -0.6196 -1.4037  0.5929
  185SLPC  H18Z21354   2.575   4.149   8.665  0.1637 -0.5668  0.6687
  186SLPC     N21355   5.083   1.508   6.022  0.0754  0.3659 -0.0787
  186SLPC   C1321356   5.134   1.364   6.018  0.6096  0.4571 -0.1216
  186SLPC  H13A21357   5.060   1.285   6.022 -0.0443  1.0005 -1.0169
  186SLPC  H13B21358   5.193   1.345   5.929 -0.8078 -1.2316 -0.7593
  186SLPC  H13C21359   5.182   1.352   6.114  0.1120 -0.9872 -0.0302
  186SLPC   C1421360   5.018   1.539   5.890 -0.5195  0.3231 -0.6458
  186SLPC  H14A21361   4.933   1.481   5.858  0.1496 -1.1628  0.1739
  186SLPC  H14B21362   4.995   1.645   5.886 -0.1689  0.4219 -0.0921
  186SLPC  H14C21363   5.086   1.515   5.809 -1.5824 -0.7919 -1.2389
  186SLPC   C1521364   5.198   1.606   6.028  0.0168  1.1752 -0.6933
  186SLPC  H15A21365   5.265   1.587   5.945  0.9950 -1.2468  0.5387
  186SLPC  H15B21366   5.166   1.709   6.027 -1.0550  0.8569 -0.3950
  186SLPC  H15C21367   5.257   1.590   6.117  1.3407  0.9511 -1.5762
  186SLPC   C1221368   4.986   1.526   6.135  0.2623  0.5191 -0.1901
  186SLPC  H12A21369   4.950   1.627   6.126 -0.6306  0.1598 -0.7063
  186SLPC  H12B21370   5.039   1.525   6.230  1.6208  1.5825 -0.8894
  186SLPC   C1121371   4.864   1.426   6.128 -0.2781 -0.1817 -0.2600
  186SLPC  H11A21372   4.901   1.321   6.131 -1.3749 -0.7401 -2.9063
  186SLPC  H11B21373   4.815   1.449   6.031 -0.4847 -1.4129 -0.4682
  186SLPC     P21374   4.617   1.425   6.213 -0.0573  0.0760  0.1114
  186SLPC   O1321375   4.549   1.558   6.215 -0.3699  0.0693  0.1987
  186SLPC   O1421376   4.600   1.338   6.092  0.8263 -0.0864 -0.3245
  186SLPC   O1221377   4.774   1.446   6.237  0.0000  0.0753 -0.1420
  186SLPC   O1121378   4.567   1.345   6.342  0.3435 -0.5693  0.7600
  186SLPC    C121379   4.640   1.228   6.374 -0.1805  0.6539  0.0489
  186SLPC    HA21380   4.638   1.152   6.293  1.4031 -2.5928  2.8029
  186SLPC    HB21381   4.749   1.251   6.378 -0.3345  1.4504 -0.1563
  186SLPC    C221382   4.577   1.145   6.499  0.3853  0.1853 -0.2155
  186SLPC    HS21383   4.622   1.047   6.525  0.6802  0.8160  1.8275
  186SLPC   O2121384   4.436   1.130   6.466 -0.2490  0.2983 -0.2652
  186SLPC   C2121385   4.406   1.032   6.378 -0.4345 -0.7432 -0.6310
  186SLPC   O2221386   4.491   0.961   6.330 -0.5062 -0.0493  0.4050
  186SLPC   C2221387   4.257   1.026   6.348  0.0249 -0.7671 -0.0471
  186SLPC   H2R21388   4.210   1.103   6.413  2.4836  0.0056  0.9129
  186SLPC   H2S21389   4.236   1.055   6.243 -2.3128 -0.8118  0.3433
  186SLPC    C321390   4.591   1.241   6.621  0.1189 -0.4196 -0.1985
  186SLPC    HX21391   4.563   1.342   6.584 -0.9421 -0.5878  0.1285
  186SLPC    HY21392   4.696   1.262   6.650 -0.0845  0.8911 -0.3542
  186SLPC   O3121393   4.505   1.202   6.730  0.9639 -0.3952 -0.0063
  186SLPC   C3121394   4.560   1.120   6.812 -1.1018  0.4333  0.2111
  186SLPC   O3221395   4.679   1.071   6.799  0.1000 -0.4714  1.3161
  186SLPC   C3221396   4.454   1.071   6.914 -0.6149 -0.5010  0.6546
  186SLPC   H2X21397   4.490   0.974   6.955  0.8752 -0.0319  0.5270
  186SLPC   H2Y21398   4.359   1.061   6.859 -0.4293  1.5321 -0.1310
  186SLPC   C2321399   4.185   0.885   6.375  0.1171 -0.3413 -0.5190
  186SLPC   H3R21400   4.201   0.806   6.298  1.2323  0.1728 -0.8402
  186SLPC   H3S21401   4.078   0.916   6.372  0.2930  0.5567  1.2968
  186SLPC   C2421402   4.197   0.828   6.520  0.4459 -0.0741 -0.4264
  186SLPC   H4R21403   4.291   0.773   6.542 -0.1367 -0.1705  2.1023
  186SLPC   H4S21404   4.119   0.749   6.528  1.9582 -1.4342  2.8697
  186SLPC   C2521405   4.177   0.938   6.620 -0.2157  0.9554 -0.1636
  186SLPC   H5R21406   4.084   0.989   6.587 -0.1250  1.6473  0.6154
  186SLPC   H5S21407   4.255   1.016   6.606  0.0933  0.4943 -1.1098
  186SLPC   C2621408   4.171   0.882   6.762  0.4566  0.6274 -0.0014
  186SLPC   H6R21409   4.151   0.978   6.814  1.1481  1.5293 -1.3641
  186SLPC   H6S21410   4.263   0.829   6.794  0.8820  0.5560 -1.3034
  186SLPC   C2721411   4.046   0.792   6.788  0.4182 -0.0124  0.2411
  186SLPC   H7R21412   4.059   0.686   6.756 -1.5625 -0.3944  0.5586
  186SLPC   H7S21413   3.960   0.817   6.722  0.5452 -1.3239 -0.4494
  186SLPC   C2821414   3.997   0.779   6.935 -0.7305  0.0224  0.7107
  186SLPC   H8R21415   3.953   0.880   6.951  1.0176  1.0034 -0.2719
  186SLPC   H8S21416   4.094   0.760   6.986 -0.1569  1.2582  0.1247
  186SLPC   C2921417   3.909   0.669   6.962  0.7219 -0.5060 -0.0158
  186SLPC   H9R21418   3.860   0.637   6.869  2.3244 -0.8910 -0.7768
  186SLPC  C21021419   3.879   0.612   7.081  0.0778  0.0745 -0.1669
  186SLPC  H10R21420   3.815   0.522   7.080 -0.0693  0.1865 -0.8362
  186SLPC  C21121421   3.934   0.645   7.217  0.2277 -0.2946 -0.5274
  186SLPC  H11R21422   3.931   0.754   7.234 -0.8393 -0.5122  0.8440
  186SLPC  H11S21423   4.044   0.626   7.219  0.1746 -0.7629 -1.3776
  186SLPC  C21221424   3.870   0.570   7.332 -0.0014  0.5351  0.4070
  186SLPC  H12R21425   3.816   0.478   7.308  2.1152 -0.7083  0.1202
  186SLPC  C21321426   3.877   0.598   7.465 -0.3143 -0.0309  0.0968
  186SLPC  H13R21427   3.818   0.531   7.529  0.9758 -0.6290  0.7081
  186SLPC  C21421428   3.969   0.704   7.524  0.2465  0.5421  0.2018
  186SLPC  H14R21429   4.034   0.753   7.448 -0.5724  0.1538 -0.7634
  186SLPC  H14S21430   4.033   0.659   7.603 -0.2134  0.0335  0.2930
  186SLPC  C21521431   3.895   0.817   7.609 -0.5152  0.4435 -0.0905
  186SLPC  H15R21432   3.804   0.847   7.553 -2.0870 -0.6420  1.7452
  186SLPC  H15S21433   3.966   0.903   7.617  2.3122 -1.7282 -0.1892
  186SLPC  C21621434   3.854   0.762   7.755  0.1131 -0.4965  0.3439
  186SLPC  H16R21435   3.949   0.764   7.813  0.5283 -0.0451 -0.3391
  186SLPC  H16S21436   3.807   0.662   7.753 -0.0983 -0.4720  2.4202
  186SLPC  C21721437   3.765   0.863   7.825  0.2919  0.3128  0.0351
  186SLPC  H17R21438   3.755   0.840   7.934 -1.8525 -2.0323 -0.5557
  186SLPC  H17S21439   3.657   0.858   7.800  0.1066  2.1887  0.2967
  186SLPC  C21821440   3.800   1.013   7.801  0.3262 -0.0092 -0.5508
  186SLPC  H18R21441   3.905   1.038   7.827 -0.9673  3.3648  2.3147
  186SLPC  H18S21442   3.741   1.076   7.871  1.4102 -1.4096  1.6904
  186SLPC  H18T21443   3.784   1.050   7.697 -0.6438  1.8415  0.2050
  186SLPC   C3321444   4.444   1.155   7.042 -0.0293  0.2005  0.2251
  186SLPC   H3X21445   4.543   1.180   7.085 -0.9559  1.3865  1.7660
  186SLPC   H3Y21446   4.394   1.099   7.123  1.9836 -0.6062  0.9879
  186SLPC   C3421447   4.394   1.296   7.013 -0.0998 -0.1877 -0.8835
  186SLPC   H4X21448   4.314   1.282   6.937  0.7549 -0.2232 -1.7966
  186SLPC   H4Y21449   4.456   1.366   6.952  1.1308 -0.5197 -0.0572
  186SLPC   C3521450   4.327   1.369   7.132 -0.2381 -0.1955 -0.1462
  186SLPC   H5X21451   4.237   1.307   7.152 -0.6150 -0.1958 -1.7101
  186SLPC   H5Y21452   4.282   1.464   7.097  1.1383  0.8040  0.6873
  186SLPC   C3621453   4.404   1.360   7.263 -0.2334  0.1620 -1.3036
  186SLPC   H6X21454   4.503   1.412   7.259  0.2893 -0.5507  0.7834
  186SLPC   H6Y21455   4.428   1.253   7.281 -0.7953  0.2887  0.4091
  186SLPC   C3721456   4.317   1.430   7.370  0.0409 -0.2981  0.7889
  186SLPC   H7X21457   4.215   1.389   7.356 -0.0986  0.1821  0.3761
  186SLPC   H7Y21458   4.324   1.539   7.348 -0.3269 -0.1606  1.3142
  186SLPC   C3821459   4.366   1.416   7.513 -0.5700  0.1483  0.4594
  186SLPC   H8X21460   4.471   1.452   7.506 -0.7061  0.6346  0.9112
  186SLPC   H8Y21461   4.357   1.309   7.544 -3.0895  0.5208  1.2506
  186SLPC   C3921462   4.294   1.501   7.612  0.4287 -0.2025 -0.1992
  186SLPC   H9X21463   4.185   1.482   7.599  0.5391 -2.9323  1.8254
  186SLPC   H9Y21464   4.322   1.608   7.606 -0.0965 -0.1014 -1.0755
  186SLPC  C31021465   4.320   1.456   7.760  0.0869  0.1807 -0.4734
  186SLPC  H10X21466   4.428   1.463   7.785  0.2113 -1.8057 -0.3389
  186SLPC  H10Y21467   4.290   1.350   7.770  0.9370  0.0168  0.5653
  186SLPC  C31121468   4.248   1.540   7.862  0.3690  0.5906  0.2586
  186SLPC  H11X21469   4.145   1.570   7.833  0.7634  1.6236 -0.1528
  186SLPC  H11Y21470   4.300   1.638   7.875  0.2735  0.6368  0.2939
  186SLPC  C31221471   4.242   1.480   8.001 -0.0458  0.7034  0.1774
  186SLPC  H12X21472   4.174   1.392   7.994 -0.9776  1.5147 -1.8483
  186SLPC  H12Y21473   4.192   1.552   8.069  0.0980  0.9304  0.0430
  186SLPC  C31321474   4.382   1.455   8.062  0.6290  0.1463  0.0820
  186SLPC  H13X21475   4.455   1.538   8.049  1.1371 -0.3856 -0.5340
  186SLPC  H13Y21476   4.437   1.375   8.007  0.0451  0.3438 -0.7900
  186SLPC  C31421477   4.386   1.423   8.207 -0.0227  0.1362  0.3067
  186SLPC  H14X21478   4.359   1.507   8.275  1.1922  1.1967 -0.4585
  186SLPC  H14Y21479   4.484   1.388   8.246  0.4188  0.0444 -0.8450
  186SLPC  C31521480   4.292   1.304   8.251 -0.4990 -0.1830  0.3265
  186SLPC  H15X21481   4.314   1.224   8.178  3.5290  0.4176  0.6597
  186SLPC  H15Y21482   4.187   1.341   8.253 -0.1364  1.0613 -1.1254
  186SLPC  C31621483   4.316   1.260   8.393 -0.1085  0.2351  0.2533
  186SLPC  H16X21484   4.424   1.236   8.385 -0.5773 -1.3935 -2.6972
  186SLPC  H16Y21485   4.256   1.167   8.405 -0.3783  0.3895  0.0921
  186SLPC  C31721486   4.268   1.367   8.496  0.2724  0.1984 -0.3925
  186SLPC  H17X21487   4.315   1.467   8.494  1.9726 -0.3669  3.1190
  186SLPC  H17Y21488   4.300   1.317   8.590 -1.5633 -1.0642 -0.3829
  186SLPC  C31821489   4.111   1.374   8.497  0.4121 -0.1310  0.6914
  186SLPC  H18X21490   4.067   1.443   8.421 -0.2168  1.0326  2.0764
  186SLPC  H18Y21491   4.065   1.409   8.591 -1.3077  2.3461 -0.9477
  186SLPC  H18Z21492   4.079   1.269   8.479 -0.1099  0.2032 -0.4645
  187SLPC     N21493   1.098   2.714   6.248  0.5248  0.1541  0.6905
  187SLPC   C1321494   1.209   2.815   6.270 -0.4593 -1.1755  0.0559
  187SLPC  H13A21495   1.164   2.895   6.327 -1.0021  1.4833 -3.6960
  187SLPC  H13B21496   1.296   2.774   6.319  0.1040  1.2639  1.2866
  187SLPC  H13C21497   1.244   2.867   6.182  0.1453  0.9821  1.4821
  187SLPC   C1421498   1.156   2.605   6.168 -0.0736  0.1366  0.4288
  187SLPC  H14A21499   1.128   2.509   6.209  0.8795  0.3297  1.6004
  187SLPC  H14B21500   1.131   2.619   6.064 -1.4556  0.9464  0.8400
  187SLPC  H14C21501   1.264   2.601   6.172 -0.0366  1.2957  0.9948
  187SLPC   C1521502   0.992   2.783   6.172 -0.1699 -0.5432  0.0484
  187SLPC  H15A21503   0.971   2.881   6.212 -1.5614 -0.4074 -0.9235
  187SLPC  H15B21504   1.019   2.797   6.068 -1.3267 -0.6900 -0.2915
  187SLPC  H15C21505   0.901   2.725   6.163 -0.8505  0.6045 -0.7814
  187SLPC   C1221506   1.048   2.658   6.382  0.0614  0.5852 -0.5641
  187SLPC  H12A21507   1.137   2.628   6.435 -0.0279  2.6531  0.8870
  187SLPC  H12B21508   0.987   2.570   6.370  0.4236  0.5196 -2.1807
  187SLPC   C1121509   0.984   2.761   6.485 -0.2127  0.2611 -0.1930
  187SLPC  H11A21510   1.066   2.836   6.484  0.8457 -0.7778  2.1114
  187SLPC  H11B21511   0.971   2.730   6.591  0.5354  1.4062  0.2510
  187SLPC     P21512   0.730   2.726   6.454  0.0330  0.1707  0.4724
  187SLPC   O1321513   0.620   2.807   6.398 -0.4503  0.4182  0.3173
  187SLPC   O1421514   0.762   2.590   6.416  0.0832  0.1981 -0.1236
  187SLPC   O1221515   0.862   2.812   6.433 -0.4139  0.4015  0.1992
  187SLPC   O1121516   0.726   2.733   6.606 -0.0900 -0.3361 -0.9843
  187SLPC    C121517   0.681   2.846   6.684 -0.4985  0.3207 -0.0153
  187SLPC    HA21518   0.610   2.909   6.628  0.0240 -0.4765 -1.6537
  187SLPC    HB21519   0.618   2.821   6.772 -0.0555  3.4678  1.3227
  187SLPC    C221520   0.803   2.930   6.728  0.0140  0.2177 -0.2450
  187SLPC    HS21521   0.849   2.948   6.628 -1.8586 -0.8366 -1.3658
  187SLPC   O2121522   0.888   2.852   6.815 -0.3491 -0.5604 -0.0192
  187SLPC   C2121523   1.016   2.887   6.795  0.3417 -0.0473  0.3414
  187SLPC   O2221524   1.058   2.971   6.721 -0.3889 -0.0017 -0.5822
  187SLPC   C2221525   1.091   2.790   6.881 -0.3689 -0.4337 -0.0349
  187SLPC   H2R21526   1.052   2.689   6.860  1.0387 -0.4726 -3.2076
  187SLPC   H2S21527   1.199   2.786   6.852  0.0120  1.3951  1.0058
  187SLPC    C321528   0.760   3.063   6.785 -0.3150  0.6700 -0.0386
  187SLPC    HX21529   0.698   3.121   6.712 -1.1888  2.9383  2.3449
  187SLPC    HY21530   0.854   3.119   6.803 -0.5791  0.6616  1.4981
  187SLPC   O3121531   0.694   3.057   6.915  0.2541  0.2467 -0.0931
  187SLPC   C3121532   0.755   3.079   7.030 -0.0850 -0.3468 -0.3635
  187SLPC   O3221533   0.873   3.120   7.037  0.4509  0.3156  0.2663
  187SLPC   C3221534   0.673   3.058   7.155  0.5190  0.4235 -0.1540
  187SLPC   H2X21535   0.714   3.118   7.239  0.0670  0.9049 -0.2680
  187SLPC   H2Y21536   0.672   2.955   7.196 -1.7863 -0.2459 -1.7141
  187SLPC   C2321537   1.102   2.826   7.037 -0.2939 -0.3552  0.2532
  187SLPC   H3R21538   1.010   2.842   7.098  0.4817 -2.1598  2.0264
  187SLPC   H3S21539   1.148   2.926   7.053 -3.3409  1.1411  0.3915
  187SLPC   C2421540   1.167   2.708   7.111 -0.0363 -0.4152 -0.2711
  187SLPC   H4R21541   1.237   2.670   7.034  1.2497 -1.2266  1.2428
  187SLPC   H4S21542   1.104   2.619   7.131 -0.3543 -0.2245 -0.4126
  187SLPC   C2521543   1.230   2.751   7.236  0.2034  0.5284 -0.7192
  187SLPC   H5R21544   1.280   2.848   7.219  0.8421  1.0171  2.9748
  187SLPC   H5S21545   1.309   2.678   7.263  2.0068  2.3167 -0.9540
  187SLPC   C2621546   1.145   2.741   7.363 -0.1246  0.8223  0.6697
  187SLPC   H6R21547   1.211   2.757   7.450  0.2217 -3.4772  1.3720
  187SLPC   H6S21548   1.123   2.633   7.377  1.0726  0.7038  1.7871
  187SLPC   C2721549   1.032   2.848   7.376  1.0907  0.1567  0.0020
  187SLPC   H7R21550   0.950   2.811   7.310  0.9620 -1.9012  1.2531
  187SLPC   H7S21551   1.063   2.945   7.332  0.9509  0.6782  1.0184
  187SLPC   C2821552   0.977   2.870   7.517 -0.4276  0.3652 -0.0253
  187SLPC   H8R21553   0.955   2.776   7.572 -0.3187  1.7919  2.6454
  187SLPC   H8S21554   0.880   2.922   7.502 -0.4728  0.1426 -0.5171
  187SLPC   C2921555   1.069   2.948   7.603 -0.6722  0.7051 -0.5263
  187SLPC   H9R21556   1.082   3.053   7.573  1.3269  0.9417  0.8739
  187SLPC  C21021557   1.149   2.901   7.700 -0.0536 -0.1039  0.3378
  187SLPC  H10R21558   1.220   2.977   7.737  2.1705 -2.0860  0.3948
  187SLPC  C21121559   1.170   2.762   7.755  0.1050 -1.1255 -0.3660
  187SLPC  H11R21560   1.247   2.703   7.701  0.6670  1.0988 -2.1904
  187SLPC  H11S21561   1.076   2.706   7.769  0.6097 -1.5319  1.8257
  187SLPC  C21221562   1.228   2.785   7.894  0.1948 -0.7749  0.5594
  187SLPC  H12R21563   1.336   2.774   7.908  0.3969  0.7463  0.4224
  187SLPC  C21321564   1.162   2.826   8.002 -0.3211  0.6780  0.1295
  187SLPC  H13R21565   1.218   2.859   8.090 -0.4597 -0.4070  0.6466
  187SLPC  C21421566   1.006   2.850   8.002 -0.3388  0.7313 -0.3564
  187SLPC  H14R21567   0.968   2.803   8.096  0.3751 -1.1684 -0.9559
  187SLPC  H14S21568   0.960   2.796   7.917  3.1224 -2.1355 -0.6921
  187SLPC  C21521569   0.956   3.001   7.997 -0.1858  0.4696 -0.0115
  187SLPC  H15R21570   0.845   2.999   7.992 -0.1585  0.8601 -3.2853
  187SLPC  H15S21571   0.984   3.055   7.904 -1.2398 -0.1214 -0.7013
  187SLPC  C21621572   1.023   3.089   8.106  0.5123 -0.6431  0.1303
  187SLPC  H16R21573   1.124   3.117   8.070  0.3286  2.5370  1.7737
  187SLPC  H16S21574   1.045   3.028   8.196  3.4225  0.2088  0.0882
  187SLPC  C21721575   0.935   3.202   8.155 -0.3416 -0.7853  0.3338
  187SLPC  H17R21576   0.837   3.159   8.184 -0.1803 -1.1407  0.3556
  187SLPC  H17S21577   0.912   3.275   8.074  3.0285 -0.4351 -0.4612
  187SLPC  C21821578   0.978   3.286   8.280  0.5293 -1.1694  0.8600
  187SLPC  H18R21579   0.906   3.361   8.321  1.1321 -0.8247  1.2923
  187SLPC  H18S21580   1.077   3.333   8.261  0.9729 -0.6134  4.0619
  187SLPC  H18T21581   1.009   3.225   8.367  0.3118 -0.3813  1.5088
  187SLPC   C3321582   0.526   3.105   7.130 -0.2257  0.1272 -0.4326
  187SLPC   H3X21583   0.479   3.038   7.055 -1.9216  0.3778  0.3551
  187SLPC   H3Y21584   0.531   3.203   7.078 -2.9287  2.0725  2.6173
  187SLPC   C3421585   0.449   3.115   7.261 -0.5804  0.3916 -0.2004
  187SLPC   H4X21586   0.358   3.175   7.237 -0.8428  0.1667  0.2221
  187SLPC   H4Y21587   0.502   3.175   7.338  0.3667 -0.6196 -0.0497
  187SLPC   C3521588   0.408   2.975   7.318  0.2266  0.7253  0.1725
  187SLPC   H5X21589   0.491   2.901   7.325 -0.9752 -0.6668  0.0555
  187SLPC   H5Y21590   0.329   2.932   7.254 -0.2132  0.4633  0.8874
  187SLPC   C3621591   0.340   2.985   7.454  0.4339  0.7093  0.0271
  187SLPC   H6X21592   0.261   2.907   7.464  0.5470  0.5197 -0.5045
  187SLPC   H6Y21593   0.296   3.087   7.464  3.0440  1.9859 -0.6818
  187SLPC   C3721594   0.449   2.957   7.560 -0.6468 -0.1883 -0.4305
  187SLPC   H7X21595   0.493   2.856   7.550 -0.9836 -0.4909  0.9160
  187SLPC   H7Y21596   0.517   3.045   7.555 -1.9641  0.8576 -0.4507
  187SLPC   C3821597   0.385   2.978   7.694 -0.2499 -0.2560 -0.1888
  187SLPC   H8X21598   0.325   2.886   7.713  1.7726 -1.6927 -0.4635
  187SLPC   H8Y21599   0.318   3.066   7.685 -0.9705 -0.5239  2.0637
  187SLPC   C3921600   0.483   3.009   7.806  0.3722 -0.0044 -0.7121
  187SLPC   H9X21601   0.531   3.105   7.778 -0.8257  1.0474  0.6626
  187SLPC   H9Y21602   0.554   2.924   7.813 -1.1783 -1.2278  0.9757
  187SLPC  C31021603   0.433   3.032   7.947 -0.0426 -0.3697 -0.3275
  187SLPC  H10X21604   0.341   3.096   7.945 -0.2375 -0.6610 -1.3730
  187SLPC  H10Y21605   0.515   3.082   8.002  0.3301  1.1264 -2.1187
  187SLPC  C31121606   0.400   2.897   8.024  0.1275 -1.0686 -0.4998
  187SLPC  H11X21607   0.498   2.845   8.030  1.7058  1.4604 -2.2814
  187SLPC  H11Y21608   0.327   2.838   7.964 -0.9923  1.2659 -1.5691
  187SLPC  C31221609   0.334   2.921   8.160 -0.1803  0.1318 -0.4246
  187SLPC  H12X21610   0.243   2.984   8.147  0.3132  0.9159 -0.1825
  187SLPC  H12Y21611   0.397   2.988   8.222 -0.4965  0.3317 -0.3177
  187SLPC  C31321612   0.299   2.788   8.240  0.5655  0.6536  0.2958
  187SLPC  H13X21613   0.396   2.734   8.247  0.3738  0.2349 -0.2113
  187SLPC  H13Y21614   0.237   2.721   8.177  1.1133  0.1460  0.2933
  187SLPC  C31421615   0.226   2.832   8.370  0.5523  0.5879  0.3066
  187SLPC  H14X21616   0.133   2.891   8.357 -0.5287 -1.5184 -2.7094
  187SLPC  H14Y21617   0.298   2.885   8.435  1.8835 -0.7568 -0.0063
  187SLPC  C31521618   0.188   2.707   8.452  0.1453 -0.8059 -0.2905
  187SLPC  H15X21619   0.277   2.646   8.478 -1.3723 -2.5582  1.1065
  187SLPC  H15Y21620   0.125   2.640   8.389 -0.9237  1.4924 -1.8298
  187SLPC  C31621621   0.092   2.741   8.569  0.2316  0.7232  1.0061
  187SLPC  H16X21622   0.000   2.788   8.528  0.0605  0.2598  0.8462
  187SLPC  H16Y21623   0.142   2.803   8.646  2.4333  0.9439 -0.4971
  187SLPC  C31721624   0.045   2.614   8.641 -0.7682  0.1470  0.0204
  187SLPC  H17X21625   0.137   2.570   8.684 -0.5594  0.5483 -0.0096
  187SLPC  H17Y21626   0.003   2.544   8.565  1.8158 -0.4812 -0.9370
  187SLPC  C31821627  -0.042   2.634   8.757 -0.3622  0.3453 -0.6123
  187SLPC  H18X21628  -0.019   2.732   8.804  4.2787 -1.7165  2.1322
  187SLPC  H18Y21629  -0.029   2.551   8.830 -2.9689 -0.0097 -0.4536
  187SLPC  H18Z21630  -0.145   2.634   8.716 -0.0038  1.8409 -1.5896
  188SLPC     N21631   4.892   4.287   6.077 -0.3494  0.1313 -0.2448
  188SLPC   C1321632   5.038   4.263   6.089  0.3166  0.1697  0.9280
  188SLPC  H13A21633   5.059   4.160   6.063 -2.1588 -0.2100  0.1424
  188SLPC  H13B21634   5.094   4.323   6.018  1.4408 -1.8665 -0.0142
  188SLPC  H13C21635   5.073   4.291   6.187 -0.5463  0.5545  1.1290
  188SLPC   C1421636   4.825   4.171   6.143  0.6756  0.1120 -0.5541
  188SLPC  H14A21637   4.822   4.187   6.250  0.7565 -1.3488 -0.3229
  188SLPC  H14B21638   4.723   4.166   6.108  0.6871  0.2789 -0.6162
  188SLPC  H14C21639   4.868   4.076   6.115 -1.5197 -0.2635 -2.9632
  188SLPC   C1521640   4.852   4.285   5.931  0.5274  0.0282 -0.5672
  188SLPC  H15A21641   4.903   4.196   5.896  1.8349  0.3204  0.4938
  188SLPC  H15B21642   4.746   4.272   5.921  0.6325 -0.4479 -1.1401
  188SLPC  H15C21643   4.888   4.371   5.875  0.0689  0.0647 -0.8118
  188SLPC   C1221644   4.858   4.426   6.136  0.2997  0.0030  0.0616
  188SLPC  H12A21645   4.753   4.445   6.125  0.2472  0.2240  0.8965
  188SLPC  H12B21646   4.904   4.503   6.075 -0.9926  1.1997  0.5446
  188SLPC   C1121647   4.879   4.461   6.287 -0.4044  0.6675 -0.0279
  188SLPC  H11A21648   4.864   4.567   6.316 -0.5697  0.5731  0.2349
  188SLPC  H11B21649   4.984   4.440   6.317 -1.2660 -1.6249  1.6499
  188SLPC     P21650   4.639   4.411   6.377 -0.1600  0.0986  0.0539
  188SLPC   O1321651   4.607   4.490   6.253 -0.6410  0.3383 -0.4096
  188SLPC   O1421652   4.565   4.288   6.403 -0.3836  0.4938  0.1075
  188SLPC   O1221653   4.795   4.381   6.375  0.2407 -0.3075  0.2194
  188SLPC   O1121654   4.621   4.517   6.492  0.4036 -0.1892 -0.2101
  188SLPC    C121655   4.726   4.546   6.586  0.2048 -0.1603  0.5125
  188SLPC    HA21656   4.806   4.470   6.582 -0.1557 -0.6472  1.9738
  188SLPC    HB21657   4.769   4.645   6.559 -0.0066  0.5645  2.6059
  188SLPC    C221658   4.680   4.555   6.730  0.5587  0.2600  0.5139
  188SLPC    HS21659   4.617   4.645   6.746  1.0141  0.8765 -0.9367
  188SLPC   O2121660   4.790   4.540   6.811  0.3910  0.0216 -0.0261
  188SLPC   C2121661   4.869   4.640   6.818  0.4411 -0.1530 -0.4987
  188SLPC   O2221662   4.859   4.749   6.766 -0.1374 -0.0205 -0.1957
  188SLPC   C2221663   4.978   4.607   6.919 -0.2063  0.4077 -0.0108
  188SLPC   H2R21664   5.014   4.502   6.927  0.1842  0.5875  0.7375
  188SLPC   H2S21665   5.072   4.655   6.882 -0.1510  0.1781 -0.1739
  188SLPC    C321666   4.584   4.439   6.763 -0.1184 -0.1807  0.5522
  188SLPC    HX21667   4.562   4.443   6.871 -1.3752  3.2019  0.3003
  188SLPC    HY21668   4.632   4.345   6.729 -0.6054 -0.2477  0.0198
  188SLPC   O3121669   4.455   4.463   6.698  0.1472 -0.2991 -0.0266
  188SLPC   C3121670   4.372   4.365   6.717  0.0008  0.1452 -0.3979
  188SLPC   O3221671   4.405   4.264   6.775 -0.0333  0.3776 -0.2909
  188SLPC   C3221672   4.231   4.391   6.655  0.7737 -0.0849 -0.2276
  188SLPC   H2X21673   4.209   4.317   6.575  0.1671  0.4426 -0.5736
  188SLPC   H2Y21674   4.227   4.484   6.593  0.6657 -0.7085 -1.1809
  188SLPC   C2321675   4.946   4.655   7.063 -0.1837  0.5054  0.2271
  188SLPC   H3R21676   4.922   4.763   7.053 -0.1036  0.3775 -1.7664
  188SLPC   H3S21677   5.041   4.644   7.120 -0.7590  1.0868  1.3262
  188SLPC   C2421678   4.832   4.574   7.136 -0.8272 -0.2859 -0.0166
  188SLPC   H4R21679   4.865   4.472   7.165  0.2318  0.1640  0.4158
  188SLPC   H4S21680   4.745   4.569   7.067 -1.9873 -3.1180  1.5012
  188SLPC   C2521681   4.787   4.651   7.254 -0.8614 -0.3867  0.1838
  188SLPC   H5R21682   4.692   4.618   7.301 -1.4418  1.9879  0.8249
  188SLPC   H5S21683   4.769   4.757   7.228 -1.9804 -0.4073  0.8016
  188SLPC   C2621684   4.887   4.641   7.372  0.6785 -0.6270 -0.1195
  188SLPC   H6R21685   4.992   4.666   7.346 -0.1190  0.6237 -2.5439
  188SLPC   H6S21686   4.895   4.538   7.412 -0.2565  0.0572  1.9649
  188SLPC   C2721687   4.842   4.720   7.492  0.5421  0.1427  0.2329
  188SLPC   H7R21688   4.740   4.684   7.519 -0.4694  0.9311 -2.2513
  188SLPC   H7S21689   4.845   4.826   7.457  0.3936  0.0241 -0.1407
  188SLPC   C2821690   4.922   4.708   7.621  0.0280  0.7363 -0.2192
  188SLPC   H8R21691   4.864   4.760   7.700 -0.5949  1.9559 -1.4544
  188SLPC   H8S21692   5.018   4.761   7.602  0.3269  1.3751  2.5665
  188SLPC   C2921693   4.951   4.569   7.668  0.2007  0.1900  0.0228
  188SLPC   H9R21694   4.994   4.500   7.594 -0.3958 -1.4785  1.1680
  188SLPC  C21021695   4.948   4.529   7.795  0.0440  0.8155 -0.0513
  188SLPC  H10R21696   4.976   4.425   7.817  2.0600  1.7960  2.5798
  188SLPC  C21121697   4.892   4.612   7.913 -0.2787 -0.2795 -0.1444
  188SLPC  H11R21698   4.875   4.542   7.997 -0.6172  1.9020  1.6997
  188SLPC  H11S21699   4.790   4.656   7.902  0.7058  2.1627 -0.0834
  188SLPC  C21221700   4.996   4.704   7.966 -0.3891 -0.3817 -0.7459
  188SLPC  H12R21701   5.099   4.666   7.968 -0.2607 -0.0213  0.5191
  188SLPC  C21321702   4.972   4.835   8.000 -0.2206  0.2779  0.0250
  188SLPC  H13R21703   5.061   4.893   8.029 -0.6162  0.7456  0.3214
  188SLPC  C21421704   4.841   4.905   8.006  0.2366  0.2264 -0.1007
  188SLPC  H14R21705   4.756   4.840   8.034 -0.1694  1.1318  0.8723
  188SLPC  H14S21706   4.817   4.958   7.911  1.6568 -0.4580 -0.8660
  188SLPC  C21521707   4.836   5.010   8.116  0.3301 -0.3345  0.3945
  188SLPC  H15R21708   4.754   5.078   8.086 -1.6991 -2.4688  0.8044
  188SLPC  H15S21709   4.934   5.062   8.116  1.1073 -1.7405 -0.1309
  188SLPC  C21621710   4.796   4.965   8.257  0.3732 -0.4992  0.0950
  188SLPC  H16R21711   4.882   4.907   8.298  0.9077  0.2019 -0.0191
  188SLPC  H16S21712   4.698   4.912   8.249 -0.4369  0.9243  0.3582
  188SLPC  C21721713   4.795   5.085   8.350 -0.1388  0.1305  1.0134
  188SLPC  H17R21714   4.709   5.145   8.313 -0.2733  0.1217  1.3114
  188SLPC  H17S21715   4.892   5.138   8.352 -1.2350  2.8110 -3.1948
  188SLPC  C21821716   4.771   5.048   8.492 -0.0635 -0.6517 -0.4671
  188SLPC  H18R21717   4.665   5.017   8.504 -0.3692  0.6225  0.3050
  188SLPC  H18S21718   4.773   5.144   8.547  1.2700 -0.9454  0.0172
  188SLPC  H18T21719   4.851   4.977   8.521  1.0029 -0.3916 -2.5847
  188SLPC   C3321720   4.129   4.390   6.767  0.7382  0.2212  0.0261
  188SLPC   H3X21721   4.138   4.304   6.838 -0.0873  0.8329  0.8941
  188SLPC   H3Y21722   4.022   4.392   6.735  0.8138 -1.1630 -0.3875
  188SLPC   C3421723   4.141   4.515   6.859 -0.3492 -0.3054 -0.4711
  188SLPC   H4X21724   4.039   4.520   6.904 -0.7199 -1.0984 -1.1802
  188SLPC   H4Y21725   4.163   4.605   6.797 -0.6693  1.5788  1.9957
  188SLPC   C3521726   4.226   4.497   6.982  0.3517  0.1252 -0.1857
  188SLPC   H5X21727   4.326   4.525   6.943  0.7920  1.0591  1.5101
  188SLPC   H5Y21728   4.225   4.397   7.029  0.0926 -0.9640 -2.3769
  188SLPC   C3621729   4.196   4.606   7.089  0.4169  0.2060 -0.4206
  188SLPC   H6X21730   4.093   4.589   7.129 -0.2705  3.2748 -0.6148
  188SLPC   H6Y21731   4.185   4.709   7.048  1.8351  0.0172 -1.3589
  188SLPC   C3721732   4.311   4.614   7.189 -0.6644 -0.1970  0.0312
  188SLPC   H7X21733   4.403   4.612   7.127 -2.6573  1.8952 -3.2634
  188SLPC   H7Y21734   4.312   4.523   7.254  0.8475 -0.5814 -0.4962
  188SLPC   C3821735   4.311   4.724   7.295  0.7188  0.1873 -0.5526
  188SLPC   H8X21736   4.323   4.825   7.251  2.4994 -0.0825 -0.7918
  188SLPC   H8Y21737   4.396   4.714   7.367 -0.2454 -0.2591  0.5517
  188SLPC   C3921738   4.180   4.716   7.377  0.1286 -0.2782 -0.0828
  188SLPC   H9X21739   4.163   4.608   7.397  0.7423 -0.4951 -0.7107
  188SLPC   H9Y21740   4.098   4.751   7.311  0.8244  0.4334 -0.5783
  188SLPC  C31021741   4.190   4.789   7.519  0.2311 -0.5000 -0.4116
  188SLPC  H10X21742   4.217   4.897   7.510 -0.1528 -0.5751 -3.8948
  188SLPC  H10Y21743   4.269   4.738   7.577  1.1199  2.1610  0.9220
  188SLPC  C31121744   4.054   4.785   7.591  0.4124  0.4220  1.1583
  188SLPC  H11X21745   4.042   4.678   7.620  0.2256  0.7981  2.5294
  188SLPC  H11Y21746   3.973   4.830   7.530 -0.3777  0.1449  1.9658
  188SLPC  C31221747   4.065   4.860   7.725  0.3659 -0.0621  0.1504
  188SLPC  H12X21748   3.962   4.858   7.766 -0.0033  0.8103 -0.6911
  188SLPC  H12Y21749   4.091   4.966   7.704 -3.4282  0.7327 -1.4261
  188SLPC  C31321750   4.164   4.815   7.827 -0.8673  0.8532 -0.3895
  188SLPC  H13X21751   4.265   4.849   7.794 -0.5010  0.0151 -0.1639
  188SLPC  H13Y21752   4.165   4.704   7.836  1.1117  0.8708  0.1421
  188SLPC  C31421753   4.139   4.876   7.969 -0.3532  0.4359 -0.6084
  188SLPC  H14X21754   4.102   4.981   7.965  0.2801  0.6641 -0.5251
  188SLPC  H14Y21755   4.237   4.876   8.021 -1.2425  2.5684  1.2691
  188SLPC  C31521756   4.033   4.791   8.046  0.0145 -0.3020  1.0961
  188SLPC  H15X21757   4.079   4.691   8.061 -0.5431 -0.6870  0.3163
  188SLPC  H15Y21758   3.947   4.773   7.978  0.1560  0.5976  0.6678
  188SLPC  C31621759   3.992   4.847   8.179  0.8986  0.3232 -0.5368
  188SLPC  H16X21760   3.919   4.931   8.166 -2.4503 -2.5588 -2.0098
  188SLPC  H16Y21761   4.091   4.878   8.218  1.1825 -0.7428 -0.3917
  188SLPC  C31721762   3.918   4.737   8.269 -0.0852  0.4193 -0.3696
  188SLPC  H17X21763   3.909   4.786   8.368 -0.8724 -0.3995 -0.0219
  188SLPC  H17Y21764   3.987   4.650   8.275 -1.5985 -0.9609 -1.8407
  188SLPC  C31821765   3.774   4.712   8.228  0.9094  0.4221  0.0815
  188SLPC  H18X21766   3.726   4.638   8.295  2.3002  0.6259  1.3612
  188SLPC  H18Y21767   3.776   4.669   8.125 -3.0119 -1.5474  0.6666
  188SLPC  H18Z21768   3.722   4.808   8.207  2.1932  0.7268 -1.9992
  189SLPC     N21769   1.713   4.927   5.868  0.1713 -0.2634  0.3308
  189SLPC   C1321770   1.794   4.859   5.978  0.7443 -0.2652 -0.0566
  189SLPC  H13A21771   1.812   4.923   6.062  2.8620 -1.5935  0.5595
  189SLPC  H13B21772   1.748   4.766   6.009 -1.0793  0.8117  0.6449
  189SLPC  H13C21773   1.892   4.830   5.944 -0.1755 -3.9303 -0.0619
  189SLPC   C1421774   1.571   4.952   5.922  0.2312 -0.0715  0.3010
  189SLPC  H14A21775   1.518   4.862   5.950 -0.1478  0.8688  2.9247
  189SLPC  H14B21776   1.580   5.006   6.015  1.3731 -2.8449  1.9147
  189SLPC  H14C21777   1.505   5.010   5.859 -0.7119  0.0879  1.4069
  189SLPC   C1521778   1.691   4.841   5.747 -0.2086  0.1890 -0.6716
  189SLPC  H15A21779   1.634   4.753   5.772 -0.5878 -0.0357 -2.2337
  189SLPC  H15B21780   1.628   4.888   5.673 -0.3452  0.8615 -0.1387
  189SLPC  H15C21781   1.788   4.820   5.706 -0.5736  0.4015 -1.6656
  189SLPC   C1221782   1.777   5.063   5.823 -0.1198  0.3761  0.4959
  189SLPC  H12A21783   1.701   5.122   5.772 -1.0400 -0.2649  1.0912
  189SLPC  H12B21784   1.857   5.044   5.753 -0.6731  2.0255 -0.6486
  189SLPC   C1121785   1.825   5.157   5.938  0.2633 -0.0149 -0.0377
  189SLPC  H11A21786   1.875   5.248   5.898  1.9212 -0.8997 -0.0827
  189SLPC  H11B21787   1.899   5.098   5.998  1.2953  0.1991 -1.0596
  189SLPC     P21788   1.614   5.308   5.996  0.3456  0.1265  0.0141
  189SLPC   O1321789   1.599   5.307   5.850  0.4850  0.6837 -0.7115
  189SLPC   O1421790   1.490   5.277   6.071 -0.2282 -0.6087 -0.3034
  189SLPC   O1221791   1.714   5.192   6.030 -0.3198 -0.3123 -0.0622
  189SLPC   O1121792   1.681   5.441   6.048  0.6244 -0.5519  0.2514
  189SLPC    C121793   1.608   5.531   6.134 -0.3770  0.6067 -0.1118
  189SLPC    HA21794   1.502   5.531   6.102 -0.5331 -0.2871  0.3908
  189SLPC    HB21795   1.615   5.501   6.241  0.2778  3.8476  0.8734
  189SLPC    C221796   1.667   5.675   6.127 -0.2426  1.0639  0.0735
  189SLPC    HS21797   1.693   5.693   6.020 -0.3732  3.7567  0.4302
  189SLPC   O2121798   1.786   5.677   6.208  0.4841  0.5122 -0.7404
  189SLPC   C2121799   1.874   5.775   6.179  0.0957  0.0157 -0.4717
  189SLPC   O2221800   1.871   5.846   6.077  0.1279  0.0193  0.2857
  189SLPC   C2221801   1.975   5.772   6.288  0.1810  0.0998 -0.0400
  189SLPC   H2R21802   2.008   5.666   6.297  0.7122  0.4015  2.0233
  189SLPC   H2S21803   2.061   5.841   6.283  0.4646 -0.3223 -1.2881
  189SLPC    C321804   1.573   5.797   6.160 -0.4536 -0.0958  0.1701
  189SLPC    HX21805   1.474   5.784   6.110 -0.5015  1.0630 -0.0676
  189SLPC    HY21806   1.630   5.885   6.124  0.7102 -1.3247 -1.1054
  189SLPC   O3121807   1.552   5.801   6.303  0.6799  0.3037 -0.3064
  189SLPC   C3121808   1.459   5.889   6.345  0.1365 -0.5763 -0.3632
  189SLPC   O3221809   1.396   5.967   6.276 -0.2936 -0.0278 -0.6553
  189SLPC   C3221810   1.460   5.886   6.494 -0.1053  0.2943  0.4457
  189SLPC   H2X21811   1.508   5.979   6.531 -3.0991  2.0077  0.3821
  189SLPC   H2Y21812   1.506   5.793   6.534 -0.0382 -0.4015 -1.1412
  189SLPC   C2321813   1.910   5.810   6.424 -0.4231 -0.5680  0.4912
  189SLPC   H3R21814   1.809   5.764   6.429 -1.2707  1.2443  0.8682
  189SLPC   H3S21815   1.889   5.918   6.437 -1.3027 -0.5489 -0.9814
  189SLPC   C2421816   2.001   5.769   6.542 -0.5239  0.1843 -0.4981
  189SLPC   H4R21817   2.109   5.792   6.534 -0.4564  1.6259  2.8463
  189SLPC   H4S21818   1.994   5.661   6.565  1.4619  0.4420  1.6040
  189SLPC   C2521819   1.954   5.836   6.672 -0.1743 -0.1098 -0.4941
  189SLPC   H5R21820   1.844   5.842   6.689 -0.1573  2.5990 -0.9073
  189SLPC   H5S21821   1.980   5.941   6.649  2.0850 -0.7891 -1.3376
  189SLPC   C2621822   2.034   5.792   6.800 -0.1775 -1.1141  0.2331
  189SLPC   H6R21823   2.133   5.752   6.770 -0.0078 -0.1083 -0.6194
  189SLPC   H6S21824   1.980   5.707   6.845 -2.3822  0.2860  0.3975
  189SLPC   C2721825   2.049   5.903   6.906  0.2846  0.3766 -0.0376
  189SLPC   H7R21826   2.101   5.849   6.988  2.0222 -1.3152 -2.1216
  189SLPC   H7S21827   1.944   5.933   6.925 -0.2751 -2.6205  2.4864
  189SLPC   C2821828   2.137   6.020   6.866 -0.9883 -0.4950  0.8384
  189SLPC   H8R21829   2.089   6.079   6.784 -0.2816 -0.2984  0.5530
  189SLPC   H8S21830   2.217   5.985   6.797 -1.9190  0.7871 -1.0013
  189SLPC   C2921831   2.203   6.114   6.965  0.6839  0.0014 -0.2088
  189SLPC   H9R21832   2.301   6.153   6.935  1.5168  0.2618  2.5343
  189SLPC  C21021833   2.168   6.154   7.092 -0.1690 -0.9643 -0.0185
  189SLPC  H10R21834   2.244   6.207   7.151 -0.6547  1.3302 -1.3446
  189SLPC  C21121835   2.048   6.108   7.170  0.0683  0.3595 -0.0483
  189SLPC  H11R21836   1.961   6.085   7.105 -1.8566 -1.2548  2.8681
  189SLPC  H11S21837   2.020   6.191   7.239  0.8282  0.3488  0.2729
  189SLPC  C21221838   2.080   5.982   7.246 -0.2066 -0.9633  0.2773
  189SLPC  H12R21839   2.045   5.896   7.188  0.1522  0.5396 -2.2964
  189SLPC  C21321840   2.115   5.976   7.374  0.1693  0.0786 -1.0437
  189SLPC  H13R21841   2.133   5.875   7.412 -0.6349 -0.7857 -2.8381
  189SLPC  C21421842   2.139   6.094   7.461  0.1625 -0.9378 -0.2320
  189SLPC  H14R21843   2.151   6.183   7.395  2.1080 -1.9295 -1.2997
  189SLPC  H14S21844   2.222   6.077   7.534  1.2312  1.7397 -0.6985
  189SLPC  C21521845   2.024   6.135   7.559 -0.7158  0.1304  0.1540
  189SLPC  H15R21846   1.933   6.130   7.495 -0.6529 -2.0181  0.1829
  189SLPC  H15S21847   2.034   6.234   7.610 -1.9068 -0.1601  0.9965
  189SLPC  C21621848   2.004   6.025   7.671  0.6344  0.1163  0.1161
  189SLPC  H16R21849   2.100   6.008   7.725  1.3753 -1.4061 -1.5848
  189SLPC  H16S21850   1.983   5.933   7.612 -1.3713  0.2553  0.5386
  189SLPC  C21721851   1.892   6.061   7.774 -0.1502 -0.4938 -1.3293
  189SLPC  H17R21852   1.796   6.079   7.720 -0.4189 -0.7014 -0.9325
  189SLPC  H17S21853   1.913   6.157   7.827 -0.6976 -0.7496 -0.6155
  189SLPC  C21821854   1.881   5.958   7.877 -0.6360 -0.2238 -0.4143
  189SLPC  H18R21855   1.821   5.873   7.838  1.2857 -1.8653  0.0819
  189SLPC  H18S21856   1.830   5.999   7.967  0.2590  0.0851 -0.0352
  189SLPC  H18T21857   1.980   5.931   7.919  0.3742  0.8805 -1.9478
  189SLPC   C3321858   1.314   5.890   6.537 -0.0464  0.0020 -0.2218
  189SLPC   H3X21859   1.247   5.848   6.459  1.1364  0.9579 -1.8393
  189SLPC   H3Y21860   1.283   5.997   6.544  0.8118  0.2859 -0.6028
  189SLPC   C3421861   1.302   5.819   6.671 -0.1662 -0.0849 -0.2041
  189SLPC   H4X21862   1.353   5.880   6.748  0.0787 -2.4844  1.6289
  189SLPC   H4Y21863   1.365   5.727   6.676 -1.0341 -0.7013 -0.3695
  189SLPC   C3521864   1.153   5.782   6.701 -0.5778  0.9383 -0.6385
  189SLPC   H5X21865   1.112   5.737   6.608  0.3987  2.5102 -1.8812
  189SLPC   H5Y21866   1.092   5.873   6.720 -1.8864 -0.2836  1.4055
  189SLPC   C3621867   1.140   5.686   6.819  0.3824  0.6683  0.0031
  189SLPC   H6X21868   1.155   5.740   6.914 -0.7081  0.0241  0.5666
  189SLPC   H6Y21869   1.209   5.599   6.812 -2.1846 -1.4261 -0.9687
  189SLPC   C3721870   0.996   5.636   6.853  0.5403  0.0536  0.1334
  189SLPC   H7X21871   0.948   5.569   6.778 -0.7717 -0.3431  1.2783
  189SLPC   H7Y21872   0.936   5.730   6.852  1.5675  0.7257  0.4845
  189SLPC   C3821873   0.984   5.563   6.988  0.0213 -0.2987 -0.0806
  189SLPC   H8X21874   1.062   5.608   7.054 -0.6477 -0.3213  0.7374
  189SLPC   H8Y21875   1.013   5.457   6.975 -1.1194 -0.4719 -1.2954
  189SLPC   C3921876   0.851   5.569   7.061  0.4646 -0.3618 -0.0507
  189SLPC   H9X21877   0.773   5.520   6.997  0.1384  0.4154 -0.2628
  189SLPC   H9Y21878   0.813   5.672   7.080  1.0408 -0.2283  0.3795
  189SLPC  C31021879   0.856   5.487   7.191  0.0127  0.4599 -0.4861
  189SLPC  H10X21880   0.958   5.496   7.236 -0.4358 -0.7109  0.8570
  189SLPC  H10Y21881   0.859   5.379   7.164 -0.1362  0.3452 -0.0644
  189SLPC  C31121882   0.746   5.520   7.281  1.2716 -0.3006 -0.8469
  189SLPC  H11X21883   0.651   5.498   7.227  1.8003 -0.7063 -1.6235
  189SLPC  H11Y21884   0.741   5.628   7.308 -0.1212 -0.7244  0.7335
  189SLPC  C31221885   0.737   5.434   7.409 -0.9830 -0.8741  0.6037
  189SLPC  H12X21886   0.832   5.450   7.464  0.4834 -1.0106 -1.7624
  189SLPC  H12Y21887   0.725   5.329   7.376 -4.6103 -0.6289  0.7287
  189SLPC  C31321888   0.623   5.470   7.511  0.4855  0.7785 -0.2488
  189SLPC  H13X21889   0.527   5.463   7.455 -0.3566  1.1976  1.0913
  189SLPC  H13Y21890   0.629   5.570   7.559 -0.5900 -0.5848  2.9947
  189SLPC  C31421891   0.615   5.368   7.626 -0.7955  0.5524 -0.4556
  189SLPC  H14X21892   0.648   5.268   7.590  0.2756 -0.0212  1.9200
  189SLPC  H14Y21893   0.514   5.346   7.668 -0.4387  0.9069  0.6420
  189SLPC  C31521894   0.702   5.415   7.742  0.1281  0.2778  0.1809
  189SLPC  H15X21895   0.684   5.524   7.753  1.4111  0.3859  1.6223
  189SLPC  H15Y21896   0.813   5.403   7.743  0.4423  2.4021 -1.5646
  189SLPC  C31621897   0.646   5.363   7.875 -0.5159  0.2648 -0.6434
  189SLPC  H16X21898   0.660   5.253   7.887 -0.1234  0.5727  2.4853
  189SLPC  H16Y21899   0.538   5.385   7.886 -1.1508 -2.2369 -1.2097
  189SLPC  C31721900   0.724   5.420   7.997 -0.4280 -0.3100  0.5812
  189SLPC  H17X21901   0.730   5.529   7.976 -0.2648 -0.5727 -0.8730
  189SLPC  H17Y21902   0.824   5.372   8.000 -0.7763 -1.3854 -2.1534
  189SLPC  C31821903   0.655   5.405   8.129  0.6086 -0.3611  0.2491
  189SLPC  H18X21904   0.709   5.461   8.208  2.2966  0.8984 -1.6854
  189SLPC  H18Y21905   0.631   5.299   8.149 -1.6762 -0.3521 -1.9438
  189SLPC  H18Z21906   0.559   5.462   8.122 -1.0209 -2.8873  0.9447
  190SLPC     N21907   4.605   5.501   5.912 -0.1045  0.3256  0.1361
  190SLPC   C1321908   4.696   5.571   5.809 -0.5937  0.6778 -0.9291
  190SLPC  H13A21909   4.656   5.565   5.709  0.7941 -0.6193 -1.4510
  190SLPC  H13B21910   4.709   5.675   5.834 -1.2029  0.3090  1.0401
  190SLPC  H13C21911   4.794   5.525   5.812 -0.0802  1.7563 -0.6046
  190SLPC   C1421912   4.679   5.502   6.045 -0.1718 -0.0704 -0.6562
  190SLPC  H14A21913   4.779   5.465   6.036  0.5522  2.0578 -2.3594
  190SLPC  H14B21914   4.687   5.601   6.090  0.7121 -0.6804  0.5874
  190SLPC  H14C21915   4.634   5.447   6.126  0.2443  1.1982  0.4865
  190SLPC   C1521916   4.589   5.362   5.882  0.0296 -0.5733  0.1463
  190SLPC  H15A21917   4.674   5.325   5.826  2.5273  1.3195  2.3953
  190SLPC  H15B21918   4.580   5.298   5.969 -0.9615 -0.2188  0.3154
  190SLPC  H15C21919   4.499   5.340   5.827  1.0736 -1.0526 -1.4550
  190SLPC   C1221920   4.471   5.572   5.923  0.1653 -0.4383  0.2301
  190SLPC  H12A21921   4.402   5.512   5.981 -0.2102 -0.9279 -0.7100
  190SLPC  H12B21922   4.427   5.560   5.825  0.3277  0.8961 -0.0285
  190SLPC   C1121923   4.448   5.719   5.956  0.0509  0.4728  0.2020
  190SLPC  H11A21924   4.346   5.753   5.928  0.4911  0.6752 -1.2457
  190SLPC  H11B21925   4.518   5.770   5.886 -0.1070 -1.4693 -1.4637
  190SLPC     P21926   4.552   5.863   6.151  0.2525 -0.4160  0.1395
  190SLPC   O1321927   4.681   5.817   6.199 -0.0801 -0.2821 -1.1099
  190SLPC   O1421928   4.552   5.973   6.055  0.1912 -0.1343 -0.2094
  190SLPC   O1221929   4.473   5.739   6.097 -0.1774 -0.4903  0.2255
  190SLPC   O1121930   4.462   5.897   6.272  0.3652 -0.1292 -0.0548
  190SLPC    C121931   4.416   6.028   6.308 -0.6082 -0.2493 -0.4285
  190SLPC    HA21932   4.344   6.071   6.235 -1.4173  3.0371  2.0971
  190SLPC    HB21933   4.368   6.030   6.408 -2.7314  0.8606 -1.3926
  190SLPC    C221934   4.533   6.139   6.314 -0.0288  0.5418  0.7962
  190SLPC    HS21935   4.583   6.144   6.215 -0.7035 -0.4523  0.3889
  190SLPC   O2121936   4.628   6.096   6.412 -0.1398 -0.2222 -0.1796
  190SLPC   C2121937   4.748   6.147   6.401 -0.1260 -0.3172 -0.3074
  190SLPC   O2221938   4.783   6.242   6.328 -0.1586 -0.1776 -0.2417
  190SLPC   C2221939   4.843   6.101   6.516  0.0235  0.1064  0.4209
  190SLPC   H2R21940   4.800   6.009   6.560 -2.1339  0.7443 -0.1996
  190SLPC   H2S21941   4.946   6.077   6.484  1.0543  1.2675  2.6868
  190SLPC    C321942   4.482   6.286   6.346 -0.7980 -0.6139 -0.4070
  190SLPC    HX21943   4.415   6.304   6.260 -1.0502 -2.1054 -0.5505
  190SLPC    HY21944   4.569   6.354   6.333 -0.8758 -0.7292 -1.6172
  190SLPC   O3121945   4.424   6.305   6.477 -0.0702  0.5095 -0.4435
  190SLPC   C3121946   4.290   6.304   6.488  0.3856 -0.8801  0.0732
  190SLPC   O3221947   4.211   6.305   6.396 -0.3127  0.3269  0.6535
  190SLPC   C3221948   4.246   6.315   6.637  0.2641  0.4563  0.0848
  190SLPC   H2X21949   4.306   6.397   6.682  1.2515  0.8504 -1.8336
  190SLPC   H2Y21950   4.262   6.219   6.690 -0.4493  0.9836  1.2929
  190SLPC   C2321951   4.848   6.206   6.632 -0.3877 -0.0563  0.0620
  190SLPC   H3R21952   4.894   6.299   6.592  0.0287 -0.4112 -0.3030
  190SLPC   H3S21953   4.913   6.170   6.715  0.5324 -0.8641 -0.9684
  190SLPC   C2421954   4.701   6.232   6.686  0.1981  1.4034 -0.1275
  190SLPC   H4R21955   4.649   6.133   6.692  0.3154  1.4194  2.2212
  190SLPC   H4S21956   4.653   6.302   6.615  1.0850  1.3750 -0.7837
  190SLPC   C2521957   4.710   6.298   6.825 -0.5892 -0.5590 -0.3556
  190SLPC   H5R21958   4.608   6.322   6.863  0.7569  1.1009  2.5653
  190SLPC   H5S21959   4.767   6.392   6.804  1.1742 -1.1199  1.5580
  190SLPC   C2621960   4.781   6.219   6.933  0.0337  0.6277 -0.3100
  190SLPC   H6R21961   4.884   6.191   6.904  0.6536  1.0477  1.3529
  190SLPC   H6S21962   4.729   6.123   6.954  0.2878  0.3993 -0.7198
  190SLPC   C2721963   4.801   6.293   7.067  0.8132  0.3451  0.6118
  190SLPC   H7R21964   4.711   6.357   7.069 -1.0530 -2.0802 -1.0174
  190SLPC   H7S21965   4.898   6.347   7.053  1.7585 -1.8445 -2.2021
  190SLPC   C2821966   4.787   6.211   7.195  0.7404 -0.5031  0.3174
  190SLPC   H8R21967   4.844   6.124   7.155 -0.7422 -1.1406 -0.4929
  190SLPC   H8S21968   4.680   6.183   7.204  0.6209 -0.3807 -0.6100
  190SLPC   C2921969   4.842   6.273   7.319 -0.1248  1.0593  0.2956
  190SLPC   H9R21970   4.949   6.298   7.311  0.2503  0.0607  1.7451
  190SLPC  C21021971   4.782   6.294   7.440 -0.5423  0.7619  0.4161
  190SLPC  H10R21972   4.847   6.328   7.522 -1.4072 -1.1187  1.9539
  190SLPC  C21121973   4.638   6.270   7.479  0.3881  0.1715  0.2554
  190SLPC  H11R21974   4.577   6.342   7.420  0.2630  1.4633  1.8625
  190SLPC  H11S21975   4.621   6.318   7.578 -0.0972  0.7564 -0.1014
  190SLPC  C21221976   4.577   6.125   7.478 -0.9645  0.3463 -0.1429
  190SLPC  H12R21977   4.651   6.046   7.456 -0.3943  0.8837 -0.1571
  190SLPC  C21321978   4.468   6.083   7.540  0.1469 -0.4629  0.3710
  190SLPC  H13R21979   4.429   5.982   7.523  0.0435 -0.7379  2.1032
  190SLPC  C21421980   4.361   6.178   7.605  0.0294  0.2564 -0.2154
  190SLPC  H14R21981   4.258   6.169   7.565 -0.2988 -0.9195  0.8500
  190SLPC  H14S21982   4.389   6.285   7.592  0.3539 -0.0055 -1.9160
  190SLPC  C21521983   4.374   6.144   7.758 -0.6826  0.3143  0.5481
  190SLPC  H15R21984   4.475   6.171   7.796  0.6102 -2.3749 -0.6933
  190SLPC  H15S21985   4.364   6.038   7.790 -0.5615  0.5236  1.2939
  190SLPC  C21621986   4.280   6.246   7.836 -0.2181  0.1902  0.8402
  190SLPC  H16R21987   4.184   6.233   7.781 -0.1513  1.9634  0.2638
  190SLPC  H16S21988   4.318   6.350   7.824  0.9761 -0.3588 -0.3848
  190SLPC  C21721989   4.266   6.216   7.986 -0.0976 -0.2316 -0.2186
  190SLPC  H17R21990   4.352   6.270   8.032 -1.0194  2.1481 -1.1302
  190SLPC  H17S21991   4.295   6.113   8.016  1.0939 -0.2027 -1.1987
  190SLPC  C21821992   4.133   6.263   8.052 -0.1495  0.0335 -0.1775
  190SLPC  H18R21993   4.125   6.371   8.029  1.4064  0.0594 -0.7412
  190SLPC  H18S21994   4.135   6.268   8.163 -0.9521  1.2652 -0.2077
  190SLPC  H18T21995   4.049   6.199   8.018 -0.8832  0.6127  0.5177
  190SLPC   C3321996   4.107   6.367   6.665  0.5125 -0.6410 -0.3014
  190SLPC   H3X21997   4.019   6.313   6.622  0.2275  0.1784 -0.7527
  190SLPC   H3Y21998   4.106   6.472   6.631  0.9288 -0.4743  0.1985
  190SLPC   C3421999   4.092   6.368   6.820 -0.2573 -0.3743 -0.1319
  190SLPC   H4X22000   4.166   6.445   6.850  0.0089 -0.2593 -1.0341
  190SLPC   H4Y22001   4.127   6.266   6.847  2.0575  0.3851  0.0007
  190SLPC   C3522002   3.946   6.388   6.863 -0.0711 -0.0873  0.2368
  190SLPC   H5X22003   3.931   6.357   6.969  2.4761  0.4876  0.8329
  190SLPC   H5Y22004   3.888   6.317   6.800 -1.7087  1.8640 -0.5638
  190SLPC   C3622005   3.893   6.533   6.850  0.0513 -0.2350 -0.0723
  190SLPC   H6X22006   3.903   6.555   6.742 -0.6756  1.8768  0.2493
  190SLPC   H6Y22007   3.956   6.608   6.902  1.6090 -0.0647 -2.0939
  190SLPC   C3722008   3.750   6.537   6.893  0.2741  0.2789  0.4227
  190SLPC   H7X22009   3.696   6.459   6.835 -0.5080  2.5984 -2.1849
  190SLPC   H7Y22010   3.704   6.625   6.844  0.9784 -0.5754 -1.9000
  190SLPC   C3822011   3.720   6.529   7.039 -0.1828 -0.4081 -0.1509
  190SLPC   H8X22012   3.777   6.605   7.095 -3.2367 -0.8162  4.0257
  190SLPC   H8Y22013   3.743   6.426   7.074 -0.2410 -1.0167 -1.7936
  190SLPC   C3922014   3.576   6.551   7.082 -0.2573  0.3957  0.2489
  190SLPC   H9X22015   3.514   6.474   7.033 -0.6225 -0.4862  1.9956
  190SLPC   H9Y22016   3.540   6.654   7.060 -0.8148  0.2771  0.5890
  190SLPC  C31022017   3.555   6.540   7.227  0.4101  0.7702 -0.5011
  190SLPC  H10X22018   3.564   6.636   7.282 -2.4616 -0.2323  1.9387
  190SLPC  H10Y22019   3.622   6.471   7.283 -0.1613  1.5255  1.1780
  190SLPC  C31122020   3.412   6.506   7.256  0.7274 -0.0187 -0.6945
  190SLPC  H11X22021   3.377   6.433   7.180 -0.2803 -0.4729  0.1897
  190SLPC  H11Y22022   3.356   6.600   7.238 -1.3875 -0.8174  1.2171
  190SLPC  C31222023   3.376   6.448   7.395 -0.1113 -0.4718  0.5723
  190SLPC  H12X22024   3.413   6.522   7.470 -0.7701  0.6864 -0.2193
  190SLPC  H12Y22025   3.446   6.364   7.414  1.8428  0.4626 -2.0057
  190SLPC  C31322026   3.231   6.409   7.401 -0.1480 -0.1832 -0.0599
  190SLPC  H13X22027   3.199   6.329   7.331 -0.6605 -1.6667  1.8125
  190SLPC  H13Y22028   3.172   6.501   7.383 -0.5810 -0.2289  1.0726
  190SLPC  C31422029   3.180   6.345   7.529  0.0385 -0.2779 -0.5212
  190SLPC  H14X22030   3.219   6.242   7.534 -0.4201 -0.3775  2.4454
  190SLPC  H14Y22031   3.069   6.336   7.531 -0.0580  0.7851 -0.4922
  190SLPC  C31522032   3.229   6.419   7.659 -0.5332  0.2329  0.1129
  190SLPC  H15X22033   3.207   6.527   7.654  1.3330  0.7654  2.0602
  190SLPC  H15Y22034   3.339   6.413   7.664 -0.6272 -1.6292  2.9916
  190SLPC  C31622035   3.179   6.360   7.789  0.7646  0.0769  0.4971
  190SLPC  H16X22036   3.218   6.262   7.824 -1.8621 -2.1506 -2.3072
  190SLPC  H16Y22037   3.069   6.348   7.786  0.7265  0.2393  1.0282
  190SLPC  C31722038   3.217   6.452   7.910  0.5426 -0.3872 -0.0118
  190SLPC  H17X22039   3.163   6.549   7.900  1.3528  0.1912  1.0594
  190SLPC  H17Y22040   3.327   6.471   7.907  0.5517 -0.3487  0.5551
  190SLPC  C31822041   3.169   6.397   8.047  0.4080  0.1195  0.4638
  190SLPC  H18X22042   3.234   6.312   8.078  0.0392  0.6993  3.0194
  190SLPC  H18Y22043   3.069   6.351   8.030  0.3747  0.4502 -0.2851
  190SLPC  H18Z22044   3.168   6.475   8.125  0.0028 -0.1722  0.7559
  191SLPC     N22045   2.384   0.243   5.570 -0.3168 -0.0806 -0.3351
  191SLPC   C1322046   2.396   0.292   5.426 -0.3520 -0.0830 -0.2595
  191SLPC  H13A22047   2.328   0.253   5.352 -0.8142  0.9253 -0.3834
  191SLPC  H13B22048   2.367   0.396   5.437 -1.0334 -0.4013  1.1780
  191SLPC  H13C22049   2.499   0.289   5.393  0.4135 -2.0134  1.9869
  191SLPC   C1422050   2.485   0.306   5.657 -0.3718  0.3204 -0.1052
  191SLPC  H14A22051   2.491   0.414   5.661  0.5881  0.3390 -1.4265
  191SLPC  H14B22052   2.472   0.276   5.760  0.2853  0.2736 -0.0355
  191SLPC  H14C22053   2.581   0.263   5.634 -0.5334  0.4894 -1.1613
  191SLPC   C1522054   2.400   0.093   5.560  0.4419 -0.5576 -0.4224
  191SLPC  H15A22055   2.326   0.053   5.492 -0.4611 -0.5251  0.5133
  191SLPC  H15B22056   2.497   0.068   5.519  1.2274 -0.1950  1.1292
  191SLPC  H15C22057   2.386   0.047   5.657 -2.8050  0.6296 -0.1954
  191SLPC   C1222058   2.245   0.276   5.623  0.7475  0.3733 -0.0146
  191SLPC  H12A22059   2.162   0.240   5.564  0.2519  0.7931  0.4166
  191SLPC  H12B22060   2.228   0.383   5.627 -1.6306  0.0427  0.4306
  191SLPC   C1122061   2.214   0.210   5.763  0.7749 -0.7885  0.3186
  191SLPC  H11A22062   2.136   0.271   5.815  1.6530  1.8240 -1.2446
  191SLPC  H11B22063   2.306   0.221   5.824 -0.4831  1.5493  1.9787
  191SLPC     P22064   2.030   0.034   5.725  0.2128  0.1216  0.1296
  191SLPC   O1322065   1.942   0.154   5.741 -0.4499  0.3404  0.1893
  191SLPC   O1422066   2.021  -0.044   5.592 -0.2775  0.1018 -0.6114
  191SLPC   O1222067   2.181   0.073   5.748  0.5426  0.4346 -0.7145
  191SLPC   O1122068   1.989  -0.071   5.843  0.7614  0.3656  0.0359
  191SLPC    C122069   2.074  -0.159   5.907  0.0787 -0.4066  0.2994
  191SLPC    HA22070   2.018  -0.254   5.921  0.0174 -0.1975  1.5963
  191SLPC    HB22071   2.164  -0.179   5.844 -1.0390  0.2637 -1.6053
  191SLPC    C222072   2.113  -0.109   6.055  1.8730  0.2574 -0.5400
  191SLPC    HS22073   2.178  -0.184   6.106 -1.3194 -0.5501  2.7453
  191SLPC   O2122074   1.989  -0.096   6.122  0.6352  0.0783  0.1967
  191SLPC   C2122075   1.971  -0.171   6.228 -0.0631  0.1687 -0.1054
  191SLPC   O2222076   2.030  -0.269   6.266  0.1638  0.1539 -0.0838
  191SLPC   C2222077   1.842  -0.131   6.300 -0.3613 -0.4645  0.2829
  191SLPC   H2R22078   1.870  -0.045   6.365 -1.1435  0.8515 -1.0582
  191SLPC   H2S22079   1.764  -0.091   6.231  0.7933  3.2500  0.9334
  191SLPC    C322080   2.198   0.022   6.055  0.0029 -0.3476 -0.4247
  191SLPC    HX22081   2.127   0.099   6.018  0.1440 -0.2164 -0.4201
  191SLPC    HY22082   2.285   0.000   5.989 -0.2098 -2.0041 -0.2153
  191SLPC   O3122083   2.246   0.061   6.187 -0.6208 -0.3285 -0.2476
  191SLPC   C3122084   2.342  -0.017   6.236  0.1771 -1.0607  0.0620
  191SLPC   O3222085   2.399  -0.109   6.177 -0.2245 -0.0654 -0.0526
  191SLPC   C3222086   2.342   0.023   6.388  1.1347  0.2258  0.1933
  191SLPC   H2X22087   2.283  -0.044   6.454 -0.5675  3.3499  2.0552
  191SLPC   H2Y22088   2.308   0.126   6.411  0.3213  0.5429 -2.0978
  191SLPC   C2322089   1.790  -0.242   6.393  0.4072  0.0438 -0.2050
  191SLPC   H3R22090   1.878  -0.300   6.429 -0.2645 -0.2817  0.9945
  191SLPC   H3S22091   1.734  -0.311   6.326 -0.5592  0.1309  0.4756
  191SLPC   C2422092   1.681  -0.202   6.493  0.8207  0.0510  0.0343
  191SLPC   H4R22093   1.614  -0.290   6.489  1.4121 -0.4045  0.0743
  191SLPC   H4S22094   1.624  -0.113   6.457 -0.2294 -0.5257  0.2457
  191SLPC   C2522095   1.738  -0.166   6.627  0.5466  0.4159 -0.2319
  191SLPC   H5R22096   1.800  -0.074   6.616 -0.0152  1.3481  3.2277
  191SLPC   H5S22097   1.802  -0.246   6.668  1.6284  0.3433 -1.9785
  191SLPC   C2622098   1.633  -0.126   6.729  0.3141  0.2065 -0.5017
  191SLPC   H6R22099   1.655  -0.165   6.830  0.3476 -0.8558 -0.9064
  191SLPC   H6S22100   1.539  -0.175   6.696  0.4457 -0.3319 -0.0806
  191SLPC   C2722101   1.617   0.024   6.723  0.3551  0.2792 -0.3188
  191SLPC   H7R22102   1.602   0.067   6.622 -0.0131  1.6874  0.3034
  191SLPC   H7S22103   1.708   0.073   6.764  0.2893 -0.1645  0.3699
  191SLPC   C2822104   1.510   0.077   6.810  1.0999  0.2672  0.2224
  191SLPC   H8R22105   1.417   0.024   6.779  1.1980  0.9908 -1.4425
  191SLPC   H8S22106   1.496   0.186   6.795 -0.1065  0.1724  0.4886
  191SLPC   C2922107   1.528   0.049   6.958 -0.6536  0.6684 -0.3981
  191SLPC   H9R22108   1.553  -0.053   6.988 -1.0897 -0.1948 -2.7750
  191SLPC  C21022109   1.533   0.146   7.053 -0.2334  0.6080 -0.8781
  191SLPC  H10R22110   1.531   0.112   7.158 -1.0257  1.6898 -0.5206
  191SLPC  C21122111   1.506   0.296   7.039  0.1027  0.3132  0.3916
  191SLPC  H11R22112   1.494   0.347   7.137 -1.9938 -0.5794  0.6603
  191SLPC  H11S22113   1.406   0.320   6.996  0.4237  0.3240 -0.3610
  191SLPC  C21222114   1.613   0.365   6.962 -0.9745  0.0341  1.0014
  191SLPC  H12R22115   1.710   0.317   6.946 -0.2022  1.6782  0.4369
  191SLPC  C21322116   1.599   0.488   6.907 -0.1642  0.5064 -0.1708
  191SLPC  H13R22117   1.673   0.520   6.832 -1.5709  2.8577 -0.6686
  191SLPC  C21422118   1.473   0.577   6.911 -0.6815  0.5624  0.0240
  191SLPC  H14R22119   1.491   0.674   6.963 -1.1144  1.3144 -1.1957
  191SLPC  H14S22120   1.389   0.541   6.974  0.0537  0.2534  0.8586
  191SLPC  C21522121   1.423   0.619   6.768  0.0593  0.5486 -0.6502
  191SLPC  H15R22122   1.503   0.650   6.698 -1.0354  1.3547 -1.5961
  191SLPC  H15S22123   1.344   0.698   6.771 -0.7849 -0.2696  2.3991
  191SLPC  C21622124   1.354   0.497   6.687 -0.0337 -0.1108  0.1651
  191SLPC  H16R22125   1.412   0.404   6.703 -0.1135  0.0203  1.3787
  191SLPC  H16S22126   1.358   0.506   6.577 -0.8689 -1.9250 -0.0511
  191SLPC  C21722127   1.207   0.470   6.726 -0.0630  0.4928 -0.8048
  191SLPC  H17R22128   1.146   0.550   6.680 -2.7176 -0.9841 -0.0652
  191SLPC  H17S22129   1.210   0.487   6.836 -0.2670 -0.0219 -0.7153
  191SLPC  C21822130   1.166   0.325   6.692  0.0765  0.3934  0.4914
  191SLPC  H18R22131   1.181   0.296   6.586  1.2506  0.7626  0.5381
  191SLPC  H18S22132   1.059   0.315   6.720 -1.5668 -0.9823 -5.0946
  191SLPC  H18T22133   1.228   0.244   6.735 -0.4224  0.5092  1.4589
  191SLPC   C3322134   2.484   0.003   6.448  0.5977  0.3364  0.1280
  191SLPC   H3X22135   2.561   0.077   6.416  0.8542 -0.1134 -0.3194
  191SLPC   H3Y22136   2.517  -0.099   6.420 -1.2489 -0.8483  1.9970
  191SLPC   C3422137   2.484   0.000   6.603  0.2026  0.1751  0.0023
  191SLPC   H4X22138   2.421  -0.086   6.633  0.0462 -0.3277 -1.6843
  191SLPC   H4Y22139   2.439   0.093   6.643  2.4499  1.8533 -1.1394
  191SLPC   C3522140   2.630  -0.019   6.655  0.1084  0.0522 -0.1383
  191SLPC   H5X22141   2.678   0.073   6.615  1.1203 -1.7905 -3.5377
  191SLPC   H5Y22142   2.673  -0.108   6.604 -2.0722 -0.2604 -1.5762
  191SLPC   C3622143   2.618  -0.039   6.810  0.6266  0.1366  0.6299
  191SLPC   H6X22144   2.569  -0.138   6.824  0.0400  0.2630 -0.4793
  191SLPC   H6Y22145   2.552   0.044   6.843  2.1146  2.5091 -1.9397
  191SLPC   C3722146   2.752  -0.052   6.878  0.1676  1.2293 -1.0175
  191SLPC   H7X22147   2.814  -0.120   6.816  1.6478 -1.4982  3.0179
  191SLPC   H7Y22148   2.727  -0.116   6.965 -1.9198  0.8976 -1.7955
  191SLPC   C3822149   2.814   0.084   6.926  0.2537  0.1925 -0.3471
  191SLPC   H8X22150   2.746   0.160   6.971 -1.2801 -1.2578 -0.1388
  191SLPC   H8Y22151   2.868   0.138   6.845  1.2419  0.0140  0.1922
  191SLPC   C3922152   2.913   0.043   7.032 -0.3551  0.2402  0.1175
  191SLPC   H9X22153   3.000  -0.006   6.985  0.6104  1.1129  0.9564
  191SLPC   H9Y22154   2.871  -0.032   7.102 -0.3088 -0.2832 -0.4027
  191SLPC  C31022155   2.961   0.172   7.101  0.4052 -0.0881 -0.3765
  191SLPC  H10X22156   2.872   0.220   7.148  1.7673 -0.5400  2.9182
  191SLPC  H10Y22157   2.989   0.235   7.013  0.6812 -0.2202 -0.3805
  191SLPC  C31122158   3.067   0.148   7.210  0.2304 -0.1167  0.3412
  191SLPC  H11X22159   3.153   0.085   7.178  1.2205  2.0213 -1.4795
  191SLPC  H11Y22160   3.019   0.083   7.286  0.2896  0.0425  0.5172
  191SLPC  C31222161   3.130   0.269   7.279 -0.2997 -0.2116  0.2926
  191SLPC  H12X22162   3.191   0.330   7.209 -1.1615 -2.5865 -2.7147
  191SLPC  H12Y22163   3.196   0.228   7.359 -0.2132  2.5670  1.7790
  191SLPC  C31322164   3.033   0.364   7.356 -0.3325  0.1311  0.2785
  191SLPC  H13X22165   3.075   0.381   7.458  2.6009  0.1644 -0.8456
  191SLPC  H13Y22166   2.931   0.320   7.364 -0.7405  1.1627  1.0646
  191SLPC  C31422167   3.015   0.502   7.289  0.6028  0.3217  0.4110
  191SLPC  H14X22168   2.971   0.479   7.189 -2.6497 -2.7119  2.3153
  191SLPC  H14Y22169   3.114   0.553   7.295  0.7863 -0.0108  0.2453
  191SLPC  C31522170   2.912   0.583   7.361  0.6227 -0.5354  0.0776
  191SLPC  H15X22171   2.825   0.521   7.392  0.2066  0.7419  1.6303
  191SLPC  H15Y22172   2.881   0.669   7.297  3.0685  0.0326 -0.4587
  191SLPC  C31622173   2.981   0.649   7.484  0.4465 -0.6373  0.2760
  191SLPC  H16X22174   3.078   0.696   7.456 -1.2593  3.0320 -0.0645
  191SLPC  H16Y22175   2.997   0.569   7.559 -2.4117 -1.8799 -0.3234
  191SLPC  C31722176   2.892   0.758   7.552 -0.5956 -0.2409  0.3218
  191SLPC  H17X22177   2.868   0.832   7.473  0.5457 -1.2899 -1.0791
  191SLPC  H17Y22178   2.957   0.800   7.632  0.7975 -0.2160 -0.7751
  191SLPC  C31822179   2.761   0.726   7.611 -0.9816 -0.1164  0.2965
  191SLPC  H18X22180   2.758   0.653   7.695 -0.2795 -0.0582  0.3768
  191SLPC  H18Y22181   2.692   0.679   7.538  0.2779 -0.6875 -0.5532
  191SLPC  H18Z22182   2.722   0.822   7.652  0.1526  0.0112  1.1309
  192SLPC     N22183   3.389   1.685   6.315  0.4713 -0.2647  0.2499
  192SLPC   C1322184   3.280   1.588   6.346  0.6128 -0.1393 -0.0674
  192SLPC  H13A22185   3.202   1.623   6.413  0.5533 -2.2157  1.0212
  192SLPC  H13B22186   3.218   1.579   6.258  0.4400 -0.3295  0.0713
  192SLPC  H13C22187   3.320   1.491   6.371 -1.5130 -1.3009 -0.9281
  192SLPC   C1422188   3.327   1.789   6.228 -0.0618  0.3210 -0.1993
  192SLPC  H14A22189   3.263   1.846   6.293  1.4977  0.9386  0.8672
  192SLPC  H14B22190   3.400   1.855   6.182  1.2454  0.0751  1.4353
  192SLPC  H14C22191   3.262   1.740   6.157 -1.0923  2.7523 -1.0540
  192SLPC   C1522192   3.492   1.626   6.222  0.4496  0.1941  0.2400
  192SLPC  H15A22193   3.551   1.551   6.273 -0.6832 -0.6471  0.3749
  192SLPC  H15B22194   3.454   1.589   6.128  1.0981  1.8721 -0.7137
  192SLPC  H15C22195   3.577   1.684   6.192  0.7443 -0.6249 -0.5575
  192SLPC   C1222196   3.458   1.743   6.435 -0.4628  0.1259 -0.7841
  192SLPC  H12A22197   3.549   1.793   6.406 -0.0010 -2.1441 -3.8010
  192SLPC  H12B22198   3.492   1.660   6.495 -2.6702  1.6649  2.9229
  192SLPC   C1122199   3.366   1.821   6.523 -0.4131  0.0783 -0.1844
  192SLPC  H11A22200   3.417   1.834   6.621  1.6599  0.9422 -1.3236
  192SLPC  H11B22201   3.279   1.752   6.536 -0.1294 -0.0338  1.2591
  192SLPC     P22202   3.194   2.011   6.512 -0.1261  0.3660  0.3754
  192SLPC   O1322203   3.189   2.148   6.468 -0.2523 -0.3442  0.3524
  192SLPC   O1422204   3.096   1.920   6.455  0.6649 -0.0669  0.2743
  192SLPC   O1222205   3.336   1.951   6.476 -0.2114 -0.1237 -0.1990
  192SLPC   O1122206   3.193   2.006   6.672  0.9077  0.4978 -0.2406
  192SLPC    C122207   3.293   2.074   6.745  0.3455 -0.3104  0.0169
  192SLPC    HA22208   3.295   2.039   6.851 -0.9943  1.1808  0.5798
  192SLPC    HB22209   3.397   2.053   6.715  0.9663  1.0180  1.1165
  192SLPC    C222210   3.281   2.227   6.753  0.5662  1.2081 -0.1834
  192SLPC    HS22211   3.268   2.259   6.648  1.3118 -0.9791 -0.9872
  192SLPC   O2122212   3.415   2.277   6.791 -0.1909 -0.3283  0.0264
  192SLPC   C2122213   3.418   2.404   6.809  0.3338  0.8258  0.4334
  192SLPC   O2222214   3.340   2.475   6.751  0.0340  0.7051  0.1183
  192SLPC   C2222215   3.530   2.454   6.900  0.2010  0.3301  0.3814
  192SLPC   H2R22216   3.620   2.471   6.839  1.0900 -2.6870  0.6872
  192SLPC   H2S22217   3.496   2.551   6.944  1.1326  1.9568 -2.2399
  192SLPC    C322218   3.159   2.283   6.835  0.8129  0.7665 -0.1728
  192SLPC    HX22219   3.064   2.231   6.810  0.1594  1.3778  0.9853
  192SLPC    HY22220   3.126   2.389   6.830 -1.8705  0.0678  0.9119
  192SLPC   O3122221   3.184   2.253   6.974  0.2267  0.0848  0.1854
  192SLPC   C3122222   3.073   2.278   7.043  0.1103  0.5453  0.9320
  192SLPC   O3222223   2.959   2.291   6.994 -0.0510 -0.0261 -0.2981
  192SLPC   C3222224   3.103   2.259   7.193 -0.4674 -0.3525  0.3472
  192SLPC   H2X22225   3.014   2.214   7.241  1.1048 -1.4938  2.3782
  192SLPC   H2Y22226   3.128   2.359   7.233 -0.2191 -0.1136 -0.3919
  192SLPC   C2322227   3.560   2.369   7.025 -0.2099  0.0141  0.0044
  192SLPC   H3R22228   3.618   2.278   7.000 -2.6318 -2.0670  1.4482
  192SLPC   H3S22229   3.462   2.338   7.068 -0.0121  0.5930  0.9041
  192SLPC   C2422230   3.643   2.433   7.140  0.6289 -0.2027 -0.0205
  192SLPC   H4R22231   3.607   2.539   7.146 -1.0477 -0.6477 -1.3587
  192SLPC   H4S22232   3.750   2.440   7.114  0.8265  0.1802  0.8621
  192SLPC   C2522233   3.627   2.368   7.271  0.0898  0.2817  0.0188
  192SLPC   H5R22234   3.649   2.260   7.261 -0.7036  0.1132  0.0009
  192SLPC   H5S22235   3.524   2.390   7.308 -0.4301  3.0474 -2.6004
  192SLPC   C2622236   3.722   2.403   7.384 -0.7544  0.5557  0.6219
  192SLPC   H6R22237   3.661   2.364   7.469  0.5585 -1.6693  0.6237
  192SLPC   H6S22238   3.721   2.514   7.391  0.1198  0.5060  2.0377
  192SLPC   C2722239   3.860   2.350   7.383  0.2211  0.2573 -0.1107
  192SLPC   H7R22240   3.900   2.383   7.284 -1.8660  1.6773 -0.5421
  192SLPC   H7S22241   3.864   2.239   7.373 -0.0118  0.3774 -1.8766
  192SLPC   C2822242   3.949   2.393   7.497 -0.0190 -0.6464  0.3123
  192SLPC   H8R22243   3.936   2.503   7.504  1.3117 -0.4443 -0.0566
  192SLPC   H8S22244   4.056   2.386   7.467  0.3589  3.8782 -0.1319
  192SLPC   C2922245   3.916   2.315   7.618 -0.4471 -0.7838 -0.8669
  192SLPC   H9R22246   3.819   2.340   7.663  0.2015 -0.6355  0.4818
  192SLPC  C21022247   3.993   2.231   7.690  0.0391  0.7058  0.0541
  192SLPC  H10R22248   3.942   2.183   7.775 -1.0582  1.1918 -0.3165
  192SLPC  C21122249   4.139   2.185   7.669  0.5091 -0.1833 -0.3786
  192SLPC  H11R22250   4.188   2.224   7.761  0.2371 -1.5481  0.3645
  192SLPC  H11S22251   4.193   2.253   7.599  1.9561 -0.7926  0.0947
  192SLPC  C21222252   4.170   2.040   7.637 -0.2473  0.2901 -0.6138
  192SLPC  H12R22253   4.176   2.020   7.529 -0.5206 -0.1547 -0.5480
  192SLPC  C21322254   4.199   1.938   7.723  0.5711 -0.1327 -0.3780
  192SLPC  H13R22255   4.210   1.832   7.698 -1.3480 -1.1567  2.5572
  192SLPC  C21422256   4.203   1.966   7.870 -1.2958  0.9893 -0.1674
  192SLPC  H14R22257   4.164   1.873   7.914 -0.9535  1.7206  1.7727
  192SLPC  H14S22258   4.144   2.053   7.907 -0.4760  0.8761  1.4905
  192SLPC  C21522259   4.345   1.982   7.919 -0.0760 -0.0282 -0.2872
  192SLPC  H15R22260   4.397   2.056   7.854 -0.0397 -0.7274 -1.0701
  192SLPC  H15S22261   4.408   1.892   7.904 -1.5158 -1.5556  2.1514
  192SLPC  C21622262   4.356   2.031   8.070  0.1251 -0.5609 -0.0908
  192SLPC  H16R22263   4.302   2.128   8.074  2.7068  0.9556  0.1733
  192SLPC  H16S22264   4.459   2.061   8.098 -0.6845  1.3664  0.9680
  192SLPC  C21722265   4.310   1.929   8.173  0.2038  0.7510 -0.1022
  192SLPC  H17R22266   4.224   1.869   8.137 -0.2655  0.3903  1.5702
  192SLPC  H17S22267   4.388   1.851   8.185  0.6633  1.1372 -0.5289
  192SLPC  C21822268   4.261   1.992   8.305  0.0127 -0.1335  0.1054
  192SLPC  H18R22269   4.209   2.089   8.290 -1.6088 -0.9053  0.4281
  192SLPC  H18S22270   4.348   2.023   8.367  0.5278 -0.4604 -0.4413
  192SLPC  H18T22271   4.195   1.920   8.359 -1.4753  0.9011 -0.2684
  192SLPC   C3322272   3.220   2.157   7.219 -0.0777 -0.5997  0.2822
  192SLPC   H3X22273   3.304   2.176   7.148  0.5071 -1.4282  0.7343
  192SLPC   H3Y22274   3.193   2.052   7.197  4.5084 -2.8030  3.5058
  192SLPC   C3422275   3.285   2.157   7.362  0.1043 -0.3342 -0.0434
  192SLPC   H4X22276   3.360   2.239   7.358  0.7438 -0.9445 -1.0032
  192SLPC   H4Y22277   3.332   2.057   7.376 -0.5435 -0.7155 -0.5061
  192SLPC   C3522278   3.182   2.184   7.474  0.4886 -0.8459  0.7431
  192SLPC   H5X22279   3.092   2.123   7.450  1.3951 -1.2901 -1.8159
  192SLPC   H5Y22280   3.153   2.291   7.480  4.1767  0.3362 -0.1203
  192SLPC   C3622281   3.246   2.149   7.605  0.6241  0.7606  0.3432
  192SLPC   H6X22282   3.343   2.204   7.611  0.5058  1.1168 -0.8165
  192SLPC   H6Y22283   3.265   2.039   7.606 -0.6664  0.4849 -1.2952
  192SLPC   C3722284   3.164   2.181   7.730  0.3580 -0.2737 -0.0756
  192SLPC   H7X22285   3.149   2.291   7.728  0.3300 -0.2800 -1.4688
  192SLPC   H7Y22286   3.219   2.151   7.822  1.0511 -1.2198 -0.7826
  192SLPC   C3822287   3.026   2.107   7.742  0.0639  0.4769  0.2427
  192SLPC   H8X22288   3.027   1.996   7.742  1.6224  0.4509 -1.3832
  192SLPC   H8Y22289   2.970   2.142   7.653  3.7776 -0.9706 -2.9568
  192SLPC   C3922290   2.952   2.152   7.870  0.0470  0.5198  0.6566
  192SLPC   H9X22291   2.844   2.127   7.865 -0.5100  2.7669  0.4943
  192SLPC   H9Y22292   2.971   2.261   7.875 -1.7677  0.8025  3.3806
  192SLPC  C31022293   3.008   2.082   7.996  0.6354 -0.0392 -0.0420
  192SLPC  H10X22294   3.118   2.097   8.004  0.6476  1.2748 -1.9602
  192SLPC  H10Y22295   2.980   1.975   7.988 -2.2741  0.6631 -0.6214
  192SLPC  C31122296   2.940   2.128   8.132 -0.1340  0.3190 -0.0652
  192SLPC  H11X22297   2.831   2.113   8.120 -0.3866  2.1790 -0.4290
  192SLPC  H11Y22298   2.953   2.238   8.146 -0.1120  0.2363  0.5988
  192SLPC  C31222299   2.992   2.063   8.258 -0.2389 -0.6230 -0.0175
  192SLPC  H12X22300   2.939   1.967   8.270  0.5659 -1.0375  0.2768
  192SLPC  H12Y22301   2.965   2.123   8.348  1.3407 -1.8197  1.3202
  192SLPC  C31322302   3.145   2.037   8.257 -0.1229 -0.0819  0.1305
  192SLPC  H13X22303   3.195   2.127   8.215 -1.1990  1.1003  1.2582
  192SLPC  H13Y22304   3.179   1.959   8.186 -2.0141 -1.1982  0.3636
  192SLPC  C31422305   3.212   2.000   8.392  0.1458 -0.2677 -0.5318
  192SLPC  H14X22306   3.158   1.914   8.438 -1.1772  1.4920  1.4062
  192SLPC  H14Y22307   3.188   2.086   8.458  1.3181  0.1339 -0.6172
  192SLPC  C31522308   3.366   1.999   8.372  0.1397 -0.4487 -0.4852
  192SLPC  H15X22309   3.422   2.094   8.353  2.1479 -1.4829 -0.0771
  192SLPC  H15Y22310   3.383   1.930   8.287 -0.4056 -1.1467 -0.0378
  192SLPC  C31622311   3.430   1.938   8.498 -0.5960 -0.7393  0.0231
  192SLPC  H16X22312   3.386   1.837   8.513 -0.9487 -0.7215 -0.8581
  192SLPC  H16Y22313   3.414   2.006   8.584  0.3831  0.7094 -0.9017
  192SLPC  C31722314   3.583   1.922   8.481  0.1603 -0.0830  0.1793
  192SLPC  H17X22315   3.593   1.852   8.395 -1.7443 -0.1240 -0.0345
  192SLPC  H17Y22316   3.621   1.879   8.576  1.3730  1.8820  0.6432
  192SLPC  C31822317   3.661   2.052   8.457  0.4655  0.4034 -0.0307
  192SLPC  H18X22318   3.641   2.091   8.355  1.1849 -1.0105 -0.7410
  192SLPC  H18Y22319   3.769   2.026   8.459  0.3046 -0.8506 -2.8756
  192SLPC  H18Z22320   3.639   2.132   8.531 -0.5281 -0.6155  0.8126
  193SOD    SOD22321   4.924   3.862  15.294 -0.5170  0.2591  0.4330
  194SOD    SOD22322   0.768   0.402   5.197  0.3024 -0.3252  0.0953
  195SOD    SOD22323   3.450   3.788  14.392 -0.6650 -0.3691 -0.4593
  196SOD    SOD22324   2.501   3.035   1.327  0.5538 -0.3020 -0.0627
  197SOD    SOD22325   1.640   5.853   1.405  0.1832  0.0241  0.5983
  198SOD    SOD22326   1.235   6.332  14.690 -0.1364 -0.6767 -0.3687
  199SOD    SOD22327   4.582   6.771  13.144  0.2083  0.0869 -0.4112
  200SOD    SOD22328   5.163   3.302   1.075  0.0573  0.0148 -0.3250
  201SOD    SOD22329   1.511   0.142   3.879  0.5205  0.3301 -0.2074
  202SOD    SOD22330   3.685   1.751   5.575 -0.5689 -0.1233 -0.3431
  203SOD    SOD22331   4.796   1.979  14.711  0.5271 -0.3648 -0.9584
  204SOD    SOD22332   2.949   5.341   5.078  0.0591 -0.3239  0.1793
  205SOD    SOD22333   3.144   3.475  12.837  0.4551  0.0155 -0.2927
  206SOD    SOD22334   1.485   5.960  10.995  0.6877  0.0906  0.5169
  207SOD    SOD22335   5.067   2.794  14.224 -0.8498 -0.0960  0.0665
  208SOD    SOD22336   4.666   6.597   1.637  0.3469 -0.0311 -0.1365
  209SOD    SOD22337   4.012   3.578   5.716 -0.1280 -0.1870  0.1479
  210SOD    SOD22338   4.808   5.118  12.438  0.4874 -0.0271 -0.1288
  211SOD    SOD22339   5.675   3.113   6.676  0.0404  0.3294  0.2508
  212SOD    SOD22340   0.704   1.007  16.224  0.2886 -0.0644 -0.0449
  213SOD    SOD22341   2.800   1.833  11.133 -0.6686 -0.2305 -0.3076
  214SOD    SOD22342   5.644   2.417   5.357  0.0610 -0.0090 -0.1955
  215SOD    SOD22343   5.384   1.033  14.360  0.0509  0.0061 -0.5162
  216SOD    SOD22344   5.087   5.132  16.274  0.0941  0.2468 -0.1587
  217SOD    SOD22345   2.655   0.027   1.698 -0.1295 -0.2475  0.3587
  218SOD    SOD22346   3.745   4.800  16.288 -0.3256  0.1920  0.2004
  219SOD    SOD22347   5.420   3.612  10.710  0.1050 -0.0153  0.1875
  220SOD    SOD22348   3.515   0.231  10.615  0.0791  0.4837  0.1977
  221SOD    SOD22349   3.840   0.204  15.173 -0.2110 -0.0831 -0.0663
  222SOD    SOD22350   5.887   4.695  11.226 -0.5264 -0.2524 -0.2972
  223SOD    SOD22351   5.635   0.770  11.268 -0.0113  0.4259 -0.0842
  224SOD    SOD22352   0.073   6.088  10.466  0.1097  0.0386 -0.5187
  225SOD    SOD22353   6.384   6.361   5.237 -0.0129  0.0473 -0.6038
  226SOD    SOD22354   4.069   4.119   3.218  0.1737  0.0128  0.5894
  227SOD    SOD22355   2.425   0.360  14.954  0.2504 -0.3819 -0.2446
  228SOD    SOD22356   1.876   0.450   5.123  0.1603  0.5137 -0.1146
  229SOD    SOD22357   6.485   5.822  13.618  0.0447  0.1717 -0.1632
  230SOD    SOD22358   5.891   4.645  13.101 -0.0616 -0.2977  0.0131
  231SOD    SOD22359   2.128   3.121  12.474 -0.3516 -0.1725 -0.2199
  232SOD    SOD22360   3.177   2.077   4.014 -0.1322 -0.2398 -0.2013
  233SOD    SOD22361   4.193   2.580  11.317  0.0885  0.1633  0.5747
  234SOD    SOD22362   2.355   0.704  13.345  0.1853 -0.4101 -0.0431
  235SOD    SOD22363   4.698   5.921   0.500  0.0308  0.0987 -0.5396
  236SOD    SOD22364   3.739   2.074  13.332 -0.1339 -0.3085  0.0586
  237SOD    SOD22365   2.892   1.046   3.459 -0.2502 -0.0957  0.5496
  238SOD    SOD22366   5.801   3.176   2.951  0.2818  0.0344  0.2158
  239SOD    SOD22367   1.209   0.607  13.688 -0.4485  0.2330  0.0497
  240SOD    SOD22368   5.394   5.090   5.841 -0.1655 -0.2252  0.7647
  241SOD    SOD22369   1.898   6.115  12.831 -0.0572  0.5378 -0.3679
  242SOD    SOD22370   4.488   2.600   2.620  0.3530 -0.4323  0.2860
  243SOD    SOD22371   4.747   2.166  12.908 -0.0321  0.3004  0.3109
  244SOD    SOD22372   5.529   5.395   2.167  0.0746  0.3048 -0.4613
  245SOD    SOD22373   2.512   6.134  14.884  0.1266 -0.2483 -0.0656
  246SOD    SOD22374   3.793   4.185  16.760  0.0883  0.4451  0.1148
  247SOD    SOD22375   4.718   3.144   5.860  0.0547  0.1184  0.3712
  248SOD    SOD22376   4.285   5.776   6.379 -0.3019  0.1275 -0.3118
  249SOD    SOD22377   5.698   1.193  10.420  0.4203  0.3927 -0.3134
  250SOD    SOD22378   0.264   0.940  11.414  0.2353  0.1757 -0.0333
  251SOD    SOD22379   2.225   6.538   2.823  0.3126  0.0999 -0.1725
  252SOD    SOD22380   1.254   1.521  10.360  0.4048  0.5687 -0.2323
  253SOD    SOD22381   4.183   1.325   0.354 -0.2788 -0.1183  0.1920
  254SOD    SOD22382   0.653   4.588  13.420  0.3476  0.2940 -0.0886
  255SOD    SOD22383   1.092   3.996  11.684  0.0397 -0.0113 -0.0927
  256SOD    SOD22384   3.710   0.829  16.300  0.4312 -0.1476  0.2480
  257SOD    SOD22385   3.088   4.918   3.642  0.6157 -0.4768 -0.0018
  258SOD    SOD22386   0.199   0.218   3.414 -0.1057 -0.1948 -0.0624
  259SOD    SOD22387   2.522   4.814  14.947 -0.1252 -0.2862  0.5832
  260SOD    SOD22388   4.904   1.789  16.169 -0.3720 -0.7846  0.2634
  261SOD    SOD22389   6.305   2.057   0.953 -0.3877  0.5440 -0.0519
  262SOD    SOD22390   1.475   2.282   5.527  0.4911 -0.4108 -0.4815
  263SOD    SOD22391   6.192   6.687   4.608 -0.2313  0.0058  0.3298
  264SOD    SOD22392   5.210   5.692  10.722  0.5856 -0.2758  0.4691
  265SOD    SOD22393   0.244   4.831   0.625  0.3146  0.1375  0.5126
  266CLA    CLA22394   5.303   0.201  13.943  0.0549  0.3258  0.2570
  267CLA    CLA22395   6.520   6.833   1.281 -0.5193  0.1692  0.1553
  268CLA    CLA22396   2.335   0.827   3.497 -0.2435 -0.3867  0.3166
  269CLA    CLA22397   0.650   1.869  16.295  0.1946  0.3681 -0.4962
  270CLA    CLA22398   4.867   6.258   1.364  0.0713 -0.1485 -0.2421
  271CLA    CLA22399   5.603   6.549  13.833 -0.1679 -0.3030 -0.2639
  272CLA    CLA22400   5.978   6.215   0.622 -0.1930  0.1884  0.0054
  273CLA    CLA22401   5.571   5.107   4.729 -0.3808 -0.2142 -0.0398
  274CLA    CLA22402   2.959   5.840   0.172  0.1856 -0.3088  0.1604
  275CLA    CLA22403   4.524   5.040   5.807 -0.0225  0.1607 -0.5169
  276CLA    CLA22404   2.464   6.441  15.184  0.3258  0.1978 -0.2292
  277CLA    CLA22405   5.042   2.459  11.754 -0.1626  0.1842  0.1342
  278CLA    CLA22406   1.509   0.803   4.409  0.0533 -0.4019  0.4022
  279CLA    CLA22407   5.422   1.721  14.620  0.2579  0.0295  0.0896
  280CLA    CLA22408   4.226   0.639   5.404  0.0113 -0.2981 -0.1821
  281CLA    CLA22409   4.685   3.315   1.008 -0.1298  0.0022  0.0490
  282CLA    CLA22410   0.822   4.822  10.789 -0.6171 -0.2602 -0.4679
  283CLA    CLA22411   6.417   1.894   1.431  0.2499 -0.2288  0.2204
  284CLA    CLA22412   4.541   2.338   1.158 -0.0917 -0.1024 -0.2277
  285CLA    CLA22413   4.016   2.157  15.677  0.1681  0.2305  0.1481
  286CLA    CLA22414   4.669   3.470  16.913 -0.1367  0.0290  0.4092
  287CLA    CLA22415   4.909   3.345   4.461 -0.0981  0.5447 -0.0526
  288CLA    CLA22416   1.499   6.134  12.751  0.1289  0.2247  0.2290
  289CLA    CLA22417   0.496   3.888  12.533  0.3668  0.1774 -0.4041
  290CLA    CLA22418   5.108   5.104  12.074 -0.2890  0.1557 -0.8736
  291CLA    CLA22419   1.464   4.587   4.692 -0.3798  0.0006  0.3570
  292CLA    CLA22420   6.525   3.283   1.591  0.3339 -0.0286 -0.2853
  293CLA    CLA22421   6.639   4.405  11.244 -0.6034 -0.1648  0.1447
  294CLA    CLA22422   2.742   0.746  16.946 -0.4475  0.2656  0.2432
  295CLA    CLA22423   1.411   0.721  13.034 -0.2610 -0.2702  0.0532
  296CLA    CLA22424   3.910   3.212  13.403  0.2284  0.2697  0.0818
  297CLA    CLA22425   5.463   1.199  16.050  0.1966 -0.4211 -0.0433
  298CLA    CLA22426   6.174   1.266   3.766  0.2775  0.3808  0.0062
  299CLA    CLA22427   5.853   3.638  16.407  0.4121 -0.1006 -0.1297
  300CLA    CLA22428   1.930   6.159  10.733  0.1468 -0.3206 -0.0509
  301CLA    CLA22429   1.296   1.872   4.915 -0.4324  0.0534 -0.2516
  302CLA    CLA22430   1.353   0.988   0.451  0.2923  0.3084 -0.4918
  303CLA    CLA22431   0.994   6.656  12.768  0.0089 -0.5840  0.2324
  304CLA    CLA22432   0.816   6.534  11.407  0.1331 -0.1692 -0.2143
  305CLA    CLA22433   4.748   5.228   2.763 -0.2546  0.1720  0.2002
  306CLA    CLA22434   3.638   1.543   4.146 -0.4095  0.4618 -0.3155
  307CLA    CLA22435   1.863   6.608   3.031  0.2886  0.1941  0.0920
  308CLA    CLA22436   5.523   4.883  12.797 -0.0205  0.1661  0.0544
  309CLA    CLA22437   6.553   6.416   3.038 -0.1244  0.0665  0.2420
  310CLA    CLA22438   2.961   6.155  12.756 -0.3512  0.0918  0.0437
  311CLA    CLA22439   3.247   4.964  15.454  0.3242 -0.2075 -0.1779
  312CLA    CLA22440   4.687   4.344  14.231 -0.0647 -0.3646  0.0037
  313CLA    CLA22441   2.882   2.344  13.590  0.1321  0.0949  0.1544
  314CLA    CLA22442   0.846   2.937   1.887  0.4701 -0.0549 -0.2031
  315CLA    CLA22443   4.482   0.136  14.840 -0.0201  0.0823 -0.4607
  316CLA    CLA22444   2.262   0.805  13.939  0.1229  0.1876  0.2603
  317CLA    CLA22445   4.396   6.253   0.680  0.2649 -0.1099  0.0850
  318CLA    CLA22446   6.255   5.227   1.334 -0.0873  0.2483 -0.4476
  319TIP3   OH222447   2.288   5.284  12.532  0.2494 -0.6102 -0.5665
  319TIP3    H122448   2.276   5.247  12.444  1.8006 -1.1722 -0.5688
  319TIP3    H222449   2.366   5.241  12.566  1.1036  1.3665  0.1303
  320TIP3   OH222450   0.188   4.622   2.377 -0.3589 -0.5472  0.6983
  320TIP3    H122451   0.261   4.618   2.438 -1.9817 -0.9564  2.7130
  320TIP3    H222452   0.154   4.533   2.374 -0.3178 -0.5409 -0.8666
  321TIP3   OH222453   1.595   1.239   2.545 -0.0563 -0.0733 -0.5105
  321TIP3    H122454   1.599   1.163   2.487 -1.8341 -0.8748  0.3375
  321TIP3    H222455   1.676   1.234   2.596 -1.0879 -2.7412  1.0646
  322TIP3   OH222456   1.960   0.791   4.403 -0.1837 -0.8200  0.2936
  322TIP3    H122457   1.870   0.774   4.376 -0.4984 -0.1976  0.8964
  322TIP3    H222458   2.003   0.706   4.401 -1.2346 -1.4142  1.5721
  323TIP3   OH222459   5.179   4.116  15.803  0.1498 -0.0293 -0.1423
  323TIP3    H122460   5.195   4.035  15.754 -1.5926 -0.3683 -0.2124
  323TIP3    H222461   5.148   4.178  15.738  2.1341  0.9562 -0.2081
  324TIP3   OH222462   2.564   1.682   1.793  0.0535 -0.1833  0.3142
  324TIP3    H122463   2.645   1.632   1.784 -0.4019 -0.7862 -0.6194
  324TIP3    H222464   2.507   1.626   1.846 -0.9245 -1.3090 -1.8132
  325TIP3   OH222465   6.019   3.097   3.824 -0.4897 -0.1776 -0.7292
  325TIP3    H122466   5.955   3.042   3.780 -1.7348 -0.8171  1.7345
  325TIP3    H222467   5.972   3.178   3.844  0.5119  0.7255 -1.8283
  326TIP3   OH222468   2.068   3.645  16.612  0.3297  0.4083 -0.2559
  326TIP3    H122469   2.102   3.597  16.536  0.7182  1.3527 -0.6909
  326TIP3    H222470   1.973   3.639  16.603  0.3341 -1.2698  0.3430
  327TIP3   OH222471   3.620   0.741  11.160  0.4662 -0.0770 -0.2458
  327TIP3    H122472   3.609   0.650  11.189  0.5505 -0.3197 -0.9617
  327TIP3    H222473   3.539   0.760  11.112  2.0060 -1.0968 -3.5112
  328TIP3   OH222474   5.862   2.833  11.390 -0.0976 -0.2142 -0.0526
  328TIP3    H122475   5.808   2.893  11.338  0.8439  1.0191  0.3511
  328TIP3    H222476   5.944   2.825  11.340 -0.0140 -0.7498  0.1614
  329TIP3   OH222477   1.229   6.299  11.267 -0.4744  0.0359  0.0530
  329TIP3    H122478   1.166   6.286  11.338 -0.9284  0.6300 -0.2290
  329TIP3    H222479   1.271   6.383  11.287 -1.6100  0.9239 -1.0966
  330TIP3   OH222480   6.032   2.711   0.326 -0.2211 -0.1300 -0.2558
  330TIP3    H122481   6.000   2.667   0.247 -0.0026  0.7698 -0.8586
  330TIP3    H222482   6.017   2.804   0.309  0.5100  0.1282  0.4634
  331TIP3   OH222483   4.306   1.376   5.330  0.2383  0.3275  0.2961
  331TIP3    H122484   4.263   1.291   5.342 -1.3643  1.0020 -0.2926
  331TIP3    H222485   4.398   1.355   5.314 -0.1864 -1.3094 -0.2277
  332TIP3   OH222486   5.126   4.643  15.193 -0.1082 -0.1311 -0.2112
  332TIP3    H122487   5.190   4.573  15.179  0.9058  0.8788 -0.8104
  332TIP3    H222488   5.137   4.668  15.285  0.3141 -0.0067 -0.2942
  333TIP3   OH222489   1.779   5.296  14.953 -0.1776  0.1964  0.1922
  333TIP3    H122490   1.775   5.229  15.021  0.1044  0.5375  0.5504
  333TIP3    H222491   1.725   5.368  14.987 -1.3114 -0.2291 -0.6329
  334TIP3   OH222492   0.143   4.999  13.248  0.0011 -0.0885  0.0444
  334TIP3    H122493   0.112   5.081  13.286  0.1622  0.2010 -0.4433
  334TIP3    H222494   0.071   4.937  13.262 -0.6315  0.4574 -0.6837
  335TIP3   OH222495   1.544   6.141   5.458  0.0227 -0.4389 -0.0229
  335TIP3    H122496   1.473   6.126   5.520  0.5640  0.3432  0.8183
  335TIP3    H222497   1.621   6.154   5.512  0.5072  0.3090 -0.8477
  336TIP3   OH222498   1.672   1.333  12.631 -0.1385 -0.2541 -0.2181
  336TIP3    H122499   1.653   1.240  12.637 -0.5196 -0.1222  0.6894
  336TIP3    H222500   1.628   1.372  12.706  1.2415  0.4629  0.2510
  337TIP3   OH222501   5.408   6.300   5.601 -0.5185  0.1370 -0.5344
  337TIP3    H122502   5.441   6.324   5.514  0.4668  3.2198  0.5464
  337TIP3    H222503   5.463   6.227   5.629  2.1844  1.9259 -0.8181
  338TIP3   OH222504   6.135   6.079  13.590 -0.6791 -0.1033  0.2247
  338TIP3    H122505   6.205   6.102  13.651 -0.4984 -1.6747  0.6565
  338TIP3    H222506   6.084   6.160  13.580  1.3875  1.2083 -0.4031
  339TIP3   OH222507   4.528   4.178  14.030  0.0820  0.2193  0.1795
  339TIP3    H122508   4.574   4.218  14.104 -2.5496 -0.1359  2.1424
  339TIP3    H222509   4.580   4.203  13.953  1.4924  2.8373  1.8328
  340TIP3   OH222510   6.223   0.077   5.307 -0.0403  0.1886  0.3417
  340TIP3    H122511   6.278  -0.000   5.291  0.4260  0.6548 -0.3490
  340TIP3    H222512   6.149   0.043   5.357  0.0809 -0.7367 -0.0848
  341TIP3   OH222513   6.027   1.204  15.521 -0.0407  0.4166 -0.0784
  341TIP3    H122514   6.027   1.144  15.446  1.8679 -0.1617  0.3375
  341TIP3    H222515   5.942   1.247  15.517 -0.6189 -0.7858 -1.6267
  342TIP3   OH222516   6.225   2.842   4.726 -0.1570  0.2597 -0.1494
  342TIP3    H122517   6.318   2.864   4.733 -0.1271  0.1189 -0.1045
  342TIP3    H222518   6.180   2.926   4.736 -0.0348  0.3283 -0.1714
  343TIP3   OH222519   0.694   3.796  11.956 -0.1993  0.6780  0.2387
  343TIP3    H122520   0.650   3.878  11.930  0.2918  0.5573 -1.0583
  343TIP3    H222521   0.625   3.730  11.950 -0.5886  0.9709  1.2525
  344TIP3   OH222522   3.464   1.643  15.964  0.3415  0.5958  0.2609
  344TIP3    H122523   3.403   1.645  15.890 -0.6613 -0.4619  1.0323
  344TIP3    H222524   3.519   1.720  15.951  0.5710  0.1488 -1.8972
  345TIP3   OH222525   1.418   6.788   2.605  0.0747  0.2390 -0.6119
  345TIP3    H122526   1.499   6.802   2.655  1.9532 -0.4366 -3.2227
  345TIP3    H222527   1.413   6.693   2.594 -0.2214  0.3734 -1.7592
  346TIP3   OH222528   4.319   3.244  14.899 -0.3489  0.4346  0.4580
  346TIP3    H122529   4.386   3.196  14.948 -0.2850 -0.0398 -0.0833
  346TIP3    H222530   4.349   3.335  14.899  1.3353 -0.0495 -1.4343
  347TIP3   OH222531   5.042   4.349  12.287 -0.0716 -0.0106 -0.4401
  347TIP3    H122532   5.024   4.432  12.243  1.3068  0.1772 -0.7055
  347TIP3    H222533   5.106   4.372  12.355 -0.0369 -0.7730 -0.2093
  348TIP3   OH222534   2.942   5.958  11.559  0.5494 -0.0402  0.5258
  348TIP3    H122535   2.970   5.943  11.649 -0.0372  0.2036  0.7510
  348TIP3    H222536   2.852   5.926  11.556  1.1623 -1.8180 -0.4717
  349TIP3   OH222537   6.271   2.950   3.616  0.5297  0.4110  0.2038
  349TIP3    H122538   6.217   2.878   3.583 -1.1628  1.3106  0.8865
  349TIP3    H222539   6.358   2.932   3.582 -0.5078 -0.2688 -2.2922
  350TIP3   OH222540   6.322   3.320  13.507  0.3877  0.0773  0.3624
  350TIP3    H122541   6.328   3.416  13.504  2.2324 -0.0397 -1.4168
  350TIP3    H222542   6.412   3.290  13.517 -0.0467 -1.5003 -0.0735
  351TIP3   OH222543   6.373   3.048   0.267  0.4248  0.5093 -0.4167
  351TIP3    H122544   6.439   3.032   0.200 -0.3681 -1.9706 -0.7030
  351TIP3    H222545   6.306   3.099   0.222  0.0890 -0.7852 -1.4634
  352TIP3   OH222546   0.013   0.545  11.309 -0.5541  0.0257  0.1328
  352TIP3    H122547  -0.004   0.500  11.226  0.6317 -0.0820 -0.0645
  352TIP3    H222548   0.002   0.476  11.375 -0.8186 -0.0512  0.0116
  353TIP3   OH222549   3.652   4.535   3.423 -0.0043  0.4000 -0.1895
  353TIP3    H122550   3.578   4.591   3.448 -0.2622 -0.5009  1.2169
  353TIP3    H222551   3.612   4.453   3.395  0.4243  0.1552 -0.0977
  354TIP3   OH222552   6.132   3.845  13.209 -0.0734 -0.9831  0.5106
  354TIP3    H122553   6.056   3.788  13.224 -0.5590 -0.5418 -0.2024
  354TIP3    H222554   6.206   3.785  13.201 -0.8108 -1.7027 -1.9386
  355TIP3   OH222555   6.165   6.815  13.407  0.0729  0.1238  0.1662
  355TIP3    H122556   6.232   6.877  13.377  1.4058 -0.8708  0.9876
  355TIP3    H222557   6.213   6.734  13.424 -1.3740 -0.6604  0.6601
  356TIP3   OH222558   4.363   6.625   5.039  0.1103  0.6670  0.1317
  356TIP3    H122559   4.443   6.574   5.046  0.0200  0.4597 -0.3249
  356TIP3    H222560   4.294   6.560   5.021 -0.6031  0.5046  2.9791
  357TIP3   OH222561   2.490   3.199  11.238  0.0269 -0.2499 -0.0567
  357TIP3    H122562   2.459   3.148  11.163 -1.3615  0.7198 -0.1707
  357TIP3    H222563   2.578   3.228  11.212  0.2775 -1.3781 -0.5573
  358TIP3   OH222564   6.183   0.149   1.809 -0.1026  0.1971 -0.8779
  358TIP3    H122565   6.228   0.079   1.761  0.3375  1.6408 -2.6995
  358TIP3    H222566   6.239   0.168   1.884 -0.6863 -1.9677  0.1719
  359TIP3   OH222567   0.424   1.852  13.316 -0.1472  0.1565  0.3793
  359TIP3    H122568   0.432   1.940  13.353  1.5351  0.0868  0.2222
  359TIP3    H222569   0.404   1.867  13.223 -1.2556  0.3401  0.6298
  360TIP3   OH222570   0.882   6.087  15.426 -0.3552 -0.2493  0.0372
  360TIP3    H122571   0.836   6.170  15.439  0.9940  0.7672 -1.2690
  360TIP3    H222572   0.867   6.037  15.506  1.1471  2.4217  2.1327
  361TIP3   OH222573   1.895   6.005  12.147  0.2322  0.2527 -0.3117
  361TIP3    H122574   1.883   6.072  12.079 -1.8778 -0.8257 -1.1023
  361TIP3    H222575   1.978   5.962  12.124  0.6476  1.3400 -0.9140
  362TIP3   OH222576   6.763   2.795   0.526  0.1876  0.3012 -0.0820
  362TIP3    H122577   6.822   2.741   0.579 -0.4890 -0.8281 -0.4443
  362TIP3    H222578   6.703   2.834   0.590 -1.4145 -2.0372 -0.0280
  363TIP3   OH222579   5.815   6.663   3.983  0.3267 -0.1984  0.1764
  363TIP3    H122580   5.737   6.644   3.931  0.1171  0.9188  0.0654
  363TIP3    H222581   5.870   6.717   3.926  0.7461 -0.1669  0.6043
  364TIP3   OH222582   4.316   1.664   1.394  0.3087 -0.1729  0.4088
  364TIP3    H122583   4.308   1.750   1.353  2.4019  0.1866  0.6211
  364TIP3    H222584   4.328   1.603   1.321  1.0285  0.0456  0.3361
  365TIP3   OH222585   2.941   4.225   5.635  0.3587 -0.3222  0.1486
  365TIP3    H122586   2.861   4.240   5.586  1.0273  0.8237 -0.6495
  365TIP3    H222587   2.954   4.130   5.632  0.8861 -0.2517 -2.7998
  366TIP3   OH222588   6.203   0.435   5.435  0.1927  0.0546 -0.2424
  366TIP3    H122589   6.207   0.467   5.525  3.0719  3.3825 -1.3086
  366TIP3    H222590   6.110   0.425   5.417 -0.6408  2.3375  2.1644
  367TIP3   OH222591   4.336   6.593   1.391  0.0227 -0.5671  0.5519
  367TIP3    H122592   4.241   6.599   1.381  0.0640 -1.2681 -0.4845
  367TIP3    H222593   4.352   6.616   1.482 -1.4792 -3.6563  1.7394
  368TIP3   OH222594   2.524   3.450  11.400  0.0075 -0.7466  0.3120
  368TIP3    H122595   2.458   3.472  11.334  2.0442  0.6030 -1.3789
  368TIP3    H222596   2.571   3.375  11.363  2.1664  0.9652 -0.6298
  369TIP3   OH222597   6.758   6.517  15.281  0.0339 -0.8326  0.0472
  369TIP3    H122598   6.691   6.521  15.349  0.4319  1.0873  0.3928
  369TIP3    H222599   6.710   6.526  15.199 -0.4647 -3.2965 -0.0104
  370TIP3   OH222600   2.571   6.490  12.590  0.6977 -0.3322 -0.0986
  370TIP3    H122601   2.564   6.553  12.663  1.2064 -0.0814 -0.2607
  370TIP3    H222602   2.594   6.407  12.633 -2.2935 -1.0438  0.3873
  371TIP3   OH222603   5.954   1.093  15.807  0.0991 -0.6128  0.3341
  371TIP3    H122604   6.042   1.063  15.830 -0.2189 -1.2382  0.7696
  371TIP3    H222605   5.956   1.102  15.711  0.6302 -0.6397  0.3407
  372TIP3   OH222606   5.454   5.256  11.513 -0.1739  0.0494  0.4173
  372TIP3    H122607   5.503   5.274  11.433  0.3833  0.2928  0.8022
  372TIP3    H222608   5.521   5.257  11.582 -0.8886  1.8604  1.1689
  373TIP3   OH222609   4.415   3.384   5.714 -0.0394 -0.1779  0.5210
  373TIP3    H122610   4.491   3.402   5.657 -0.2181  0.0702  0.3579
  373TIP3    H222611   4.360   3.326   5.662  1.5957 -3.1494  1.8811
  374TIP3   OH222612   6.810   4.588   0.455  0.0590  0.2203 -0.4356
  374TIP3    H122613   6.761   4.514   0.421  0.4288  0.5075 -1.6198
  374TIP3    H222614   6.788   4.661   0.397 -0.1593  1.0095  0.6002
  375TIP3   OH222615   4.831   6.100  14.787 -0.1912  0.6125 -0.3647
  375TIP3    H122616   4.805   6.025  14.839  0.9100  1.3381  1.3064
  375TIP3    H222617   4.895   6.065  14.724 -1.3168 -0.2188 -1.0678
  376TIP3   OH222618   2.849   2.346   0.454 -0.5767 -0.1759 -0.2478
  376TIP3    H122619   2.863   2.264   0.502  0.6027 -0.0633 -0.3897
  376TIP3    H222620   2.854   2.414   0.522 -1.8307 -0.2103 -0.0831
  377TIP3   OH222621   3.072   6.670  10.951 -0.1806 -0.2736  0.2385
  377TIP3    H122622   2.978   6.666  10.970 -0.1305 -1.6703  0.3215
  377TIP3    H222623   3.078   6.726  10.873 -0.8749  1.3133  1.2837
  378TIP3   OH222624   3.359   1.809  13.181  0.1706 -0.0187  0.5220
  378TIP3    H122625   3.266   1.823  13.160  0.1015  0.4217  1.0787
  378TIP3    H222626   3.392   1.897  13.200  0.5265 -0.2574  1.0160
  379TIP3   OH222627   3.526   5.366  15.791  0.3114  0.1498  0.0888
  379TIP3    H122628   3.486   5.355  15.877 -2.2408  0.2221 -0.9838
  379TIP3    H222629   3.523   5.460  15.775 -0.8459  0.0023 -0.7254
  380TIP3   OH222630   0.974   2.466  13.250  0.5508  0.4819  0.2534
  380TIP3    H122631   0.938   2.412  13.179  1.8071  3.3206 -2.8170
  380TIP3    H222632   1.055   2.421  13.274  0.3418 -0.3122 -0.4461
  381TIP3   OH222633   2.778   3.420   1.092 -0.2426  0.1073 -0.1780
  381TIP3    H122634   2.755   3.327   1.079 -1.0449  0.5507 -2.5984
  381TIP3    H222635   2.779   3.456   1.003  0.2667  2.3866  0.6900
  382TIP3   OH222636   6.590   2.295  12.355 -0.2715 -0.1530 -0.3726
  382TIP3    H122637   6.675   2.283  12.397 -0.1328 -0.3085 -0.6951
  382TIP3    H222638   6.566   2.385  12.376  1.1326  0.7636 -2.3178
  383TIP3   OH222639   3.013   2.212   4.676  0.1211 -0.5066  0.1208
  383TIP3    H122640   2.934   2.209   4.729  0.4088  0.2740  0.6090
  383TIP3    H222641   3.003   2.141   4.613 -0.3542 -1.2602  1.0365
  384TIP3   OH222642   3.317   5.054   5.799 -0.1456 -0.7112 -0.0849
  384TIP3    H122643   3.249   5.079   5.861  0.1687  0.1196 -0.0647
  384TIP3    H222644   3.317   4.958   5.801  0.8436 -0.7503  2.3317
  385TIP3   OH222645   3.202   5.230   5.432 -0.5644 -0.3221 -0.0620
  385TIP3    H122646   3.246   5.219   5.516  0.2003  1.1947 -0.2234
  385TIP3    H222647   3.126   5.285   5.452  0.8803  2.0373 -0.6463
  386TIP3   OH222648   2.720   6.244  15.464 -1.0376  0.1180 -0.0656
  386TIP3    H122649   2.752   6.314  15.407  1.5096 -0.7351  0.2303
  386TIP3    H222650   2.649   6.285  15.514 -1.0594  1.8343 -1.4092
  387TIP3   OH222651   4.464   4.065  11.845  0.2520  0.2569 -0.0376
  387TIP3    H122652   4.521   3.998  11.807 -0.8168 -0.4699 -0.4070
  387TIP3    H222653   4.494   4.074  11.935  0.3398 -0.7966  0.0445
  388TIP3   OH222654   2.617   3.336  12.002 -0.2631 -1.1120  0.0123
  388TIP3    H122655   2.679   3.395  12.044 -1.3719 -0.8684  1.3837
  388TIP3    H222656   2.590   3.382  11.922 -2.1508  0.9977  1.7175
  389TIP3   OH222657   0.037   1.114   5.495  0.9359  0.1126 -0.1118
  389TIP3    H122658  -0.002   1.094   5.580  1.0203 -1.7198 -0.4692
  389TIP3    H222659   0.082   1.197   5.508 -0.7142  0.8863  1.0767
  390TIP3   OH222660   2.881   1.001   4.652 -0.1334  0.9150  0.1731
  390TIP3    H122661   2.923   0.962   4.729 -0.6216  0.1129  0.0566
  390TIP3    H222662   2.807   1.050   4.688 -0.2960  0.6321  0.2313
  391TIP3   OH222663   0.419   0.538   1.780  0.3094 -0.0283  0.3915
  391TIP3    H122664   0.342   0.594   1.772  2.3651  2.8383 -1.0691
  391TIP3    H222665   0.423   0.490   1.697  1.5552  2.0133 -0.8169
  392TIP3   OH222666   3.889   5.124   3.572 -0.1105  0.0933 -0.9522
  392TIP3    H122667   3.897   5.063   3.499  1.5428 -0.7230 -0.1481
  392TIP3    H222668   3.974   5.166   3.577 -0.4398  0.6679  0.0537
  393TIP3   OH222669   1.697   1.290   0.416 -0.1282 -0.3214  0.8536
  393TIP3    H122670   1.740   1.263   0.335 -0.5740  1.1834  0.0735
  393TIP3    H222671   1.733   1.231   0.483 -1.8527 -3.5827 -0.8171
  394TIP3   OH222672   4.588   5.494   2.831  0.2011  0.3324 -0.6310
  394TIP3    H122673   4.636   5.412   2.834 -0.9191 -0.3620 -1.2123
  394TIP3    H222674   4.647   5.558   2.871  0.5124 -1.0327  1.2048
  395TIP3   OH222675   3.678   3.324  15.479  0.1013  0.1421 -0.3347
  395TIP3    H122676   3.711   3.411  15.456 -0.5087  0.1536 -1.2090
  395TIP3    H222677   3.679   3.275  15.397  1.1854 -0.9472  0.2971
  396TIP3   OH222678   1.671   1.878  11.277 -0.2578 -0.2380  0.0929
  396TIP3    H122679   1.732   1.943  11.243  0.9558 -2.2306 -1.8551
  396TIP3    H222680   1.617   1.855  11.202 -0.6190 -1.4915  0.7089
  397TIP3   OH222681   6.377   0.878  14.003 -0.1467  0.2417 -0.2583
  397TIP3    H122682   6.362   0.923  14.086  0.1795 -1.1622  0.6016
  397TIP3    H222683   6.465   0.906  13.976  0.1244  0.0075  0.3564
  398TIP3   OH222684   6.843   3.054   6.721 -0.2914 -0.2545 -0.3198
  398TIP3    H122685   6.781   3.091   6.658 -0.2202  0.6692  0.1352
  398TIP3    H222686   6.905   3.005   6.667 -0.2971  0.4238 -0.9732
  399TIP3   OH222687   1.691   6.669  11.220 -0.5088 -0.0645 -0.0952
  399TIP3    H122688   1.635   6.655  11.296  2.2571 -0.3912  1.9911
  399TIP3    H222689   1.631   6.662  11.145 -3.5249  1.2715  1.9997
  400TIP3   OH222690   2.134   3.312   2.387  0.0643 -0.5035  0.0055
  400TIP3    H122691   2.205   3.328   2.449  0.9072 -0.0927 -1.0403
  400TIP3    H222692   2.176   3.272   2.312 -0.4751  1.3968 -1.3869
  401TIP3   OH222693   0.394   6.096   1.995  0.5178 -0.0690  0.1443
  401TIP3    H122694   0.334   6.046   2.051 -0.2248 -0.5990 -1.0849
  401TIP3    H222695   0.470   6.114   2.051 -0.8596  0.8190  1.8057
  402TIP3   OH222696   3.495   2.871   3.964 -0.7154  0.1628  0.1441
  402TIP3    H122697   3.496   2.851   3.871 -0.7119  1.0857 -0.0651
  402TIP3    H222698   3.454   2.957   3.970 -1.7101 -0.3507  1.0938
  403TIP3   OH222699   3.587   1.850  12.614 -0.1502  0.4825 -0.0575
  403TIP3    H122700   3.572   1.888  12.700 -1.3877 -1.6575  0.7414
  403TIP3    H222701   3.550   1.762  12.619 -0.0654  0.2004 -2.7136
  404TIP3   OH222702   1.731   4.015   3.714 -0.2534  0.0056 -0.2862
  404TIP3    H122703   1.720   3.927   3.678  1.3691  0.3947 -1.9033
  404TIP3    H222704   1.652   4.030   3.765  0.1032 -2.9753  1.3694
  405TIP3   OH222705   0.086   2.641   3.543  0.1903 -0.1142  0.0763
  405TIP3    H122706   0.095   2.568   3.482  0.8270 -0.3856  0.4898
  405TIP3    H222707   0.121   2.608   3.625  1.1295  0.8790  0.0932
  406TIP3   OH222708   0.710   2.953  13.367  0.2842 -0.2382  0.0633
  406TIP3    H122709   0.669   2.981  13.285 -1.2477  1.7158  1.3926
  406TIP3    H222710   0.794   2.917  13.341 -0.0384  0.5900 -2.3375
  407TIP3   OH222711   3.303   4.750   1.999 -0.9690 -0.7604  0.1704
  407TIP3    H122712   3.390   4.789   1.993 -0.8459 -1.1997 -1.4286
  407TIP3    H222713   3.319   4.662   2.033 -1.1369  0.1147  2.7206
  408TIP3   OH222714   4.751   0.852  12.061 -0.6433  0.4457  0.2695
  408TIP3    H122715   4.810   0.921  12.028  0.6505 -0.1848  1.1653
  408TIP3    H222716   4.663   0.882  12.037 -0.2411  3.0202  1.6340
  409TIP3   OH222717   4.169   4.425  13.287  0.4441  0.2738  0.1244
  409TIP3    H122718   4.259   4.392  13.288  0.9147  1.4360  1.8192
  409TIP3    H222719   4.139   4.412  13.197  3.1748  2.0446 -1.1787
  410TIP3   OH222720   4.017   0.097  12.107 -0.4361 -0.3686  0.1412
  410TIP3    H122721   4.046   0.069  12.020  0.0979  0.3652  0.0795
  410TIP3    H222722   4.086   0.155  12.138 -1.8176  1.4575 -0.0174
  411TIP3   OH222723   4.627   4.030  16.230  0.8961  0.0708  0.8737
  411TIP3    H122724   4.707   4.071  16.262  0.3906  0.8620  1.1691
  411TIP3    H222725   4.592   3.982  16.305  0.3997  0.8428  1.1537
  412TIP3   OH222726   6.298   5.994  15.131  0.1254 -0.1747 -0.0550
  412TIP3    H122727   6.273   5.902  15.138  1.7901 -0.6945 -0.2967
  412TIP3    H222728   6.365   6.005  15.199  0.7535  0.5519 -0.7773
  413TIP3   OH222729   3.847   3.665   1.488  0.8237 -0.1255  0.1078
  413TIP3    H122730   3.843   3.570   1.499 -1.0143 -0.4727 -2.4003
  413TIP3    H222731   3.912   3.679   1.419  2.0433  0.6182  1.3504
  414TIP3   OH222732   0.574   5.819  15.560  0.5080 -0.5421 -0.2730
  414TIP3    H122733   0.566   5.730  15.526  1.4275 -1.3707  1.5718
  414TIP3    H222734   0.562   5.875  15.483 -2.4686 -2.1165 -1.1310
  415TIP3   OH222735   5.085   5.406  13.975  0.2758  0.0211 -0.3659
  415TIP3    H122736   5.104   5.369  13.888  0.7535  0.5911 -0.5135
  415TIP3    H222737   4.994   5.435  13.970  1.1835  2.9849 -1.7867
  416TIP3   OH222738   5.976   6.416   0.902  0.3564 -0.2955 -0.1675
  416TIP3    H122739   5.895   6.466   0.913  0.8681  0.3321  1.0084
  416TIP3    H222740   5.981   6.397   0.809 -0.4392  0.8634 -0.4633
  417TIP3   OH222741   4.379   2.103   1.488  0.0954  0.0974  0.1564
  417TIP3    H122742   4.294   2.062   1.471 -0.4584  0.5223  1.7212
  417TIP3    H222743   4.428   2.039   1.539 -0.5468  1.0683  2.0869
  418TIP3   OH222744   6.112   0.689  14.662  0.0464 -0.5477 -0.4350
  418TIP3    H122745   6.161   0.769  14.681  1.8594 -1.3980 -1.3227
  418TIP3    H222746   6.060   0.711  14.585 -0.3037  0.0879 -0.0305
  419TIP3   OH222747   0.030   5.402  12.389  0.1776  0.2981  0.6430
  419TIP3    H122748   0.023   5.448  12.473  0.6197 -0.1917  0.9552
  419TIP3    H222749   0.123   5.408  12.367  0.5226 -1.6022  1.3732
  420TIP3   OH222750   5.096   0.603   2.950 -0.3718 -0.2229 -0.0881
  420TIP3    H122751   5.135   0.627   2.866  0.3695  0.1571  0.3541
  420TIP3    H222752   5.035   0.674   2.970  1.8661  1.4899  1.2531
  421TIP3   OH222753   1.255   3.402   6.644 -0.2543  0.3879  0.5597
  421TIP3    H122754   1.326   3.371   6.589 -2.1229 -1.7679 -0.8203
  421TIP3    H222755   1.298   3.456   6.711  2.6362 -0.8765 -0.1177
  422TIP3   OH222756   3.129   3.933  12.986 -0.3653  0.1821 -0.0441
  422TIP3    H122757   3.078   4.009  13.016 -0.4719  0.4760 -0.9479
  422TIP3    H222758   3.191   3.970  12.923  0.6200 -0.2551  0.6516
  423TIP3   OH222759   3.469   2.728  12.905 -0.0672 -0.1898 -0.1674
  423TIP3    H122760   3.408   2.664  12.867 -0.0648  0.7976 -1.9384
  423TIP3    H222761   3.460   2.716  13.000  0.2316 -3.0858 -0.4004
  424TIP3   OH222762   6.344   3.651   5.069  0.0058  0.0876  0.6937
  424TIP3    H122763   6.363   3.722   5.130 -0.4662 -0.1599  1.1328
  424TIP3    H222764   6.425   3.640   5.019 -0.0746  1.2521  0.2910
  425TIP3   OH222765   4.954   6.614   2.445 -0.1867 -0.2094  0.1994
  425TIP3    H122766   5.021   6.630   2.378  0.2388  1.1270  0.8995
  425TIP3    H222767   4.998   6.561   2.510  0.1281  0.4259  0.5185
  426TIP3   OH222768   2.416   6.826   0.655 -0.0375 -0.2114 -0.0703
  426TIP3    H122769   2.502   6.833   0.614 -0.0601 -1.1802 -0.3015
  426TIP3    H222770   2.375   6.751   0.612  0.2810 -1.8541  2.2769
  427TIP3   OH222771   5.873   2.230   3.254 -0.0685 -0.2309  0.0055
  427TIP3    H122772   5.939   2.195   3.314  0.1650 -1.6609 -1.0247
  427TIP3    H222773   5.804   2.164   3.254 -1.0025  0.7221  0.2196
  428TIP3   OH222774   3.324   1.021  13.186 -0.0198 -0.2891 -0.0588
  428TIP3    H122775   3.284   1.009  13.100  0.9548 -0.4426 -0.5133
  428TIP3    H222776   3.287   1.103  13.219 -0.4273 -0.2437 -0.6200
  429TIP3   OH222777   5.587   4.862   2.589  0.1649 -0.0506 -0.2485
  429TIP3    H122778   5.647   4.914   2.536  0.6175  0.0830  0.3736
  429TIP3    H222779   5.559   4.791   2.532  1.2429 -0.3470 -0.4177
  430TIP3   OH222780   5.408   1.559  11.991  0.0078 -0.2976 -0.2128
  430TIP3    H122781   5.446   1.471  11.990  1.4280  0.2707  0.1859
  430TIP3    H222782   5.447   1.603  11.915 -0.1702  0.1827 -0.0337
  431TIP3   OH222783   2.005   1.740   2.198  0.2288 -0.1344  0.1410
  431TIP3    H122784   2.003   1.682   2.274 -1.2409  0.0170  0.2330
  431TIP3    H222785   1.932   1.711   2.143  0.3576  0.7072 -0.4969
  432TIP3   OH222786   1.433   2.177  11.539 -0.7125 -0.3751 -0.1239
  432TIP3    H122787   1.405   2.157  11.450 -0.0434  0.5091 -0.5446
  432TIP3    H222788   1.361   2.148  11.595 -2.2471  1.3646 -1.1243
  433TIP3   OH222789   1.167   3.569   4.777  0.3899  0.2729  0.0728
  433TIP3    H122790   1.205   3.481   4.779 -1.7767 -0.7277 -0.0347
  433TIP3    H222791   1.221   3.619   4.838  2.3131 -0.8398 -0.6350
  434TIP3   OH222792   6.500   3.128   1.305  0.8031 -0.0031  0.3878
  434TIP3    H122793   6.531   3.152   1.392  0.7230  2.6203 -0.2220
  434TIP3    H222794   6.433   3.193   1.284  1.0295 -0.3675 -1.7455
  435TIP3   OH222795   1.446   3.787   1.224  0.6200  0.1089  0.2863
  435TIP3    H122796   1.436   3.839   1.145 -0.8231 -1.4062 -0.5965
  435TIP3    H222797   1.539   3.763   1.225  0.5109 -0.5502 -1.4544
  436TIP3   OH222798   3.096   1.034   5.923  0.1981  0.7778  0.2259
  436TIP3    H122799   3.138   0.968   5.978  0.1461 -0.4117 -1.0980
  436TIP3    H222800   3.005   1.034   5.951  0.4132  1.0331  0.9324
  437TIP3   OH222801   5.877   5.269  11.548  0.5314 -0.6443 -0.4344
  437TIP3    H122802   5.928   5.343  11.516 -0.3876  0.0899 -0.2265
  437TIP3    H222803   5.796   5.307  11.580  0.7947 -1.5281  1.3912
  438TIP3   OH222804   4.369   4.710  12.081 -0.2514  0.5639  0.2991
  438TIP3    H122805   4.464   4.704  12.084 -0.3488 -0.9538  1.8470
  438TIP3    H222806   4.348   4.786  12.136  0.0855  1.8423 -1.2697
  439TIP3   OH222807   3.936   3.379  11.882  0.5565 -0.2317  0.7046
  439TIP3    H122808   3.918   3.405  11.972  0.6437  1.1335  0.3575
  439TIP3    H222809   3.893   3.446  11.828  1.3695 -0.4398 -0.2442
  440TIP3   OH222810   6.658   5.558   4.035  0.6772 -0.0155 -0.4002
  440TIP3    H122811   6.702   5.642   4.048  0.5157 -0.3044  2.8855
  440TIP3    H222812   6.566   5.581   4.023  0.7609  0.3071 -0.4538
  441TIP3   OH222813   0.129   0.366  13.646 -0.3667 -0.0905  0.0714
  441TIP3    H122814   0.168   0.319  13.720  1.3918 -0.4940 -1.0534
  441TIP3    H222815   0.158   0.456  13.656  0.7969 -0.3634 -0.6916
  442TIP3   OH222816   6.803   4.059  11.511 -0.3583 -0.3157  0.2065
  442TIP3    H122817   6.708   4.068  11.507 -0.3813 -0.3717  0.5870
  442TIP3    H222818   6.823   3.989  11.449 -0.6678 -1.0015  0.8667
  443TIP3   OH222819   6.590   4.730   6.419  0.2674  0.0869 -0.0808
  443TIP3    H122820   6.681   4.713   6.444  0.0988 -0.1466  0.3983
  443TIP3    H222821   6.579   4.825   6.432 -0.4638 -0.3047  3.1192
  444TIP3   OH222822   0.718   4.228  16.743 -0.1319 -1.0371 -0.0060
  444TIP3    H122823   0.719   4.194  16.653 -0.2934  1.1922 -0.9031
  444TIP3    H222824   0.704   4.150  16.797  1.3354 -2.6547 -1.7859
  445TIP3   OH222825   5.921   6.454   1.820  0.5612 -0.3953  0.0875
  445TIP3    H122826   5.841   6.414   1.856  0.6520 -0.3947  0.2915
  445TIP3    H222827   5.931   6.414   1.734  0.7319 -0.9269  0.3515
  446TIP3   OH222828   0.701   5.320   3.013  0.0079  0.0819 -0.1118
  446TIP3    H122829   0.719   5.414   3.012  0.2260  0.1531 -3.6023
  446TIP3    H222830   0.624   5.309   2.958 -0.3084 -1.7657  0.5987
  447TIP3   OH222831   5.328   2.657  13.931 -0.1927 -0.0535 -0.1372
  447TIP3    H122832   5.251   2.690  13.885  0.2121  1.1678  0.0260
  447TIP3    H222833   5.296   2.581  13.980 -1.3393  0.5506  0.0813
  448TIP3   OH222834   6.624   6.300  16.763 -0.2244 -0.4117  0.2228
  448TIP3    H122835   6.599   6.389  16.786 -0.3074 -0.5371  0.6288
  448TIP3    H222836   6.596   6.290  16.673  2.0334  0.8194 -0.7139
  449TIP3   OH222837   6.415   1.942  16.051 -0.1580  0.3076 -0.1967
  449TIP3    H122838   6.502   1.946  16.012 -0.2658 -1.5584 -0.7332
  449TIP3    H222839   6.427   1.891  16.132 -0.6443  0.5564  0.0364
  450TIP3   OH222840   0.528   6.049  13.214  0.6527 -0.0478  0.5997
  450TIP3    H122841   0.434   6.066  13.219  0.6486 -0.0904  0.6691
  450TIP3    H222842   0.552   6.075  13.125  0.5242 -0.2951  0.4894
  451TIP3   OH222843   6.159   4.171  15.646 -0.5806  0.2345  0.8126
  451TIP3    H122844   6.247   4.190  15.613  0.3036 -0.0854  2.8644
  451TIP3    H222845   6.147   4.077  15.630 -1.4343  0.6452 -1.3312
  452TIP3   OH222846   6.006   5.728  11.246  0.1398  0.3461 -0.6943
  452TIP3    H122847   6.078   5.710  11.306 -0.5377 -0.5625 -0.1343
  452TIP3    H222848   6.042   5.712  11.159  1.0991  1.5671 -0.5530
  453TIP3   OH222849   2.389   1.582   2.021  0.6352  0.0804 -0.1891
  453TIP3    H122850   2.410   1.522   2.093 -0.2752 -2.1410 -1.6712
  453TIP3    H222851   2.294   1.584   2.018  0.6382  1.7507 -0.1157
  454TIP3   OH222852   5.015   0.259  12.313 -0.4099  0.4886 -0.4661
  454TIP3    H122853   5.070   0.239  12.389 -2.4690  1.8434  1.5071
  454TIP3    H222854   5.076   0.258  12.239  1.6599 -1.1203  1.1085
  455TIP3   OH222855   1.515   3.176  13.845  0.4560 -0.3394 -0.2585
  455TIP3    H122856   1.576   3.241  13.810  0.2629 -1.1669 -2.2679
  455TIP3    H222857   1.456   3.157  13.772 -2.0571  0.1898  1.5058
  456TIP3   OH222858   0.383   4.520   2.622  0.6527  0.1187 -0.3636
  456TIP3    H122859   0.341   4.521   2.708  0.4264  1.0345 -0.4707
  456TIP3    H222860   0.445   4.447   2.626  0.1121 -0.3086  0.3132
  457TIP3   OH222861   2.216   1.600  12.808 -0.4089  0.0002  0.5210
  457TIP3    H122862   2.257   1.540  12.870  3.6901  0.5186 -1.3707
  457TIP3    H222863   2.172   1.543  12.745 -2.1976 -0.6051  2.1980
  458TIP3   OH222864   6.155   2.408  13.010 -0.2638 -0.1079 -0.7627
  458TIP3    H122865   6.116   2.326  13.042 -0.3244 -0.3824 -1.5102
  458TIP3    H222866   6.231   2.379  12.959  2.3701  0.4854  2.4780
  459TIP3   OH222867   5.824   0.324   4.937 -0.0240  1.0924 -0.0459
  459TIP3    H122868   5.764   0.362   5.001  0.6265  1.1200  0.5626
  459TIP3    H222869   5.911   0.340   4.973  0.3843  1.6211 -1.2213
  460TIP3   OH222870   2.432   1.614  15.467  0.4689  0.7975 -0.4342
  460TIP3    H122871   2.428   1.708  15.485  0.1233  0.9163 -1.0818
  460TIP3    H222872   2.398   1.573  15.547  0.0815  1.2486 -0.3601
  461TIP3   OH222873   6.246   6.179   4.653 -0.1376  0.2052 -0.1124
  461TIP3    H122874   6.176   6.154   4.714  0.9968 -1.7350  0.4943
  461TIP3    H222875   6.199   6.207   4.575 -1.6832 -2.0533 -0.1280
  462TIP3   OH222876   2.749   1.219  14.520 -0.3105  0.4696 -0.3802
  462TIP3    H122877   2.823   1.278  14.534 -0.2003  0.1238  0.5795
  462TIP3    H222878   2.788   1.141  14.480 -0.1710  0.3316  0.0223
  463TIP3   OH222879   1.107   3.463  11.038  0.2110 -0.1879 -0.0515
  463TIP3    H122880   1.196   3.451  11.006 -0.1603  1.9770 -2.2204
  463TIP3    H222881   1.118   3.508  11.122  1.2051  0.6654 -0.6107
  464TIP3   OH222882   5.328   6.350  15.478 -0.2030 -0.6497 -0.4912
  464TIP3    H122883   5.403   6.357  15.418 -2.1989 -1.5127 -3.3539
  464TIP3    H222884   5.322   6.256  15.497 -1.7727 -0.9438 -2.1542
  465TIP3   OH222885   1.488   3.535   5.383 -0.1652 -0.0809 -0.7122
  465TIP3    H122886   1.461   3.547   5.474  0.6640  1.8718 -0.6716
  465TIP3    H222887   1.572   3.489   5.389 -1.3337 -2.3233 -0.6560
  466TIP3   OH222888   2.678   6.313  14.118  0.9034  0.5399 -0.0163
  466TIP3    H122889   2.725   6.394  14.095 -0.2472  0.7312 -1.8470
  466TIP3    H222890   2.690   6.256  14.042 -1.3991  0.4242 -0.3457
  467TIP3   OH222891   0.938   0.500  16.916 -0.1063  0.2187  0.1079
  467TIP3    H122892   0.994   0.515  16.841 -1.1119 -0.6655 -0.8564
  467TIP3    H222893   0.879   0.575  16.918  1.3030  1.3325  1.3424
  468TIP3   OH222894   3.119   5.014  12.266 -0.7001 -0.2048 -0.1014
  468TIP3    H122895   3.064   4.937  12.280 -0.2391 -0.9665 -2.1622
  468TIP3    H222896   3.122   5.025  12.171 -0.3825  2.1079  0.1038
  469TIP3   OH222897   0.297   1.416  14.314  0.0736  0.1378  0.2610
  469TIP3    H122898   0.344   1.340  14.279  0.0617 -0.2899  1.1480
  469TIP3    H222899   0.230   1.435  14.248  0.5546 -0.1537 -0.3222
  470TIP3   OH222900   0.857   6.212  16.610 -0.0795  0.3830 -0.3463
  470TIP3    H122901   0.816   6.257  16.536 -0.2367 -0.4079 -0.7646
  470TIP3    H222902   0.801   6.136  16.624  0.4881  0.0154 -0.0372
  471TIP3   OH222903   2.110   3.432  16.428 -0.0416 -0.1404 -0.6439
  471TIP3    H122904   2.195   3.387  16.438 -1.2370 -2.2011  1.3194
  471TIP3    H222905   2.066   3.385  16.357  0.8107  1.7004 -2.5063
  472TIP3   OH222906   2.148   0.759   0.146 -0.2032 -0.0537 -0.0115
  472TIP3    H122907   2.237   0.781   0.172  0.1500 -1.9026  0.5043
  472TIP3    H222908   2.093   0.789   0.219 -0.2992  2.7832 -1.1280
  473TIP3   OH222909   0.699   6.664  15.293 -0.2697 -0.3830  0.1475
  473TIP3    H122910   0.791   6.689  15.282 -0.2909 -0.9423 -1.5719
  473TIP3    H222911   0.686   6.594  15.230 -1.8710 -0.3687  0.4320
  474TIP3   OH222912   3.728   1.725   0.659 -0.0284  0.4130  0.3114
  474TIP3    H122913   3.768   1.660   0.601 -1.4626  1.9272 -2.6341
  474TIP3    H222914   3.778   1.805   0.642 -0.9282  1.0499  0.6296
  475TIP3   OH222915   5.871   2.258   1.462  0.0608 -0.0133 -0.3463
  475TIP3    H122916   5.867   2.353   1.451  2.9172  0.4597  1.5851
  475TIP3    H222917   5.893   2.224   1.376 -4.4433  0.5186 -2.0142
  476TIP3   OH222918   0.141   4.478  15.317  0.1968  0.0950  0.8536
  476TIP3    H122919   0.211   4.487  15.382  1.1015 -2.4202  0.3413
  476TIP3    H222920   0.061   4.489  15.367  0.9076  0.1993  2.0183
  477TIP3   OH222921   1.514   4.520  10.643 -0.1779  0.1321 -0.0619
  477TIP3    H122922   1.570   4.574  10.587  1.5875 -0.9166  0.5959
  477TIP3    H222923   1.459   4.471  10.582  1.1662 -0.4084 -0.9055
  478TIP3   OH222924   5.280   2.455  11.952 -0.3745  0.3058  0.0188
  478TIP3    H122925   5.202   2.453  11.898 -0.3121  0.9321 -0.1075
  478TIP3    H222926   5.336   2.386  11.917 -0.8889 -0.1759  0.1401
  479TIP3   OH222927   3.053   3.707   5.870  0.1499  0.0939  0.4322
  479TIP3    H122928   3.024   3.798   5.869 -0.6553 -0.1645  0.1809
  479TIP3    H222929   3.014   3.670   5.949 -1.3149 -0.5980 -0.5746
  480TIP3   OH222930   4.372   4.417  13.939 -0.4394 -0.2314  0.0630
  480TIP3    H122931   4.409   4.421  13.850  1.3699  1.2733  0.8111
  480TIP3    H222932   4.408   4.336  13.975  0.5797  0.2097  0.0963
  481TIP3   OH222933   0.805   2.558   0.664  0.1341 -0.1319 -0.2767
  481TIP3    H122934   0.739   2.622   0.690  0.1966 -0.7746  1.6304
  481TIP3    H222935   0.872   2.610   0.619  0.9281  1.4995  2.5058
  482TIP3   OH222936   0.074   0.662  13.104 -0.3029 -0.3778  0.1070
  482TIP3    H122937   0.101   0.733  13.162 -0.3958 -0.0737 -0.2127
  482TIP3    H222938   0.119   0.681  13.021 -1.0266 -0.1897 -0.2557
  483TIP3   OH222939   1.440   4.607  16.846  0.7032 -0.6859  0.2489
  483TIP3    H122940   1.488   4.639  16.923  1.9065 -3.7233  0.9221
  483TIP3    H222941   1.508   4.579  16.785 -0.2569  0.8856 -1.6585
  484TIP3   OH222942   5.608   2.533  13.558  0.3245  0.0561 -0.4115
  484TIP3    H122943   5.574   2.600  13.618  0.7201 -0.8343  0.8522
  484TIP3    H222944   5.701   2.526  13.581  0.4378 -0.4292 -1.0107
  485TIP3   OH222945   2.628   5.526  13.384  0.2459  0.3592 -0.0007
  485TIP3    H122946   2.580   5.609  13.377  0.7111  0.8146  1.6346
  485TIP3    H222947   2.564   5.459  13.360 -0.0763  1.1827 -1.5788
  486TIP3   OH222948   6.196   5.931   0.413  0.7110 -0.0827 -0.2671
  486TIP3    H122949   6.268   5.877   0.445 -0.6125 -2.0458 -0.3921
  486TIP3    H222950   6.117   5.881   0.434 -0.5210  1.1431 -1.7022
  487TIP3   OH222951   3.875   0.786   5.703  0.1976 -0.1230 -0.2109
  487TIP3    H122952   3.905   0.737   5.627  0.9827  0.9082 -0.5776
  487TIP3    H222953   3.782   0.763   5.711  0.4591 -1.3845 -0.5734
  488TIP3   OH222954   0.233   6.265  16.768  0.6681  0.3859  0.1005
  488TIP3    H122955   0.311   6.253  16.822 -1.0469  0.4078  2.7890
  488TIP3    H222956   0.254   6.339  16.711  2.7599  0.0473  0.3539
  489TIP3   OH222957   2.629   6.825  13.858 -0.2116  0.1286 -0.2745
  489TIP3    H122958   2.624   6.735  13.890  0.0257  0.1312 -0.2269
  489TIP3    H222959   2.538   6.851  13.845 -0.3898  0.5975  1.6854
  490TIP3   OH222960   5.028   4.462  10.589  0.1610  0.2148  0.0247
  490TIP3    H122961   4.994   4.440  10.676  1.5392 -1.6214  0.1739
  490TIP3    H222962   4.966   4.421  10.529  0.0413  0.1535  0.1874
  491TIP3   OH222963   3.071   0.106  15.223 -0.7458  0.2971  0.1092
  491TIP3    H122964   3.031   0.174  15.278 -0.6179 -0.0564  0.6471
  491TIP3    H222965   3.099   0.039  15.285 -0.5166 -0.0680 -0.3860
  492TIP3   OH222966   2.309   5.033   2.674  0.1592  0.3391 -0.3277
  492TIP3    H122967   2.309   5.108   2.733  0.5336  0.5790 -0.6299
  492TIP3    H222968   2.244   5.056   2.607  1.1749  0.9578 -1.1219
  493TIP3   OH222969   5.784   0.792  17.054 -0.2589 -0.1175  0.3710
  493TIP3    H122970   5.835   0.859  17.100 -0.8101  1.8888 -1.7205
  493TIP3    H222971   5.787   0.716  17.111  3.0171  0.6753  1.4770
  494TIP3   OH222972   0.831   6.709   5.613  0.0393  0.0744  0.0400
  494TIP3    H122973   0.771   6.649   5.659 -1.1813  1.4898  0.3706
  494TIP3    H222974   0.854   6.775   5.679 -0.3375  1.1536 -0.8878
  495TIP3   OH222975   2.351   6.740   2.694 -0.2617 -0.3478 -0.5947
  495TIP3    H122976   2.421   6.708   2.638 -0.8712  0.6802 -2.0026
  495TIP3    H222977   2.390   6.744   2.781  2.0935  2.0328 -1.6180
  496TIP3   OH222978   5.351   3.396   3.563  0.2132  0.2082  0.3759
  496TIP3    H122979   5.364   3.399   3.658 -0.5911 -1.7343  0.5873
  496TIP3    H222980   5.273   3.342   3.552  1.4305 -1.2436 -1.4858
  497TIP3   OH222981   3.909   1.015   4.208 -0.1124 -0.0333  0.0686
  497TIP3    H122982   3.836   1.033   4.267  0.1718 -2.0068  1.1080
  497TIP3    H222983   3.978   0.981   4.265  0.5070 -1.1555 -1.2951
  498TIP3   OH222984   2.624   2.732  16.774  0.1118 -0.2511  0.5791
  498TIP3    H122985   2.662   2.806  16.727 -1.0090  0.8096  1.3001
  498TIP3    H222986   2.625   2.759  16.865 -2.4084 -0.1318  0.6255
  499TIP3   OH222987   0.832   2.056  15.216  0.0204  0.3733 -0.0769
  499TIP3    H122988   0.762   2.116  15.192  0.3051  0.5663 -0.4379
  499TIP3    H222989   0.855   2.011  15.135  0.9421  0.9810 -0.1745
  500TIP3   OH222990   2.627   0.305   0.439  0.2514  0.2678  1.1528
  500TIP3    H122991   2.679   0.383   0.421  0.0243 -0.0707 -1.2190
  500TIP3    H222992   2.536   0.333   0.427  0.1612 -0.3057  0.4438
  501TIP3   OH222993   5.225   4.523   4.968 -0.6059  0.4296  0.6422
  501TIP3    H122994   5.317   4.524   4.997 -0.3204  0.4534 -0.2499
  501TIP3    H222995   5.176   4.547   5.047  0.1795  0.8088  1.0360
  502TIP3   OH222996   5.096   3.149  15.470 -0.5300  0.2392  0.0313
  502TIP3    H122997   5.155   3.158  15.395 -1.1070 -1.9907 -0.7551
  502TIP3    H222998   5.150   3.170  15.546  0.5939  0.6540 -0.8500
  503TIP3   OH222999   5.453   3.556  11.151  0.2746  0.4902 -0.2048
  503TIP3    H123000   5.416   3.473  11.120  0.0818 -0.0155  1.3208
  503TIP3    H223001   5.434   3.558  11.245 -2.8942  3.8802 -0.6621
  504TIP3   OH223002   4.409   4.661   5.418 -0.2904  0.3172  0.0478
  504TIP3    H123003   4.427   4.708   5.500 -2.6315  0.0101  0.7990
  504TIP3    H223004   4.371   4.578   5.446 -1.0092  0.1476 -1.3563
  505TIP3   OH223005   3.176   0.254  12.703  0.0792  0.0225 -0.3571
  505TIP3    H123006   3.171   0.204  12.621  0.0161 -0.0315 -0.3191
  505TIP3    H223007   3.262   0.297  12.698 -0.1226  0.3992 -0.6720
  506TIP3   OH223008   4.207   0.524   3.873 -0.6609 -0.1845  0.0620
  506TIP3    H123009   4.137   0.582   3.904 -0.3408  0.6428 -0.7088
  506TIP3    H223010   4.235   0.562   3.790 -0.6902 -1.6861 -0.6638
  507TIP3   OH223011   4.844   4.924  13.201  0.0980 -0.1175  0.1612
  507TIP3    H123012   4.894   5.006  13.203 -0.1754  0.0486  0.3462
  507TIP3    H223013   4.909   4.856  13.216  0.1016  0.1821  1.7470
  508TIP3   OH223014   1.652   2.053  16.307 -0.2618  0.4970  0.5908
  508TIP3    H123015   1.599   2.072  16.385  0.3830 -0.7187  1.3413
  508TIP3    H223016   1.591   2.065  16.234 -1.1063  0.8236  1.3291
  509TIP3   OH223017   2.253   6.306   0.957  0.3910  0.3684 -0.5172
  509TIP3    H123018   2.347   6.309   0.975  0.2251 -0.0288  0.4643
  509TIP3    H223019   2.214   6.368   1.018 -0.3157 -1.9523  1.5498
  510TIP3   OH223020   5.966   1.008  16.555 -0.8280  0.5567  0.3517
  510TIP3    H123021   5.988   0.958  16.476 -1.3465 -0.4659  0.8399
  510TIP3    H223022   6.045   1.059  16.573  0.0839 -0.8180  0.3977
  511TIP3   OH223023   3.465   0.262   3.547 -0.1702  0.5597  0.1880
  511TIP3    H123024   3.528   0.199   3.583 -0.2436 -1.4782 -2.9073
  511TIP3    H223025   3.518   0.340   3.530  1.0938 -0.3959 -0.4529
  512TIP3   OH223026   4.809   1.717   1.748  0.1763 -0.0434  0.2709
  512TIP3    H123027   4.879   1.696   1.687 -0.4994 -2.2503  0.1692
  512TIP3    H223028   4.728   1.693   1.702 -0.3204 -2.8999  2.2966
  513TIP3   OH223029   1.297   5.072   5.810 -0.0842 -0.3116  0.5452
  513TIP3    H123030   1.271   4.986   5.777  0.2973 -0.5316  0.8041
  513TIP3    H223031   1.281   5.068   5.904 -1.7450  0.5258  0.3333
  514TIP3   OH223032   5.077   5.588   1.792  0.2975 -0.7593 -0.2290
  514TIP3    H123033   5.136   5.542   1.853  1.9931  1.4246 -0.1067
  514TIP3    H223034   5.068   5.676   1.828 -0.0032  0.0996 -2.2479
  515TIP3   OH223035   4.958   2.932  13.617 -0.6791  0.0512 -0.6761
  515TIP3    H123036   4.980   2.996  13.685 -0.9427  0.0613 -0.6007
  515TIP3    H223037   5.010   2.855  13.640 -1.1175 -0.1092 -0.1903
  516TIP3   OH223038   4.387   6.326  15.086 -0.4430 -0.9377 -0.0875
  516TIP3    H123039   4.477   6.356  15.071 -0.5711 -0.6182 -0.2187
  516TIP3    H223040   4.398   6.242  15.131 -0.0774 -0.7482  0.1937
  517TIP3   OH223041   3.831   1.614   4.548  0.0175  0.0358 -0.4190
  517TIP3    H123042   3.909   1.651   4.508  0.0554 -1.7164 -2.1302
  517TIP3    H223043   3.863   1.564   4.623  0.4784 -0.1775 -0.7533
  518TIP3   OH223044   6.114   3.718   1.345 -0.2301  0.4974  0.1144
  518TIP3    H123045   6.157   3.798   1.313  3.0550 -0.7783  0.9619
  518TIP3    H223046   6.050   3.696   1.276 -0.7169  3.3814 -0.4830
  519TIP3   OH223047   4.102   2.680   2.672  0.2093 -0.2897  0.1166
  519TIP3    H123048   4.067   2.614   2.731 -0.8004 -0.6427 -0.8461
  519TIP3    H223049   4.104   2.638   2.586  1.3981  0.2965 -0.1681
  520TIP3   OH223050   4.180   5.122  16.299  0.1298  0.0452 -0.2561
  520TIP3    H123051   4.159   5.151  16.389 -1.5746 -0.3220 -0.5016
  520TIP3    H223052   4.274   5.140  16.290  0.2237  0.6190  1.4040
  521TIP3   OH223053   4.610   1.265   3.550 -0.1051  0.5424 -0.0972
  521TIP3    H123054   4.519   1.285   3.575 -0.8150 -0.6356 -1.5685
  521TIP3    H223055   4.663   1.301   3.621 -1.7567  0.7795  1.0720
  522TIP3   OH223056   4.476   3.529  13.581 -0.5016  0.0320  0.6156
  522TIP3    H123057   4.562   3.543  13.540 -0.7537 -0.0004  0.0768
  522TIP3    H223058   4.419   3.594  13.541 -1.2625 -1.3502 -0.6463
  523TIP3   OH223059   1.786   2.061  12.608 -0.3502 -0.0798 -0.2042
  523TIP3    H123060   1.692   2.044  12.604 -0.7526  1.2823  1.7047
  523TIP3    H223061   1.821   1.989  12.661 -0.4366 -0.2014 -0.3126
  524TIP3   OH223062   6.416   2.062  14.485  0.5675 -0.1134 -0.6061
  524TIP3    H123063   6.409   2.145  14.439 -0.6419  0.4240  0.4664
  524TIP3    H223064   6.485   2.076  14.550 -0.6825  0.6114  0.6105
  525TIP3   OH223065   3.566   2.716  11.680  0.3309  0.0590  0.4249
  525TIP3    H123066   3.659   2.725  11.660  0.4199  4.1294  1.8586
  525TIP3    H223067   3.522   2.767  11.612 -0.3772  2.4087  2.5293
  526TIP3   OH223068   0.307   2.740  16.615 -0.2296  0.3432 -0.4806
  526TIP3    H123069   0.291   2.700  16.700 -1.8884 -0.0580 -0.9421
  526TIP3    H223070   0.379   2.688  16.577 -0.5209 -0.4611  0.0418
  527TIP3   OH223071   2.353   4.143   5.154  0.2519  0.8946  0.7195
  527TIP3    H123072   2.358   4.235   5.178 -0.0792  1.1187 -0.0742
  527TIP3    H223073   2.401   4.136   5.072 -0.1612  0.4501  0.5096
  528TIP3   OH223074   3.672   5.561   1.041 -0.2062  0.0375  0.1849
  528TIP3    H123075   3.755   5.524   1.013 -1.6442 -1.8452 -1.9646
  528TIP3    H223076   3.663   5.534   1.132  0.8905 -1.0046  0.0109
  529TIP3   OH223077   4.423   0.977   5.050  0.0908  0.0209 -0.5231
  529TIP3    H123078   4.491   1.042   5.066 -1.4448  2.1915 -2.2126
  529TIP3    H223079   4.441   0.945   4.961 -0.9436  0.5078 -0.9317
  530TIP3   OH223080   4.522   5.731  12.325 -0.1448 -0.0500 -0.0140
  530TIP3    H123081   4.569   5.749  12.243  3.4033 -3.3910  0.9601
  530TIP3    H223082   4.451   5.672  12.299 -0.5632  0.8275 -0.9304
  531TIP3   OH223083   1.799   4.172   1.899  0.2380  0.1230 -0.3501
  531TIP3    H123084   1.835   4.218   1.975 -3.4852  2.1441  0.4513
  531TIP3    H223085   1.740   4.236   1.858 -1.9132 -2.5891 -1.8243
  532TIP3   OH223086   2.152   6.301  11.531 -0.7174  0.4674 -0.9119
  532TIP3    H123087   2.075   6.306  11.587 -0.1078  2.0740 -0.1634
  532TIP3    H223088   2.184   6.212  11.542 -1.7336  0.1758 -0.2346
  533TIP3   OH223089   3.194   4.293   4.327 -0.1811  0.2797 -0.2312
  533TIP3    H123090   3.124   4.352   4.356 -0.1582  1.1290 -1.7942
  533TIP3    H223091   3.274   4.334   4.359 -0.3698 -1.1187  2.2778
  534TIP3   OH223092   5.800   4.611   4.422  0.3537 -0.5508 -0.5917
  534TIP3    H123093   5.771   4.687   4.472  0.7200 -0.4174 -0.5781
  534TIP3    H223094   5.893   4.603   4.442  0.3840 -0.8204 -0.8311
  535TIP3   OH223095   0.030   3.648  14.834  0.0992 -0.1254 -0.2441
  535TIP3    H123096  -0.029   3.673  14.763 -0.8119  1.7751  1.1114
  535TIP3    H223097   0.097   3.717  14.834 -1.2536  1.3395  2.1936
  536TIP3   OH223098   5.438   2.952  16.544  0.0898  0.1723 -0.3611
  536TIP3    H123099   5.483   2.944  16.460 -0.5223  0.4676 -0.7279
  536TIP3    H223100   5.507   2.972  16.607  0.4223  1.0144 -0.9763
  537TIP3   OH223101   5.544   3.976   1.438 -0.3601  0.2536 -0.4990
  537TIP3    H123102   5.625   3.925   1.437 -0.4671  0.0447  0.3991
  537TIP3    H223103   5.564   4.052   1.493 -0.8573  0.0366 -0.0047
  538TIP3   OH223104   1.459   6.478  13.318  0.0314 -0.1654 -0.5499
  538TIP3    H123105   1.543   6.525  13.321  0.7289 -1.4298  0.2481
  538TIP3    H223106   1.476   6.401  13.264 -0.5317 -0.5934 -0.1333
  539TIP3   OH223107   5.639   4.889  13.763  0.1078 -0.3920 -0.9903
  539TIP3    H123108   5.717   4.930  13.799 -0.1266  0.8363 -1.8388
  539TIP3    H223109   5.629   4.927  13.676 -0.4310 -1.8634 -1.6146
  540TIP3   OH223110   1.691   4.871  15.593  0.6858 -0.0578 -0.1870
  540TIP3    H123111   1.769   4.852  15.645  0.7107  1.5638  0.4210
  540TIP3    H223112   1.724   4.878  15.503  0.7480 -2.2007 -0.3722
  541TIP3   OH223113   1.533   4.415   2.813 -0.6483 -0.6453 -0.4198
  541TIP3    H123114   1.512   4.444   2.902 -0.1056 -0.0236 -0.4828
  541TIP3    H223115   1.629   4.411   2.812 -0.5373  1.2485 -1.5384
  542TIP3   OH223116   4.156   3.959  16.324 -0.2311  0.0999 -0.0235
  542TIP3    H123117   4.193   3.882  16.282 -1.9254 -1.0208  0.4292
  542TIP3    H223118   4.203   4.033  16.285 -0.6028 -0.9756 -2.7364
  543TIP3   OH223119   4.814   4.449   2.272 -0.6027 -0.2286 -0.2145
  543TIP3    H123120   4.908   4.447   2.291 -0.9162  1.1834  1.9506
  543TIP3    H223121   4.806   4.504   2.195  0.2018  3.0702  1.8419
  544TIP3   OH223122   3.688   2.038   3.906 -0.1190  0.4999  0.9502
  544TIP3    H123123   3.735   1.986   3.840 -2.4144 -0.0794 -0.3213
  544TIP3    H223124   3.667   1.975   3.975 -1.0803  0.1782  0.3841
  545TIP3   OH223125   5.624   2.542  13.295  0.2930  0.0611  0.0178
  545TIP3    H123126   5.713   2.525  13.264 -0.0229  0.6119 -1.2703
  545TIP3    H223127   5.625   2.515  13.387  1.2911 -1.6302 -0.4457
  546TIP3   OH223128   4.613   5.125   5.497 -0.1026  0.3048  0.0927
  546TIP3    H123129   4.593   5.114   5.590 -0.3512  2.3556  0.3466
  546TIP3    H223130   4.564   5.056   5.453  2.5717 -2.8738  1.6370
  547TIP3   OH223131   4.345   4.302   0.548  0.0077 -0.2397 -0.2170
  547TIP3    H123132   4.420   4.362   0.542  0.0978 -0.3502 -0.1981
  547TIP3    H223133   4.357   4.258   0.632 -0.7071  0.5843  0.3286
  548TIP3   OH223134   4.720   0.645   0.520 -0.7363 -0.3650  0.5540
  548TIP3    H123135   4.791   0.707   0.540 -1.0668  0.6372 -1.1922
  548TIP3    H223136   4.654   0.698   0.477 -0.8101 -2.0318 -1.5082
  549TIP3   OH223137   4.053   6.739  16.644  0.1057 -0.2340 -0.0787
  549TIP3    H123138   3.994   6.811  16.625  0.5291 -0.0434 -0.6938
  549TIP3    H223139   4.108   6.731  16.566  0.4240 -0.8668  0.1982
  550TIP3   OH223140   3.603   5.611  12.616 -0.2546  0.0230 -0.3383
  550TIP3    H123141   3.518   5.604  12.572  0.6465  0.2485 -2.2505
  550TIP3    H223142   3.660   5.651  12.550  0.7806  2.1416  1.6657
  551TIP3   OH223143   1.901   3.441   3.403  0.5393  0.1987 -0.5097
  551TIP3    H123144   1.887   3.535   3.390  0.5253  0.5395  1.6147
  551TIP3    H223145   1.973   3.436   3.465  0.4086 -1.2068 -0.4470
  552TIP3   OH223146   4.191   1.574  14.512  0.4230 -0.0105  0.2275
  552TIP3    H123147   4.113   1.624  14.490 -0.2716 -1.4717 -0.7601
  552TIP3    H223148   4.162   1.483  14.514  2.4384 -0.8498 -2.2303
  553TIP3   OH223149   1.099   4.321   3.478 -0.0968  0.0272  0.3190
  553TIP3    H123150   1.150   4.402   3.475  0.0918 -0.0826 -2.6881
  553TIP3    H223151   1.008   4.350   3.492  0.2581  0.4898  1.9128
  554TIP3   OH223152   4.712   6.096  12.142 -0.0214 -0.5580 -0.3805
  554TIP3    H123153   4.622   6.130  12.145 -0.3931 -1.5148 -0.1315
  554TIP3    H223154   4.701   6.003  12.123  1.0205 -0.3524 -2.1164
  555TIP3   OH223155   2.639   5.005   2.994 -0.0755 -0.4885  0.2530
  555TIP3    H123156   2.589   5.079   3.027  0.4850  0.2248 -0.4469
  555TIP3    H223157   2.574   4.941   2.967 -0.6124  0.4177 -0.6392
  556TIP3   OH223158   3.788   5.749  14.805 -0.2722  0.0230 -0.0317
  556TIP3    H123159   3.807   5.711  14.890 -0.5030 -2.0581 -0.8613
  556TIP3    H223160   3.701   5.716  14.783 -0.8667  1.7604 -0.4440
  557TIP3   OH223161   2.000   4.069  13.246  0.4911  0.3841 -0.2263
  557TIP3    H123162   2.062   4.027  13.306 -0.4231 -2.4932 -1.1429
  557TIP3    H223163   2.055   4.111  13.180  1.4829 -1.0860 -0.3689
  558TIP3   OH223164   3.812   0.080   5.717 -0.2577  0.1559  0.3722
  558TIP3    H123165   3.745   0.133   5.674  0.7875  1.6199  0.4567
  558TIP3    H223166   3.879   0.068   5.650  0.0535 -0.0487  0.7199
  559TIP3   OH223167   1.882   4.660  13.484  0.6093 -0.6168  0.3206
  559TIP3    H123168   1.940   4.688  13.414  2.9307 -0.5314  2.1778
  559TIP3    H223169   1.854   4.741  13.526  0.4771 -0.7320  0.4577
  560TIP3   OH223170   2.133   5.354  13.246 -0.4210  0.4001  0.0942
  560TIP3    H123171   2.134   5.411  13.169  0.0542 -0.9984 -0.9822
  560TIP3    H223172   2.082   5.402  13.311 -3.1512  0.5509 -1.9741
  561TIP3   OH223173   3.774   1.317  10.803  0.2975 -0.0410  0.0692
  561TIP3    H123174   3.869   1.317  10.809  0.6630 -2.3807 -3.0914
  561TIP3    H223175   3.753   1.393  10.747  0.4576 -0.2976 -0.3438
  562TIP3   OH223176   4.847   6.471   5.457  0.4468  0.0774 -0.5735
  562TIP3    H123177   4.865   6.423   5.538  1.9937 -2.5360 -2.3187
  562TIP3    H223178   4.781   6.419   5.412  2.1993 -0.5840 -2.5545
  563TIP3   OH223179   2.481   4.373   1.913  0.2886  1.0036 -0.6734
  563TIP3    H123180   2.448   4.286   1.936  2.1052  0.7192  1.1345
  563TIP3    H223181   2.465   4.426   1.990  1.2990  1.6422 -0.8813
  564TIP3   OH223182   0.683   6.039  10.347  0.0145  0.2891 -0.4570
  564TIP3    H123183   0.736   6.033  10.268 -0.1789  0.8595 -0.6411
  564TIP3    H223184   0.739   6.085  10.410  0.6482 -1.2848  0.1807
  565TIP3   OH223185   4.816   4.484   4.704  0.2687  0.0894 -0.3525
  565TIP3    H123186   4.855   4.449   4.783 -0.9193 -2.0974 -0.6601
  565TIP3    H223187   4.864   4.443   4.632 -0.6026 -0.2963 -0.7348
  566TIP3   OH223188   6.362   2.256  12.911  0.0788 -0.3177  0.1144
  566TIP3    H123189   6.361   2.182  12.972  0.0141 -0.3351  0.0922
  566TIP3    H223190   6.343   2.218  12.826  3.3274 -0.7889 -0.4966
  567TIP3   OH223191   5.285   6.454  15.845  0.0657  0.4407  0.8665
  567TIP3    H123192   5.325   6.497  15.921 -0.8729  0.9627  1.0854
  567TIP3    H223193   5.253   6.526  15.791 -0.2706  0.0387  0.5261
  568TIP3   OH223194   3.149   3.401   2.278 -0.0644 -0.7081  0.3262
  568TIP3    H123195   3.179   3.315   2.249 -1.0269 -0.4135 -1.7685
  568TIP3    H223196   3.228   3.456   2.273  0.2137 -1.1182  0.0884
  569TIP3   OH223197   6.780   1.918  14.763  0.0690  0.0711  0.3952
  569TIP3    H123198   6.779   1.888  14.673  1.0062 -0.8348  0.6745
  569TIP3    H223199   6.870   1.905  14.792 -0.7747 -2.3384  2.3153
  570TIP3   OH223200   2.778   2.302  14.147 -0.3148  0.6922  0.5504
  570TIP3    H123201   2.818   2.328  14.064  0.8109  0.0480  0.8702
  570TIP3    H223202   2.723   2.227  14.125  0.9733 -0.2917  0.5618
  571TIP3   OH223203   2.481   4.338   4.384  0.1907  0.4572  0.3096
  571TIP3    H123204   2.471   4.381   4.300 -0.1571 -0.2980 -0.0458
  571TIP3    H223205   2.533   4.259   4.366 -0.3186  0.0186  0.6952
  572TIP3   OH223206   2.151   1.297  15.366  0.1310 -0.0010 -0.1647
  572TIP3    H123207   2.239   1.299  15.330 -0.1196  0.0099 -0.7871
  572TIP3    H223208   2.105   1.369  15.322  0.3917  1.3851  1.7016
  573TIP3   OH223209   3.770   4.633   0.485 -0.2276  0.2253 -0.1835
  573TIP3    H123210   3.768   4.655   0.578 -0.5818  2.0397 -0.5732
  573TIP3    H223211   3.863   4.627   0.464 -0.1346  0.3195  0.1923
  574TIP3   OH223212   6.809   3.182  14.803  0.0429  0.0570 -0.2030
  574TIP3    H123213   6.848   3.206  14.888  1.5971  0.9657 -1.1161
  574TIP3    H223214   6.834   3.090  14.791 -1.6524 -0.6256  1.0482
  575TIP3   OH223215   2.855   2.665  15.216 -0.3534 -0.1425 -0.0344
  575TIP3    H123216   2.875   2.649  15.308 -0.7936 -0.6780 -0.0270
  575TIP3    H223217   2.936   2.702  15.180 -0.2951  0.4181  0.6438
  576TIP3   OH223218   4.200   3.462  11.651 -0.0525 -0.0961 -0.1555
  576TIP3    H123219   4.135   3.528  11.627  0.2978  0.3981  0.2381
  576TIP3    H223220   4.211   3.410  11.571 -0.3474  0.3062 -0.4662
  577TIP3   OH223221   3.169   3.580  13.045  0.7222  0.2011  0.0607
  577TIP3    H123222   3.216   3.517  13.100 -2.3005 -0.7344  1.7967
  577TIP3    H223223   3.098   3.612  13.100 -1.6312  0.3418 -2.7973
  578TIP3   OH223224   3.212   0.442  15.948 -0.0818  0.0135  0.6386
  578TIP3    H123225   3.170   0.526  15.964 -0.6550 -0.1533  0.0639
  578TIP3    H223226   3.153   0.397  15.887  0.3766 -0.6733  0.6893
  579TIP3   OH223227   0.810   0.060   5.021 -0.1993 -0.4967 -0.6169
  579TIP3    H123228   0.800   0.082   4.928  0.1014 -2.1611 -1.0798
  579TIP3    H223229   0.896   0.093   5.045  0.6068 -1.8399 -1.5235
  580TIP3   OH223230   0.418   3.411  15.098 -0.5143  0.2801  0.1029
  580TIP3    H123231   0.376   3.381  15.017 -0.1500  1.6851 -0.6493
  580TIP3    H223232   0.378   3.496  15.115 -0.3835  0.1234  1.2674
  581TIP3   OH223233   5.195   1.603   3.125 -0.2711 -0.2149 -0.5255
  581TIP3    H123234   5.162   1.592   3.036 -1.4291 -0.0196 -0.1479
  581TIP3    H223235   5.166   1.691   3.150 -0.7958 -0.6301  0.3723
  582TIP3   OH223236   6.538   1.492  11.202  0.2667 -0.5758  0.2078
  582TIP3    H123237   6.615   1.436  11.216  0.0392 -1.2812 -1.2013
  582TIP3    H223238   6.465   1.431  11.193 -0.2006  0.0144 -0.0759
  583TIP3   OH223239   5.115   1.282   2.872  0.2178  0.3582  0.1745
  583TIP3    H123240   5.111   1.291   2.777  0.6967  1.7040  0.2519
  583TIP3    H223241   5.200   1.319   2.896 -0.6252  1.7296  1.2590
  584TIP3   OH223242   6.661   0.188  10.279 -0.4897 -0.0296  0.5164
  584TIP3    H123243   6.567   0.172  10.272 -0.5587  0.2370  0.8109
  584TIP3    H223244   6.694   0.121  10.339 -0.3107 -0.7833 -0.4093
  585TIP3   OH223245   1.849   4.306  13.865  0.7207  0.4158  0.6415
  585TIP3    H123246   1.878   4.246  13.797 -0.5882  0.3828  0.0710
  585TIP3    H223247   1.857   4.393  13.826  2.0644  0.5859  1.2584
  586TIP3   OH223248   4.404   0.857   2.105 -0.7226 -0.1860 -0.0648
  586TIP3    H123249   4.448   0.826   2.184  0.3565  0.8184 -0.2488
  586TIP3    H223250   4.315   0.821   2.111 -0.3715 -0.9031  1.1221
  587TIP3   OH223251   3.046   0.317  11.755 -0.3065  0.4317  0.4280
  587TIP3    H123252   3.009   0.359  11.677  0.0347  0.0729  0.0704
  587TIP3    H223253   2.975   0.261  11.787 -0.1842 -0.0202 -0.0795
  588TIP3   OH223254   1.719   6.373  11.127  0.0599  0.2317 -0.0221
  588TIP3    H123255   1.653   6.441  11.113  1.0716  1.2011 -0.2405
  588TIP3    H223256   1.779   6.382  11.053  1.1583  0.2544  0.8454
  589TIP3   OH223257   3.323   3.857   3.913 -0.0496 -0.3348 -0.4990
  589TIP3    H123258   3.361   3.885   3.830  0.8110 -1.0209 -0.3487
  589TIP3    H223259   3.398   3.835   3.968 -0.5688  0.7454  0.7028
  590TIP3   OH223260   1.244   5.454   1.034 -0.3134 -0.3241 -0.4202
  590TIP3    H123261   1.294   5.478   0.956 -0.6064 -0.2416 -0.5854
  590TIP3    H223262   1.161   5.500   1.024  0.2190  0.9507  0.7148
  591TIP3   OH223263   3.506   2.051   6.276  0.0379 -0.7918  0.6878
  591TIP3    H123264   3.451   2.002   6.337  2.2616 -2.2208  1.6486
  591TIP3    H223265   3.588   2.067   6.323  0.6803  0.8532 -0.8434
  592TIP3   OH223266   2.545   5.927   5.349  0.7183  0.0234 -0.3552
  592TIP3    H123267   2.478   5.860   5.361  1.7038 -1.0401 -0.6456
  592TIP3    H223268   2.627   5.883   5.369  1.1959  1.9116  2.4712
  593TIP3   OH223269   2.374   2.644  11.391 -0.0988  0.2320 -0.3458
  593TIP3    H123270   2.308   2.598  11.341 -0.0953 -0.9841  0.7232
  593TIP3    H223271   2.330   2.669  11.472  0.1345  1.4054 -0.5673
  594TIP3   OH223272   2.838   4.948  13.770 -0.1298  0.2962 -0.2678
  594TIP3    H123273   2.772   4.889  13.732  0.1334 -0.8800  1.0422
  594TIP3    H223274   2.857   4.911  13.856  1.3517  1.3167 -0.1189
  595TIP3   OH223275   4.532   1.535  15.864  0.7013 -0.1461  0.3285
  595TIP3    H123276   4.543   1.620  15.823  0.4419 -0.3082 -0.0927
  595TIP3    H223277   4.539   1.472  15.791  2.1981 -0.5765  0.8213
  596TIP3   OH223278   4.881   4.148   5.653  0.5485 -0.1225  0.0691
  596TIP3    H123279   4.924   4.103   5.581  0.7569 -0.8232  0.6155
  596TIP3    H223280   4.886   4.086   5.726  2.3318  1.4111  1.3466
  597TIP3   OH223281   1.046   0.277  16.735 -0.3222 -0.0047  0.1271
  597TIP3    H123282   0.959   0.317  16.731 -0.3204  0.1144  0.9686
  597TIP3    H223283   1.029   0.184  16.743 -0.3168 -0.4300 -3.3598
  598TIP3   OH223284   3.752   1.931  12.375  0.1043  0.1002  0.2000
  598TIP3    H123285   3.799   1.850  12.354 -0.5188 -0.0615 -0.6482
  598TIP3    H223286   3.717   1.916  12.462 -1.2441 -1.1743 -0.5062
  599TIP3   OH223287   2.864   2.922  11.053 -0.0476 -0.0269 -0.3359
  599TIP3    H123288   2.872   2.972  10.972 -2.2001  0.0837 -0.5323
  599TIP3    H223289   2.930   2.852  11.044 -0.5083 -0.2658 -2.3792
  600TIP3   OH223290   2.804   3.675  14.715  0.5666 -0.1869 -0.1372
  600TIP3    H123291   2.794   3.746  14.779  0.0731  0.4175 -0.8669
  600TIP3    H223292   2.894   3.645  14.727  0.9244  0.8527 -0.1016
  601TIP3   OH223293   3.863   1.058   3.948 -1.2048 -0.5953 -0.1991
  601TIP3    H123294   3.844   1.152   3.957  0.3605 -0.2857  0.2280
  601TIP3    H223295   3.881   1.029   4.038 -0.4281 -0.9975 -0.4723
  602TIP3   OH223296   4.077   3.812  11.835 -0.7463 -0.5777 -0.1204
  602TIP3    H123297   4.027   3.733  11.813  1.3081 -1.6462 -1.1669
  602TIP3    H223298   4.147   3.781  11.892  0.2721  0.4266 -0.7846
  603TIP3   OH223299   4.168   6.470   4.384  0.3201  0.2830 -0.6554
  603TIP3    H123300   4.127   6.422   4.457  1.9695 -0.0859  0.0649
  603TIP3    H223301   4.147   6.417   4.307  1.2202 -1.1001 -0.0076
  604TIP3   OH223302   4.055   6.845  16.983  0.5355  0.8650  0.1536
  604TIP3    H123303   4.009   6.917  17.026 -1.0300  0.4922 -0.7982
  604TIP3    H223304   4.030   6.853  16.891 -0.7333 -1.6234  0.2072
  605TIP3   OH223305   5.859   6.713  12.929  0.1022 -0.5897  0.1494
  605TIP3    H123306   5.808   6.650  12.980  2.0768 -1.8964  0.6114
  605TIP3    H223307   5.916   6.755  12.993  1.4155 -1.0323 -0.6985
  606TIP3   OH223308   1.798   2.692   1.122  0.5240 -0.6533 -0.2620
  606TIP3    H123309   1.867   2.748   1.159  0.6018 -1.3821  0.7549
  606TIP3    H223310   1.786   2.623   1.187 -0.2068 -1.3145 -1.0666
  607TIP3   OH223311   4.299   2.181   2.764 -0.1389  0.2864 -0.0440
  607TIP3    H123312   4.330   2.144   2.846  0.2502 -0.4359 -0.5070
  607TIP3    H223313   4.242   2.113   2.727  0.1458  0.3704 -0.6451
  608TIP3   OH223314   1.785   6.311  11.425  0.4286  0.0806  0.1145
  608TIP3    H123315   1.867   6.261  11.429  1.0432  0.8786 -1.5662
  608TIP3    H223316   1.789   6.356  11.340 -1.9180 -0.1184 -0.1408
  609TIP3   OH223317   6.769   6.378   6.049  0.5393 -0.2617 -0.0503
  609TIP3    H123318   6.849   6.420   6.018  1.1146 -1.8790 -0.8725
  609TIP3    H223319   6.728   6.443   6.106  2.8959  0.2618  1.1667
  610TIP3   OH223320   2.187   1.612  12.283 -0.1480 -0.2350 -0.0854
  610TIP3    H123321   2.235   1.551  12.339 -0.5345 -0.9996 -0.5604
  610TIP3    H223322   2.112   1.561  12.251  0.5029 -0.1019 -1.9430
  611TIP3   OH223323   4.305   4.763  12.693  0.0355 -0.3574  0.0035
  611TIP3    H123324   4.342   4.844  12.727  1.0429 -0.2133 -1.3682
  611TIP3    H223325   4.277   4.784  12.604 -1.3574 -1.0689  0.2309
  612TIP3   OH223326   3.565   6.561  15.905  0.1902  0.0677 -0.0564
  612TIP3    H123327   3.527   6.481  15.869  1.9845 -0.4791 -0.8899
  612TIP3    H223328   3.534   6.630  15.846 -0.7581 -0.1111  0.2182
  613TIP3   OH223329   3.710   2.978   4.750  0.2800 -0.6564 -0.1170
  613TIP3    H123330   3.765   3.045   4.709  1.8481 -1.5743  0.3899
  613TIP3    H223331   3.772   2.914   4.786 -0.9492 -0.0925  3.4320
  614TIP3   OH223332   1.276   4.066  13.986 -0.2523  0.7670 -0.0776
  614TIP3    H123333   1.245   4.034  13.901 -2.2521 -1.2359  1.2696
  614TIP3    H223334   1.211   4.131  14.012 -0.5107  0.2586  0.5663
  615TIP3   OH223335   5.656   0.566  12.036 -0.0300  0.3173 -0.1928
  615TIP3    H123336   5.736   0.596  12.079  1.5730 -2.7762 -0.7359
  615TIP3    H223337   5.681   0.553  11.944 -1.4285  0.2232 -0.5792
  616TIP3   OH223338   0.557   2.438   0.629  0.1745 -0.2640  0.4151
  616TIP3    H123339   0.527   2.385   0.703 -0.5792  0.6228  0.7542
  616TIP3    H223340   0.647   2.462   0.652  0.8069 -1.9980 -0.0933
  617TIP3   OH223341   2.781   3.187  12.856  0.1803  0.1750  0.1561
  617TIP3    H123342   2.761   3.237  12.935  1.7419  0.4474  0.4011
  617TIP3    H223343   2.699   3.188  12.806 -0.8314 -0.0060  1.7579
  618TIP3   OH223344   2.060   3.659   5.414  0.5922 -0.0867 -0.3899
  618TIP3    H123345   2.110   3.613   5.481 -0.9913  1.2261  1.8472
  618TIP3    H223346   2.126   3.697   5.356  2.1122 -0.0615  1.2821
  619TIP3   OH223347   2.757   2.205  12.923 -0.4930  0.2938  0.3031
  619TIP3    H123348   2.819   2.231  12.855 -0.5923 -1.1364 -0.3544
  619TIP3    H223349   2.694   2.277  12.926 -0.1540  0.6543 -0.6929
  620TIP3   OH223350   6.477   5.006   6.415  0.1309  0.0925  0.3490
  620TIP3    H123351   6.552   5.032   6.360 -0.8270  1.6917 -0.2745
  620TIP3    H223352   6.475   5.072   6.484 -2.7808  2.3514 -1.6522
  621TIP3   OH223353   1.782   0.587   3.559  0.6317  0.1764 -0.0006
  621TIP3    H123354   1.795   0.523   3.629  0.5580  0.0628 -0.0900
  621TIP3    H223355   1.844   0.658   3.579  2.2535 -0.8761 -1.0593
  622TIP3   OH223356   1.348   3.573  16.966 -0.0568 -0.6655 -0.2203
  622TIP3    H123357   1.387   3.644  16.914  0.6625 -0.3926  0.6769
  622TIP3    H223358   1.345   3.607  17.055  0.0106 -1.6487  0.1731
  623TIP3   OH223359   0.514   3.583  12.020 -0.1421 -0.4028 -0.0502
  623TIP3    H123360   0.476   3.499  11.995  1.0868 -0.5018 -1.7023
  623TIP3    H223361   0.477   3.601  12.107 -1.1650 -2.1702 -0.0787
  624TIP3   OH223362   5.959   4.572   3.604  0.3771  0.3843  0.3113
  624TIP3    H123363   5.906   4.652   3.614 -0.5393 -0.1976  0.2772
  624TIP3    H223364   6.034   4.600   3.552  0.5728  1.4360  1.1132
  625TIP3   OH223365   6.227   2.034  11.928 -0.4991  0.1447 -0.4690
  625TIP3    H123366   6.173   2.057  11.853  0.4475 -0.5302 -1.3773
  625TIP3    H223367   6.274   2.114  11.949  1.0267 -0.2383 -2.1450
  626TIP3   OH223368   3.747   0.067  15.348 -0.4968  0.1803 -0.0278
  626TIP3    H123369   3.795   0.081  15.431  0.7408 -0.0352 -0.6776
  626TIP3    H223370   3.755  -0.027  15.332 -0.2269  0.3085 -0.6723
  627TIP3   OH223371   3.181   1.259  13.011 -0.1634  0.2468 -0.1562
  627TIP3    H123372   3.233   1.282  12.934 -0.9354  1.5925 -0.3205
  627TIP3    H223373   3.091   1.274  12.984 -0.4971 -0.0786  0.7481
  628TIP3   OH223374   1.284   4.335  12.968  0.1506 -0.1413 -0.0274
  628TIP3    H123375   1.377   4.324  12.949  0.1854 -0.5866  0.3735
  628TIP3    H223376   1.243   4.254  12.938 -0.4492  0.8912 -2.1765
  629TIP3   OH223377   1.631   3.148  14.880 -0.3563 -0.1297  0.3978
  629TIP3    H123378   1.543   3.170  14.910  0.7930  1.8454  2.6655
  629TIP3    H223379   1.674   3.232  14.867  1.3076 -1.0523 -0.4022
  630TIP3   OH223380   5.911   6.158   2.784  0.3356 -0.0025 -0.2308
  630TIP3    H123381   5.848   6.196   2.845 -0.6195 -0.0847 -1.1543
  630TIP3    H223382   5.974   6.229   2.768  0.5220  0.0681  0.7165
  631TIP3   OH223383   2.840   0.394  12.613  0.1980 -0.2003 -0.3642
  631TIP3    H123384   2.864   0.402  12.521 -1.8623 -1.5410 -1.1034
  631TIP3    H223385   2.856   0.481  12.650  2.1199  0.0550 -1.6842
  632TIP3   OH223386   6.831   4.024   1.129 -0.2037 -0.2509  0.4788
  632TIP3    H123387   6.744   4.062   1.119 -1.4651 -2.5270  1.7891
  632TIP3    H223388   6.860   4.005   1.040 -0.5172  1.5450 -0.0406
  633TIP3   OH223389   3.398   6.304  10.778  0.2343 -0.3851 -0.0295
  633TIP3    H123390   3.416   6.251  10.701 -2.3591  0.3998 -1.2854
  633TIP3    H223391   3.461   6.376  10.774  1.8038 -1.7022  0.0552
  634TIP3   OH223392   6.801   5.042   1.708 -0.4159 -0.3444  0.1964
  634TIP3    H123393   6.710   5.074   1.707 -0.0685  0.7051 -1.2977
  634TIP3    H223394   6.832   5.063   1.796 -1.6261 -0.7723  0.7520
  635TIP3   OH223395   2.214   5.419  14.164  0.6348 -0.6421 -0.5864
  635TIP3    H123396   2.171   5.353  14.109  2.0339 -0.2405 -2.2451
  635TIP3    H223397   2.255   5.369  14.234 -2.6341 -1.0277  1.2566
  636TIP3   OH223398   2.164   5.776  10.222  0.4552 -0.5402  0.1388
  636TIP3    H123399   2.194   5.791  10.133  0.9826  0.5247  0.4724
  636TIP3    H223400   2.115   5.856  10.244 -0.4419 -1.1697  0.4925
  637TIP3   OH223401   1.148   2.615  12.590  0.5216  0.1026 -0.3259
  637TIP3    H123402   1.188   2.683  12.536  0.7739 -0.3650 -0.7381
  637TIP3    H223403   1.209   2.603  12.663 -0.1369  1.1942  0.4341
  638TIP3   OH223404   5.368   2.140  16.067  0.3055 -0.3148  0.6995
  638TIP3    H123405   5.363   2.071  16.134 -0.0156  0.2728  1.2913
  638TIP3    H223406   5.387   2.093  15.986  2.0930 -0.9191  1.4141
  639TIP3   OH223407   6.126   1.763  13.258  0.1857  0.0471 -0.3128
  639TIP3    H123408   6.114   1.670  13.275 -2.9324  0.4803  0.4040
  639TIP3    H223409   6.172   1.796  13.335 -0.7115 -0.5234  0.4821
  640TIP3   OH223410   5.914   3.589   4.629 -0.0055  0.4095 -0.1668
  640TIP3    H123411   5.889   3.516   4.685 -2.6806  0.7703 -0.7736
  640TIP3    H223412   5.995   3.559   4.586  0.2779 -1.1908  1.3639
  641TIP3   OH223413   4.631   0.818   2.728  0.0687  0.2402 -0.4710
  641TIP3    H123414   4.683   0.761   2.786 -0.1279 -0.7197 -1.2255
  641TIP3    H223415   4.627   0.901   2.775 -0.7450 -0.7305  1.2866
  642TIP3   OH223416   6.708   1.610  16.163  0.2259 -0.4712  1.0147
  642TIP3    H123417   6.653   1.661  16.221 -0.5683  0.4778 -0.5111
  642TIP3    H223418   6.744   1.540  16.218 -0.2108  0.5846  2.6848
  643TIP3   OH223419   3.300   6.323   6.452  0.2396 -0.0294 -0.1957
  643TIP3    H123420   3.268   6.313   6.542 -0.5990 -1.2352 -0.6030
  643TIP3    H223421   3.339   6.238   6.430  0.6021  0.3115 -0.9100
  644TIP3   OH223422   2.985   3.428   2.889 -0.8579  0.1748 -0.0939
  644TIP3    H123423   3.024   3.352   2.932 -0.3828  0.7537  0.5264
  644TIP3    H223424   3.041   3.501   2.914 -2.1536  0.9841  0.5781
  645TIP3   OH223425   6.678   2.416   2.732  0.3798 -0.4693 -0.2064
  645TIP3    H123426   6.719   2.407   2.818  0.5388  0.0622 -0.2233
  645TIP3    H223427   6.709   2.341   2.682  2.3935  0.6082 -0.6523
  646TIP3   OH223428   2.506   2.262  11.322  0.5335 -0.5509 -0.1080
  646TIP3    H123429   2.542   2.203  11.388 -0.9861  1.4818  2.7834
  646TIP3    H223430   2.581   2.316  11.295  0.8566 -0.0459  1.6186
  647TIP3   OH223431   4.004   4.311   0.120  0.2280 -0.0627 -0.4834
  647TIP3    H123432   4.031   4.310   0.212 -1.6632 -2.1018  0.1172
  647TIP3    H223433   3.969   4.399   0.106 -0.4026 -0.0483  1.0452
  648TIP3   OH223434   2.123   1.184  16.618  0.3851 -0.6192  0.1608
  648TIP3    H123435   2.077   1.230  16.688  1.6020 -0.8660  1.1548
  648TIP3    H223436   2.055   1.132  16.575 -0.3836 -0.5320  1.2293
  649TIP3   OH223437   2.287   5.304   5.828 -0.3570 -0.1877 -0.1319
  649TIP3    H123438   2.368   5.294   5.878 -0.1181  2.2133  0.1069
  649TIP3    H223439   2.217   5.292   5.893 -0.1631 -0.8267 -0.0359
  650TIP3   OH223440   0.662   6.184   2.526  0.2550 -0.4694 -0.2074
  650TIP3    H123441   0.613   6.119   2.576 -1.4099 -0.2949 -1.4963
  650TIP3    H223442   0.716   6.229   2.590  0.1081 -1.9290  0.9893
  651TIP3   OH223443   5.348   2.874  16.201 -0.5154  0.1334 -0.5182
  651TIP3    H123444   5.346   2.915  16.114 -1.0078  2.6099  0.5581
  651TIP3    H223445   5.377   2.785  16.185 -0.0779  0.6621 -3.1643
  652TIP3   OH223446   4.317   5.877  12.173  0.3227 -0.8242 -0.1608
  652TIP3    H123447   4.275   5.946  12.224 -1.3919 -2.6552  1.0319
  652TIP3    H223448   4.406   5.872  12.209 -0.0357 -0.3061  0.8351
  653TIP3   OH223449   4.803   4.504  13.174  0.0700  0.5463  0.5494
  653TIP3    H123450   4.745   4.526  13.247  1.1698 -0.1349  1.6935
  653TIP3    H223451   4.881   4.557  13.190  1.8897 -2.3222  2.1305
  654TIP3   OH223452   6.788   4.690  11.530  0.0202  0.2644  0.1058
  654TIP3    H123453   6.749   4.645  11.604 -1.6873 -1.3839 -1.6910
  654TIP3    H223454   6.845   4.624  11.489 -0.2805  0.6269 -0.9300
  655TIP3   OH223455   6.735   1.121  14.811 -0.0670 -0.0088 -0.1215
  655TIP3    H123456   6.785   1.154  14.885 -1.8202  1.6756  0.3974
  655TIP3    H223457   6.652   1.091  14.849 -1.0634  1.0295 -1.3699
  656TIP3   OH223458   6.621   6.480  11.416  0.3351  0.4890 -0.2821
  656TIP3    H123459   6.663   6.422  11.479  0.6190  1.4385  0.4274
  656TIP3    H223460   6.539   6.436  11.393  0.2128  0.1323  0.7719
  657TIP3   OH223461   5.963   1.564  11.540 -0.0976 -0.2701  0.4441
  657TIP3    H123462   6.047   1.520  11.529 -0.0577 -0.6230  1.9474
  657TIP3    H223463   5.964   1.636  11.476  2.0768  0.8021  1.5923
  658TIP3   OH223464   1.128   3.883   1.907  0.0458 -0.2078 -0.0402
  658TIP3    H123465   1.080   3.827   1.846 -1.3217  0.7934  0.0717
  658TIP3    H223466   1.091   3.862   1.993  1.5869 -1.2204  0.4286
  659TIP3   OH223467   3.287   0.826   4.001 -0.1007  0.0385 -0.4688
  659TIP3    H123468   3.226   0.856   3.933 -2.0541 -1.3991  0.5517
  659TIP3    H223469   3.263   0.877   4.078 -0.5202 -1.0302  0.1264
  660TIP3   OH223470   5.665   1.426  10.441 -0.3045  0.3448  0.3573
  660TIP3    H123471   5.734   1.475  10.396  0.0166 -1.0870 -0.7691
  660TIP3    H223472   5.587   1.481  10.432  0.2893  1.1774  0.1354
  661TIP3   OH223473   6.580   3.833   5.185 -0.7730 -0.2403  0.4332
  661TIP3    H123474   6.562   3.917   5.143 -1.7360 -0.8166 -0.3442
  661TIP3    H223475   6.607   3.775   5.113  3.4935  0.2683  1.3243
  662TIP3   OH223476   1.390   1.076  16.100 -0.0855 -0.2928 -0.6372
  662TIP3    H123477   1.475   1.033  16.096  0.3817  0.5251  0.1914
  662TIP3    H223478   1.368   1.096  16.009  0.5675 -0.5617 -0.8576
  663TIP3   OH223479   1.720   0.734   1.670 -0.2841 -0.4094 -0.0637
  663TIP3    H123480   1.646   0.719   1.730 -0.3902 -0.6320 -0.2459
  663TIP3    H223481   1.795   0.695   1.714  0.2492  1.8917  1.2434
  664TIP3   OH223482   1.430   5.498  11.296 -0.0822  0.0514  0.3769
  664TIP3    H123483   1.407   5.447  11.218  1.1599 -1.8118  1.1616
  664TIP3    H223484   1.373   5.462  11.364  1.9166 -1.5447  1.3171
  665TIP3   OH223485   0.890   1.403   2.206  0.4062 -0.1496  0.0827
  665TIP3    H123486   0.944   1.381   2.130 -1.7127 -1.4255 -1.1475
  665TIP3    H223487   0.927   1.351   2.278 -0.0626 -2.1644 -1.0789
  666TIP3   OH223488   3.128   3.086  13.175 -0.2425 -0.0904 -0.0728
  666TIP3    H123489   3.067   3.063  13.245 -0.7607 -0.0354 -0.5004
  666TIP3    H223490   3.206   3.033  13.192  0.1177  0.8042  1.2443
  667TIP3   OH223491   3.766   0.553   2.309  0.3375  0.6912  0.1862
  667TIP3    H123492   3.832   0.517   2.369  0.2438  1.2627  0.6505
  667TIP3    H223493   3.691   0.573   2.365 -0.1306  0.3111 -0.2934
  668TIP3   OH223494   6.318   0.098  10.915 -0.0406 -0.1915 -0.4375
  668TIP3    H123495   6.398   0.047  10.916 -0.6929 -1.2611  1.0651
  668TIP3    H223496   6.298   0.110  10.822  0.8544 -1.4971 -0.8252
  669TIP3   OH223497   3.823   4.649  13.694  0.0550 -0.2394  0.3075
  669TIP3    H123498   3.906   4.690  13.718 -0.9852  2.7953 -0.7751
  669TIP3    H223499   3.824   4.646  13.598 -0.5697 -1.4327  0.3116
  670TIP3   OH223500   5.990   5.641  15.999  0.2338 -0.2081 -0.2025
  670TIP3    H123501   6.022   5.573  15.940  0.9929 -1.6923  1.7768
  670TIP3    H223502   5.898   5.653  15.976  0.5256 -0.6554 -1.7076
  671TIP3   OH223503   3.834   1.701   1.734 -0.0961  0.3440  0.0855
  671TIP3    H123504   3.881   1.620   1.753 -1.0489 -0.0232  0.9906
  671TIP3    H223505   3.866   1.763   1.799 -0.4268  0.2615  0.3304
  672TIP3   OH223506   2.273   3.016  16.960  0.1287 -0.0738  0.0309
  672TIP3    H123507   2.213   3.052  16.896 -2.2245  0.0634  2.1514
  672TIP3    H223508   2.341   3.082  16.970 -0.7829  0.9839 -0.5727
  673TIP3   OH223509   3.259   0.033  15.638 -0.7141  0.0397 -0.4681
  673TIP3    H123510   3.236   0.124  15.656 -0.0310  0.3551 -1.1656
  673TIP3    H223511   3.354   0.032  15.630 -0.5436 -1.0365  1.1349
  674TIP3   OH223512   5.510   6.064   5.728 -0.1446 -0.1201 -0.0221
  674TIP3    H123513   5.451   5.992   5.752  3.8431 -3.3473  1.1640
  674TIP3    H223514   5.546   6.093   5.812  1.5079  0.2508 -0.8298
  675TIP3   OH223515   1.444   2.233  10.919 -0.1733  1.0364 -0.1949
  675TIP3    H123516   1.506   2.164  10.896  0.3310  1.2551  0.4810
  675TIP3    H223517   1.475   2.310  10.872 -0.8143  0.7880 -1.0586
  676TIP3   OH223518   4.585   1.792   6.884 -0.7517  0.3603 -0.7848
  676TIP3    H123519   4.555   1.758   6.968  0.6408 -1.5741 -1.0072
  676TIP3    H223520   4.606   1.884   6.902 -1.1013  0.1624  0.8094
  677TIP3   OH223521   2.549   6.705   3.795  0.5519  0.4814 -0.7099
  677TIP3    H123522   2.584   6.617   3.813 -0.7998  0.1374  0.4284
  677TIP3    H223523   2.589   6.761   3.862 -0.2446  0.2785 -0.0384
  678TIP3   OH223524   3.160   4.174  13.718 -0.1236  0.3066  0.1859
  678TIP3    H123525   3.104   4.248  13.696 -1.7702 -0.7349  0.7209
  678TIP3    H223526   3.204   4.201  13.799  0.5726  1.3286 -0.5027
  679TIP3   OH223527   4.869   4.148   5.217 -0.1357 -0.5616 -0.7137
  679TIP3    H123528   4.825   4.224   5.255  2.1394  0.2961  0.3618
  679TIP3    H223529   4.866   4.164   5.122 -0.9537  0.1151 -0.5837
  680TIP3   OH223530   5.963   0.945   4.116  0.1310  0.6890 -0.6812
  680TIP3    H123531   5.933   0.930   4.206 -1.2204  2.5218 -0.7535
  680TIP3    H223532   5.904   0.892   4.062  1.0773 -0.5752 -0.4928
  681TIP3   OH223533   2.923   5.837   3.425  0.0631 -0.1513  0.3570
  681TIP3    H123534   2.962   5.763   3.379 -1.3249 -1.0314  0.5227
  681TIP3    H223535   2.915   5.906   3.358 -0.0682 -0.7095 -0.2125
  682TIP3   OH223536   4.916   5.414  13.662  0.4032 -0.1374 -1.0267
  682TIP3    H123537   4.885   5.332  13.623  0.6503 -0.9473  0.3669
  682TIP3    H223538   4.879   5.413  13.751 -1.0737  2.1639 -1.5317
  683TIP3   OH223539   2.632   5.828  13.647  0.5454 -0.3020 -0.3062
  683TIP3    H123540   2.623   5.745  13.693  1.3395  0.0543  0.5051
  683TIP3    H223541   2.542   5.861  13.639  0.3981 -0.3308  1.0680
  684TIP3   OH223542   1.892   5.763   0.625 -0.2661 -0.3081 -0.6138
  684TIP3    H123543   1.803   5.778   0.592 -1.0142 -3.4679 -0.3739
  684TIP3    H223544   1.922   5.686   0.577  1.5375 -0.5255  0.7746
  685TIP3   OH223545   5.464   2.861  12.304 -0.7597  0.2982 -0.2255
  685TIP3    H123546   5.395   2.829  12.245 -0.7280  0.0573 -0.1348
  685TIP3    H223547   5.546   2.838  12.259 -0.6975 -1.5410  0.7397
  686TIP3   OH223548   1.746   5.606   2.720  0.0085 -0.1563  0.0359
  686TIP3    H123549   1.817   5.668   2.734  0.3138 -0.5416  0.2011
  686TIP3    H223550   1.726   5.614   2.626 -0.7445  1.0278  0.2807
  687TIP3   OH223551   3.951   5.698   0.668 -0.1476 -0.0572  0.4813
  687TIP3    H123552   3.865   5.723   0.633  0.6377  0.1952 -1.3933
  687TIP3    H223553   3.963   5.608   0.637  1.2240  0.6914 -1.3450
  688TIP3   OH223554   0.719   0.092  15.559 -0.2134  0.4658 -0.1692
  688TIP3    H123555   0.792   0.076  15.619 -0.0495 -0.9094 -0.6922
  688TIP3    H223556   0.742   0.041  15.481 -1.4651  0.4708 -0.5565
  689TIP3   OH223557   0.846   4.466  11.206  0.2121 -0.0463 -0.1475
  689TIP3    H123558   0.836   4.449  11.112 -1.4145  1.0186 -0.1931
  689TIP3    H223559   0.887   4.552  11.210  2.0207 -0.8695  0.1478
  690TIP3   OH223560   2.394   6.192  14.436  0.2753 -0.0921 -0.1771
  690TIP3    H123561   2.364   6.279  14.461 -0.3847 -0.0864 -0.9376
  690TIP3    H223562   2.490   6.199  14.437  0.2510  1.1914 -1.9537
  691TIP3   OH223563   2.503   0.351   1.500  0.6471 -0.3846  0.1778
  691TIP3    H123564   2.556   0.425   1.470 -0.7846  1.0206  0.9763
  691TIP3    H223565   2.513   0.352   1.595 -0.3619 -0.4430  0.2902
  692TIP3   OH223566   0.109   5.352   1.267 -0.5202 -0.0207  0.2464
  692TIP3    H123567   0.196   5.316   1.249 -0.7323 -0.5914  0.3482
  692TIP3    H223568   0.124   5.445   1.280  0.0531 -0.0855  0.0771
  693TIP3   OH223569   6.678   1.511   3.779  0.3847  0.3854  0.1910
  693TIP3    H123570   6.588   1.505   3.811 -0.1397 -0.3869 -1.3468
  693TIP3    H223571   6.705   1.600   3.802 -0.9910  0.8401  0.1528
  694TIP3   OH223572   4.709   5.395  14.329 -0.2631  0.0001  0.3542
  694TIP3    H123573   4.715   5.334  14.255 -1.8564 -0.3412  0.4735
  694TIP3    H223574   4.707   5.339  14.407  0.9721  0.3402  0.6590
  695TIP3   OH223575   0.257   4.542   1.156  0.2679  0.1826 -0.2654
  695TIP3    H123576   0.250   4.517   1.064 -0.0912 -1.3853  0.1555
  695TIP3    H223577   0.342   4.508   1.183 -0.1034 -0.3509  0.2531
  696TIP3   OH223578   2.672   4.927  12.924 -0.0675 -0.7303 -0.0173
  696TIP3    H123579   2.615   5.004  12.923  0.8930  0.0019 -0.7986
  696TIP3    H223580   2.660   4.889  13.011 -1.5504 -0.4631 -0.0814
  697TIP3   OH223581   4.684   2.630  13.533 -0.5964 -0.2655  0.0036
  697TIP3    H123582   4.741   2.648  13.459 -1.7456 -1.6228 -1.2898
  697TIP3    H223583   4.703   2.699  13.596 -0.3223  1.5915 -1.9871
  698TIP3   OH223584   0.310   3.939  13.772  0.0930  0.1368  0.0179
  698TIP3    H123585   0.306   3.899  13.685 -1.3362  0.0568  0.1032
  698TIP3    H223586   0.261   4.021  13.763 -1.7203 -0.7675  1.2017
  699TIP3   OH223587   4.245   1.754  16.142 -0.0743  0.2392  0.7383
  699TIP3    H123588   4.334   1.770  16.111  0.1668  0.7947  1.6986
  699TIP3    H223589   4.216   1.678  16.091  1.1358 -0.2804  0.7863
  700TIP3   OH223590   1.434   4.170  16.531 -0.1374  0.2889  0.1855
  700TIP3    H123591   1.526   4.184  16.506  0.2008 -0.8951  0.7154
  700TIP3    H223592   1.393   4.255  16.516  1.2749  1.1654  0.9671
  701TIP3   OH223593   3.059   0.611   4.211  0.1676 -0.1239 -0.2801
  701TIP3    H123594   3.134   0.561   4.179  0.4744 -0.0064  0.2330
  701TIP3    H223595   3.083   0.635   4.301 -0.4747 -0.0581 -0.1196
  702TIP3   OH223596   3.592   3.193   0.476  0.0208 -0.0614 -0.0545
  702TIP3    H123597   3.540   3.231   0.547  0.1832 -2.9272  1.8016
  702TIP3    H223598   3.674   3.167   0.518  0.6099 -0.7788 -1.5640
  703TIP3   OH223599   3.843   2.798  11.668 -0.2479 -0.4114  0.2684
  703TIP3    H123600   3.863   2.849  11.747  0.7159  0.5058 -0.5426
  703TIP3    H223601   3.872   2.853  11.596  0.7187 -2.0578 -0.6586
  704TIP3   OH223602   6.087   4.617   3.189  0.6669  0.3747 -0.4475
  704TIP3    H123603   6.051   4.687   3.135  0.6662  2.3621  1.9523
  704TIP3    H223604   6.021   4.601   3.256  1.3387 -0.8563 -0.0420
  705TIP3   OH223605   2.731   5.652  16.595  0.3230  0.3550  0.3906
  705TIP3    H123606   2.729   5.721  16.661 -0.8683 -0.3161  1.1040
  705TIP3    H223607   2.741   5.571  16.645 -1.9262 -0.2934 -0.0692
  706TIP3   OH223608   3.506   1.001   3.344 -0.5969 -0.1359 -0.4161
  706TIP3    H123609   3.440   1.031   3.281 -0.7405 -2.4348 -1.4458
  706TIP3    H223610   3.525   0.911   3.318  1.5108 -0.1897  1.0819
  707TIP3   OH223611   2.106   2.587   1.638 -0.3656  0.5826 -0.4191
  707TIP3    H123612   2.160   2.518   1.676 -0.2746  0.2715 -1.0953
  707TIP3    H223613   2.030   2.541   1.602 -0.9129  0.9784  0.2194
  708TIP3   OH223614   6.311   0.804  12.060 -0.4020 -0.6877 -0.0980
  708TIP3    H123615   6.320   0.726  12.114  0.1680 -0.0930  0.6957
  708TIP3    H223616   6.400   0.836  12.048 -0.5263 -0.7317 -1.3076
  709TIP3   OH223617   6.645   6.252  15.770  0.1117  0.4404 -0.6954
  709TIP3    H123618   6.677   6.305  15.696  0.4888  1.2863  0.0501
  709TIP3    H223619   6.680   6.296  15.847 -0.3925 -0.3550  0.0001
  710TIP3   OH223620   2.098   4.940   5.842 -0.2779 -0.6130 -0.0214
  710TIP3    H123621   2.117   4.973   5.930  0.5299 -0.3760 -0.2764
  710TIP3    H223622   2.128   4.850   5.843 -1.3416 -0.9814  0.2910
  711TIP3   OH223623   0.107   4.060  14.248  0.2509  0.2150 -0.4656
  711TIP3    H123624   0.105   4.123  14.320 -0.5912 -0.6694  0.3107
  711TIP3    H223625   0.160   4.103  14.180  0.9540  1.1109  0.6178
  712TIP3   OH223626   5.091   5.786  16.887  0.1030  0.5311 -0.3190
  712TIP3    H123627   5.084   5.839  16.967  1.5833 -0.4575  0.5299
  712TIP3    H223628   5.103   5.696  16.919 -0.6799 -0.0993 -1.6944
  713TIP3   OH223629   4.153   2.850  12.710  0.5312  0.1967 -0.7447
  713TIP3    H123630   4.162   2.861  12.805 -1.0231  2.1320 -0.7578
  713TIP3    H223631   4.071   2.804  12.699  0.4333  0.4676 -1.1561
  714TIP3   OH223632   3.423   4.594  12.134  0.1490 -0.3650 -0.1400
  714TIP3    H123633   3.443   4.530  12.202  0.0203 -1.4691 -1.1175
  714TIP3    H223634   3.384   4.543  12.063 -1.1980  0.9747 -0.4282
  715TIP3   OH223635   2.479   5.541   5.287 -0.2327  0.0089 -0.5498
  715TIP3    H123636   2.526   5.461   5.264  0.4631  0.1299  0.4036
  715TIP3    H223637   2.516   5.608   5.229  1.6263  0.3479  0.9220
  716TIP3   OH223638   1.060   1.700  14.615  0.1506  0.4820 -0.0455
  716TIP3    H123639   1.108   1.629  14.573  0.9669  0.8019  0.3250
  716TIP3    H223640   1.033   1.665  14.699 -0.0959  0.3684 -0.1703
  717TIP3   OH223641   1.870   3.714   4.387 -0.0108  0.2287  0.4589
  717TIP3    H123642   1.954   3.742   4.353  0.4500  2.0933  2.8686
  717TIP3    H223643   1.812   3.790   4.375 -0.8493 -0.3922  0.4459
  718TIP3   OH223644   3.562   5.450  14.275 -0.8025  0.0538 -0.6584
  718TIP3    H123645   3.493   5.480  14.333  0.1924 -0.1856  0.6956
  718TIP3    H223646   3.577   5.359  14.300 -0.9071 -0.3128 -1.8532
  719TIP3   OH223647   3.277   3.251   2.618 -0.1300  0.1631 -0.2090
  719TIP3    H123648   3.280   3.197   2.539  1.4416 -1.3169  0.7681
  719TIP3    H223649   3.194   3.229   2.660  1.1223 -2.9811  1.0093
  720TIP3   OH223650   2.454   4.002   3.014  0.1455  0.5418  0.0632
  720TIP3    H123651   2.370   3.974   3.051  0.3787 -1.5133 -0.8317
  720TIP3    H223652   2.433   4.027   2.924  0.6137 -0.9839 -0.4993
  721TIP3   OH223653   0.174   4.226  14.450 -0.2441 -0.3284  0.4711
  721TIP3    H123654   0.222   4.163  14.503  1.8738  1.0162  0.2734
  721TIP3    H223655   0.119   4.274  14.512 -0.2218 -0.9074  0.9435
  722TIP3   OH223656   6.024   5.400  15.161  0.1663 -0.3475 -0.4395
  722TIP3    H123657   6.004   5.307  15.160  0.9384 -0.5291  0.3813
  722TIP3    H223658   5.969   5.437  15.091  0.4654 -1.5305 -1.3355
  723TIP3   OH223659   5.751   3.055  11.308 -0.3740  0.6779 -0.3345
  723TIP3    H123660   5.671   3.097  11.341 -1.4180  0.6495 -2.6834
  723TIP3    H223661   5.813   3.127  11.297 -0.4517  0.8622  0.3783
  724TIP3   OH223662   5.496   2.674   6.194  0.7996 -0.2910  0.4354
  724TIP3    H123663   5.488   2.586   6.231  2.7828 -0.5456  0.3449
  724TIP3    H223664   5.462   2.731   6.263  1.9344 -0.9553  1.5771
  725TIP3   OH223665   1.807   6.435  14.425 -0.4939  0.0987  0.4329
  725TIP3    H123666   1.817   6.379  14.348 -0.0547 -1.3161  1.4899
  725TIP3    H223667   1.716   6.422  14.453 -0.6695  0.6549  0.1462
  726TIP3   OH223668   0.181   5.513   4.310 -0.8437 -0.6134 -0.2661
  726TIP3    H123669   0.152   5.591   4.357  1.4183  0.3274 -0.3116
  726TIP3    H223670   0.175   5.537   4.217  1.2218  0.0789 -0.2505
  727TIP3   OH223671   5.208   0.393  16.857  0.5593  0.1394 -0.4254
  727TIP3    H123672   5.225   0.307  16.895 -1.3608  0.2352  0.7881
  727TIP3    H223673   5.293   0.436  16.856  1.2889 -1.2080  0.4092
  728TIP3   OH223674   2.162   4.417  15.775  0.5592  0.2538 -0.4001
  728TIP3    H123675   2.228   4.357  15.811  0.2540  0.4035  0.4381
  728TIP3    H223676   2.078   4.378  15.799  0.3525  0.6012 -0.5506
  729TIP3   OH223677   6.771   4.401  12.723 -0.5731  0.0756 -0.5537
  729TIP3    H123678   6.676   4.407  12.732 -0.8090 -2.8175 -0.1483
  729TIP3    H223679   6.786   4.319  12.676  1.7400  0.0807  0.0431
  730TIP3   OH223680   0.373   5.965   3.761  0.2985 -0.2090 -0.4125
  730TIP3    H123681   0.320   6.027   3.711 -1.2747 -0.7436  0.5373
  730TIP3    H223682   0.426   6.020   3.819 -1.7207  0.2929  1.0644
  731TIP3   OH223683   3.570   2.970   1.538 -0.5669 -0.3447  0.2035
  731TIP3    H123684   3.476   2.967   1.518 -0.4819  0.5131 -0.3829
  731TIP3    H223685   3.582   3.056   1.578  0.1840  0.1028 -0.9346
  732TIP3   OH223686   2.839   0.407   3.592 -0.4297 -0.1095  0.6075
  732TIP3    H123687   2.910   0.418   3.655  0.8984 -0.3016 -0.8054
  732TIP3    H223688   2.872   0.342   3.530 -1.5795  0.2805 -0.4403
  733TIP3   OH223689   6.432   5.413   2.859  0.1535  0.5313 -0.2950
  733TIP3    H123690   6.436   5.318   2.860 -1.3017  0.4339 -1.4230
  733TIP3    H223691   6.469   5.437   2.774 -0.1837  0.9366 -0.3271
  734TIP3   OH223692   2.750   1.813  17.087  0.9567  0.0723  0.5645
  734TIP3    H123693   2.724   1.761  17.011  0.8755  1.8810 -0.6919
  734TIP3    H223694   2.673   1.812  17.144  0.4569  0.0231 -0.1059
  735TIP3   OH223695   6.303   3.658   1.520  0.0154 -0.1932  0.3299
  735TIP3    H123696   6.327   3.748   1.541 -0.0690 -0.0755 -0.0685
  735TIP3    H223697   6.231   3.666   1.457  0.1570 -0.5340  0.1190
  736TIP3   OH223698   6.055   6.347  13.857  0.7726 -0.1536  0.4655
  736TIP3    H123699   6.020   6.346  13.946  0.1281  0.7526  0.2428
  736TIP3    H223700   6.066   6.440  13.837  0.8899 -0.3461 -0.4034
  737TIP3   OH223701   2.358   6.131   4.576  0.0098  0.9258  0.0181
  737TIP3    H123702   2.264   6.141   4.592  0.1785  1.0892  0.9495
  737TIP3    H223703   2.395   6.108   4.661  0.9131  1.5806 -0.1828
  738TIP3   OH223704   1.810   4.108  14.806 -0.6974  0.4464 -0.1619
  738TIP3    H123705   1.797   4.185  14.861 -0.7052  0.4445 -0.1612
  738TIP3    H223706   1.731   4.104  14.751 -0.7703  0.3467 -0.0510
  739TIP3   OH223707   6.516   6.577   1.641 -0.1597 -0.7373  0.3769
  739TIP3    H123708   6.608   6.602   1.649  0.4958 -3.0819  0.8890
  739TIP3    H223709   6.502   6.570   1.546 -0.2117  0.8424  0.2379
  740TIP3   OH223710   3.205   2.664  13.685  0.2546  0.2806 -0.0517
  740TIP3    H123711   3.256   2.744  13.675 -1.3858  1.5334  0.9372
  740TIP3    H223712   3.190   2.658  13.780 -0.0516 -0.9393 -0.1668
  741TIP3   OH223713   0.795   2.526  16.260 -0.2598  0.1833 -0.0555
  741TIP3    H123714   0.784   2.597  16.196  1.5236 -0.4557 -1.1473
  741TIP3    H223715   0.864   2.558  16.319 -0.1300 -0.2416  0.0243
  742TIP3   OH223716   0.575   3.507   4.706  0.2668  0.1958  0.4847
  742TIP3    H123717   0.592   3.565   4.781  0.4648  0.1773  0.4533
  742TIP3    H223718   0.584   3.563   4.630  0.8922  0.0250  0.4300
  743TIP3   OH223719   6.401   3.824  15.249 -0.4422  0.4210  0.6841
  743TIP3    H123720   6.400   3.806  15.155 -1.6859  1.5864  0.4376
  743TIP3    H223721   6.433   3.743  15.288 -0.3434 -0.2530 -0.7153
  744TIP3   OH223722   4.265   6.212   3.945  0.0008 -0.0568 -0.3798
  744TIP3    H123723   4.303   6.163   4.019 -2.1304 -0.6514  0.3808
  744TIP3    H223724   4.276   6.153   3.870  0.2213 -0.3757 -0.1019
  745TIP3   OH223725   2.356   3.992  11.928  0.1918 -0.4920 -0.5065
  745TIP3    H123726   2.296   3.992  11.852 -0.6941 -1.4634  0.1657
  745TIP3    H223727   2.325   4.064  11.983  0.0745 -0.5578 -0.4865
  746TIP3   OH223728   2.806   3.092  13.615 -0.5432 -0.0895 -0.1417
  746TIP3    H123729   2.856   3.013  13.637  0.6558  0.0758 -2.0315
  746TIP3    H223730   2.827   3.154  13.685 -0.8271 -1.1536  0.9129
  747TIP3   OH223731   2.439   1.326  15.352 -0.1423  0.2588 -0.0233
  747TIP3    H123732   2.492   1.287  15.422 -0.1699  0.4755  0.1189
  747TIP3    H223733   2.432   1.419  15.375 -1.6225  0.0202  0.6425
  748TIP3   OH223734   2.947   6.283  14.394 -0.8788  0.1487 -0.1455
  748TIP3    H123735   3.029   6.270  14.442  0.6784  2.6479 -1.8739
  748TIP3    H223736   2.915   6.368  14.423 -1.5526  0.3048 -1.2685
  749TIP3   OH223737   0.234   0.420  16.047 -0.2444 -0.5049  1.0708
  749TIP3    H123738   0.169   0.469  15.996  3.4850  2.3192 -1.5367
  749TIP3    H223739   0.239   0.467  16.130  0.8887  1.6360 -0.1173
  750TIP3   OH223740   3.858   2.098   1.930 -0.1412  0.0070  0.1006
  750TIP3    H123741   3.804   2.026   1.962 -0.4786  0.0092 -0.4486
  750TIP3    H223742   3.926   2.055   1.878  0.7720 -0.0447  1.2768
  751TIP3   OH223743   3.178   4.632  16.124 -0.3102  0.3388  0.1653
  751TIP3    H123744   3.257   4.663  16.080 -0.8258  0.9524 -0.3473
  751TIP3    H223745   3.154   4.552  16.077 -0.4429  0.5863 -0.1852
  752TIP3   OH223746   4.278   1.976  11.879  0.0193  0.1995  0.0021
  752TIP3    H123747   4.204   2.019  11.922  0.9247  1.1438  0.6712
  752TIP3    H223748   4.257   1.979  11.786 -1.1254 -0.2167  0.2371
  753TIP3   OH223749   6.190   1.968   3.701  0.0342  0.4264  0.2508
  753TIP3    H123750   6.254   1.908   3.740 -0.0436  0.3902  0.3210
  753TIP3    H223751   6.244   2.033   3.654  0.1412  0.6961  0.7453
  754TIP3   OH223752   5.422   1.483  15.471  0.1480 -0.5370 -0.3229
  754TIP3    H123753   5.448   1.522  15.388  0.1644 -0.0617 -0.0951
  754TIP3    H223754   5.335   1.518  15.488  0.2038 -0.5199 -0.0655
  755TIP3   OH223755   4.673   2.490   2.538 -0.1999 -0.5681  0.2246
  755TIP3    H123756   4.659   2.418   2.477 -0.5120  1.9537 -2.9724
  755TIP3    H223757   4.764   2.481   2.566 -0.0991 -1.9277 -0.4754
  756TIP3   OH223758   2.924   0.763   0.624  0.0702 -0.7696  0.0756
  756TIP3    H123759   3.007   0.731   0.587 -0.5149 -0.9434 -1.1309
  756TIP3    H223760   2.940   0.856   0.639  0.1713 -0.5725 -1.1277
  757TIP3   OH223761   1.258   1.644  10.833 -1.1507 -0.4193  0.5131
  757TIP3    H123762   1.285   1.591  10.909  2.5610 -0.1212 -0.4108
  757TIP3    H223763   1.224   1.725  10.871 -0.8255 -0.8879  1.8688
  758TIP3   OH223764   3.476   1.599   1.417  0.3807 -0.1787 -0.5133
  758TIP3    H123765   3.546   1.654   1.382  2.0523 -2.8109 -1.6210
  758TIP3    H223766   3.501   1.583   1.508  0.7738 -0.4014 -0.6572
  759TIP3   OH223767   3.678   5.466   1.298 -0.4748 -0.5356  0.1858
  759TIP3    H123768   3.755   5.509   1.334 -1.0440  0.7058 -0.0216
  759TIP3    H223769   3.702   5.374   1.292  0.9829 -0.1746  0.1474
  760TIP3   OH223770   1.202   1.228   1.537 -0.3663  0.0589  0.2546
  760TIP3    H123771   1.181   1.296   1.473 -0.0327  0.1626  0.2529
  760TIP3    H223772   1.220   1.276   1.618  3.4126  0.3370 -0.5586
  761TIP3   OH223773   3.510   3.698  16.252 -0.6305 -0.5922 -0.2483
  761TIP3    H123774   3.531   3.693  16.158 -0.6673 -0.2611 -0.2772
  761TIP3    H223775   3.462   3.618  16.271 -1.2869 -0.3105 -0.6809
  762TIP3   OH223776   5.130   4.550  12.531 -0.0792 -0.6844 -0.7081
  762TIP3    H123777   5.168   4.612  12.593  0.0876  0.2692 -1.7537
  762TIP3    H223778   5.134   4.594  12.447  0.2158 -2.1920 -1.5146
  763TIP3   OH223779   3.018   3.957   3.887 -0.3511  0.2947 -0.3732
  763TIP3    H123780   2.958   3.889   3.856 -1.0344  0.7984 -0.1935
  763TIP3    H223781   3.008   3.955   3.983 -0.7058  0.9258 -0.3883
  764TIP3   OH223782   3.483   0.085   4.411  0.3559  0.3037 -0.0884
  764TIP3    H123783   3.507   0.136   4.333  2.3381  0.6425  0.6781
  764TIP3    H223784   3.561   0.032   4.429 -1.1672 -2.1025 -0.0926
  765TIP3   OH223785   1.324   2.657   3.365 -0.0134 -0.1493 -0.0543
  765TIP3    H123786   1.270   2.578   3.370  0.6273 -0.6476 -0.9137
  765TIP3    H223787   1.410   2.627   3.337  0.1865  0.8758 -0.5916
  766TIP3   OH223788   1.113   6.591  11.862  0.3542  0.1877 -0.2716
  766TIP3    H123789   1.207   6.583  11.843  0.2738  1.1662 -1.1571
  766TIP3    H223790   1.092   6.682  11.844 -1.0074 -0.2701 -1.1794
  767TIP3   OH223791   3.959   3.035  15.641  0.4234 -0.2658 -0.5927
  767TIP3    H123792   3.976   3.082  15.560  0.6349  0.8601  0.0760
  767TIP3    H223793   3.971   3.101  15.710 -1.8239 -0.6389  0.2486
  768TIP3   OH223794   0.905   6.797   3.738 -0.3194 -0.4523 -0.2140
  768TIP3    H123795   0.928   6.758   3.654 -0.6935 -1.3337  0.0728
  768TIP3    H223796   0.844   6.734   3.777 -2.2646  1.2109 -0.4225
  769TIP3   OH223797   5.681   2.345  11.699 -0.1958  0.1935 -0.0230
  769TIP3    H123798   5.771   2.344  11.731  1.3523 -0.8352 -3.8743
  769TIP3    H223799   5.659   2.438  11.693  1.6582  0.6022 -1.4370
  770TIP3   OH223800   5.829   0.496  14.561  0.2716 -0.4849  0.3442
  770TIP3    H123801   5.767   0.448  14.617  1.0354 -0.9318  0.8231
  770TIP3    H223802   5.903   0.436  14.550  0.8442  0.2340  0.1973
  771TIP3   OH223803   3.033   2.152  16.210 -0.0287 -0.2652 -0.3907
  771TIP3    H123804   3.050   2.242  16.183 -0.7084 -0.1655 -0.5046
  771TIP3    H223805   2.990   2.160  16.296 -1.5709 -0.3860 -1.1113
  772TIP3   OH223806   5.652   0.154  11.871 -0.5600 -0.9089  0.1150
  772TIP3    H123807   5.744   0.131  11.885 -0.1737  1.2505  1.9311
  772TIP3    H223808   5.606   0.114  11.944 -0.2689  1.5625  1.8017
  773TIP3   OH223809   5.075   3.159   0.162 -0.1430 -0.1528 -0.0649
  773TIP3    H123810   5.026   3.207   0.230 -1.0471 -0.6509 -0.3414
  773TIP3    H223811   5.166   3.164   0.191 -0.4340  0.1904  0.8574
  774TIP3   OH223812   3.632   2.414  12.086 -0.6442  0.3439 -0.1704
  774TIP3    H123813   3.651   2.339  12.030 -1.1361  1.0483 -1.3250
  774TIP3    H223814   3.659   2.490  12.034  0.8832  0.9589  1.3828
  775TIP3   OH223815   2.522   5.694  14.716 -0.1377  0.4639 -0.3200
  775TIP3    H123816   2.571   5.622  14.677 -4.9752 -2.6950 -1.5795
  775TIP3    H223817   2.481   5.738  14.641 -1.4486  1.0348  0.6938
  776TIP3   OH223818   0.138   4.777   1.831 -0.1274  0.7109  0.0788
  776TIP3    H123819   0.130   4.716   1.905  0.0404 -1.4346 -1.5734
  776TIP3    H223820   0.073   4.845   1.849 -0.8833 -0.3487  1.6308
  777TIP3   OH223821   1.668   3.158  15.955  0.3127  0.9201  0.1522
  777TIP3    H123822   1.701   3.104  15.883  1.7025  0.8403  0.8214
  777TIP3    H223823   1.732   3.145  16.025 -0.8001  1.3174  1.2623
  778TIP3   OH223824   4.233   3.500   1.416 -0.0317 -0.4527  0.5200
  778TIP3    H123825   4.196   3.499   1.504 -0.6316  1.0502  0.3031
  778TIP3    H223826   4.263   3.589   1.403  0.0127 -0.6409 -0.8153
  779TIP3   OH223827   5.125   5.690  12.538  0.3246 -0.5136 -0.1698
  779TIP3    H123828   5.038   5.688  12.498  0.1781  0.3218  0.0713
  779TIP3    H223829   5.176   5.749  12.481  0.9298 -1.5056 -0.6758
  780TIP3   OH223830   0.531   1.042  13.030  0.2323 -0.0273  0.6421
  780TIP3    H123831   0.604   1.013  12.975  1.4772 -0.1246  2.2683
  780TIP3    H223832   0.571   1.102  13.093 -0.7492 -1.2707  2.5564
  781TIP3   OH223833   0.290   4.927   3.862 -0.3096  0.3736  0.3295
  781TIP3    H123834   0.233   4.997   3.830  0.4207  0.5609 -0.6164
  781TIP3    H223835   0.308   4.951   3.953 -1.7144  0.3111  0.6415
  782TIP3   OH223836   1.066   3.714  13.939 -0.3584 -0.0980 -0.0399
  782TIP3    H123837   1.084   3.623  13.916 -0.2391 -0.1742  0.3383
  782TIP3    H223838   1.011   3.708  14.017  1.1114  0.1591  1.0566
  783TIP3   OH223839   0.780   0.433   1.204  0.1924 -0.1302  0.0833
  783TIP3    H123840   0.795   0.371   1.132 -2.1296 -0.6263 -0.0497
  783TIP3    H223841   0.688   0.458   1.195  0.1431  0.6320  2.2497
  784TIP3   OH223842   2.180   2.435  13.307 -0.3760 -0.8339  0.2817
  784TIP3    H123843   2.175   2.465  13.216 -2.3650 -2.6468 -0.3002
  784TIP3    H223844   2.167   2.340  13.301  0.5799 -1.1573  2.3917
  785TIP3   OH223845   2.028   5.477   0.042  0.5369 -0.5024  0.0263
  785TIP3    H123846   2.076   5.410   0.091 -1.8526 -1.1067  1.6940
  785TIP3    H223847   1.964   5.429  -0.009 -0.0202  0.4071 -0.1542
  786TIP3   OH223848   5.559   3.105  14.979  0.1429  0.7553 -0.4525
  786TIP3    H123849   5.632   3.148  15.022 -0.0082  0.5215  0.0437
  786TIP3    H223850   5.585   3.100  14.887  0.0064  2.2287 -0.5895
  787TIP3   OH223851   1.800   0.654  12.075 -0.0549 -0.2993  0.0470
  787TIP3    H123852   1.731   0.652  12.141 -0.0331  0.5783  0.1012
  787TIP3    H223853   1.880   0.676  12.124  0.4137 -1.9198  0.0937
  788TIP3   OH223854   5.674   2.109   3.954  0.8064 -0.8521 -0.0907
  788TIP3    H123855   5.609   2.076   3.892  0.4751  0.1222 -0.2750
  788TIP3    H223856   5.750   2.132   3.899  1.6329 -2.7103  0.2050
  789TIP3   OH223857   1.667   1.745   5.396  0.7253  0.4426 -0.2649
  789TIP3    H123858   1.721   1.807   5.347 -1.9325  1.2546 -2.4576
  789TIP3    H223859   1.578   1.761   5.365 -0.6619 -1.6734  2.1697
  790TIP3   OH223860   1.318   6.089   5.614 -0.0141 -0.7782  0.0442
  790TIP3    H123861   1.271   6.125   5.689  1.7193 -0.5937  1.1049
  790TIP3    H223862   1.335   5.998   5.639  3.5288  0.1150  1.5406
  791TIP3   OH223863   3.293   2.919   1.925 -0.0011  0.3141  0.2688
  791TIP3    H123864   3.216   2.972   1.904  0.7161  1.5789  0.7526
  791TIP3    H223865   3.356   2.980   1.963  0.6211 -0.9884  1.4809
  792TIP3   OH223866   4.325   6.617   0.113 -0.2751 -0.2202 -0.2703
  792TIP3    H123867   4.397   6.675   0.137  0.3092 -1.0472  0.0058
  792TIP3    H223868   4.363   6.555   0.052 -0.8269 -0.4905 -0.3424
  793TIP3   OH223869   0.603   2.573  16.906  0.2046  0.3451  0.0615
  793TIP3    H123870   0.616   2.500  16.845  1.4307  0.8795 -0.3533
  793TIP3    H223871   0.593   2.531  16.991  2.5813 -0.3008  0.0929
  794TIP3   OH223872   0.252   5.360  16.156 -0.3894  0.3622 -0.5143
  794TIP3    H123873   0.193   5.342  16.084  0.2256 -0.5900 -0.7913
  794TIP3    H223874   0.322   5.295  16.148 -0.3277  0.2114  0.9615
  795TIP3   OH223875   3.859   0.521   5.267  0.1674 -0.1355  0.4425
  795TIP3    H123876   3.875   0.501   5.175  1.2923 -0.6436  0.7447
  795TIP3    H223877   3.786   0.464   5.292 -0.9798  0.8897 -0.4437
  796TIP3   OH223878   4.090   0.657   1.777 -0.3775  0.4627 -0.7850
  796TIP3    H123879   4.142   0.686   1.703 -2.2618  2.3316 -1.4872
  796TIP3    H223880   4.110   0.720   1.847 -1.3721  0.9724 -0.9435
  797TIP3   OH223881   2.136   3.475  12.249 -0.3982  0.4822 -0.2925
  797TIP3    H123882   2.062   3.420  12.221  0.3251 -0.7012  0.0445
  797TIP3    H223883   2.165   3.519  12.169  0.2023 -1.1079 -0.9839
  798TIP3   OH223884   5.355   0.667   3.746 -0.4566  0.3291  0.6943
  798TIP3    H123885   5.409   0.658   3.668  1.2387  1.9643  1.5865
  798TIP3    H223886   5.276   0.713   3.717  0.8753  2.4197  0.1553
  799TIP3   OH223887   5.586   5.673   3.937 -0.7686  0.7688  0.0726
  799TIP3    H123888   5.548   5.750   3.980 -1.8744 -0.1263  0.7604
  799TIP3    H223889   5.610   5.615   4.008  0.8112  0.7849 -0.4159
  800TIP3   OH223890   3.259   1.987   3.813  0.3028  0.1631 -0.0160
  800TIP3    H123891   3.319   2.021   3.747  1.2897 -3.0123 -0.9359
  800TIP3    H223892   3.198   1.932   3.764 -3.5097  3.1242  0.9050
  801TIP3   OH223893   5.863   2.904  14.937  0.6344 -0.0330 -0.2103
  801TIP3    H123894   5.873   2.995  14.908  0.9924  0.5629  1.6444
  801TIP3    H223895   5.936   2.890  14.997  0.2136 -1.3552  0.0246
  802TIP3   OH223896   6.411   2.608  15.780 -0.9647 -0.5585 -0.6131
  802TIP3    H123897   6.383   2.528  15.824 -1.8090 -0.7512 -1.4448
  802TIP3    H223898   6.329   2.656  15.765 -0.4071  0.7862  0.4644
  803TIP3   OH223899   4.416   6.424   2.877  0.3925 -0.4145 -0.6145
  803TIP3    H123900   4.464   6.507   2.881  0.7690 -0.6526 -0.1146
  803TIP3    H223901   4.346   6.434   2.942 -0.8387  0.2927 -1.9884
  804TIP3   OH223902   4.363   2.297   3.330  0.2121 -0.4953  0.5883
  804TIP3    H123903   4.339   2.222   3.275  0.7620 -0.0781 -0.2498
  804TIP3    H223904   4.280   2.334   3.358 -0.1009 -0.2836 -0.5857
  805TIP3   OH223905   3.245   4.372  12.844  0.1610 -0.7444  0.1980
  805TIP3    H123906   3.286   4.438  12.788  1.5509 -1.1113  0.7456
  805TIP3    H223907   3.229   4.417  12.926 -1.3449 -0.3717 -0.2669
  806TIP3   OH223908   6.450   0.122  13.696 -0.2244  0.3908 -0.0457
  806TIP3    H123909   6.384   0.168  13.644 -1.2615 -0.8023  0.1619
  806TIP3    H223910   6.533   0.146  13.655 -1.0081 -0.7298 -2.5172
  807TIP3   OH223911   1.210   4.299  13.471 -0.5681 -0.0266 -0.1897
  807TIP3    H123912   1.216   4.306  13.376 -0.1881 -0.5950 -0.2084
  807TIP3    H223913   1.297   4.273  13.500 -0.2407  1.6508  0.4743
  808TIP3   OH223914   3.153   1.395  10.928 -0.4074 -0.4773  0.0545
  808TIP3    H123915   3.171   1.313  10.882  0.2302 -0.2341 -0.1381
  808TIP3    H223916   3.203   1.389  11.009 -0.8955 -0.5578  0.3605
  809TIP3   OH223917   4.081   0.656  13.086  0.2878  0.2682 -0.0961
  809TIP3    H123918   4.167   0.620  13.062  0.5489  0.0260  1.1446
  809TIP3    H223919   4.024   0.580  13.091  0.4963  0.1803  1.1003
  810TIP3   OH223920   3.401   1.232   1.395  0.1701 -0.3672  0.2014
  810TIP3    H123921   3.495   1.245   1.384 -0.0086 -0.4777 -1.9317
  810TIP3    H223922   3.376   1.178   1.320 -1.6075 -0.2313  0.6652
  811TIP3   OH223923   4.227   0.264  14.937 -0.1760  0.0579 -0.2282
  811TIP3    H123924   4.265   0.351  14.923  0.2251  0.1534  1.2701
  811TIP3    H223925   4.298   0.204  14.914  0.0171  0.1706  0.0637
  812TIP3   OH223926   0.998   5.315   1.476  0.0710  0.4670 -0.2230
  812TIP3    H123927   1.032   5.362   1.552  0.7856  1.8434 -1.3571
  812TIP3    H223928   1.075   5.274   1.437  0.3046  2.4314 -2.0007
  813TIP3   OH223929   5.831   1.141  12.617 -0.2056 -0.7482  0.1316
  813TIP3    H123930   5.862   1.224  12.581  1.6580 -1.7801 -0.7708
  813TIP3    H223931   5.906   1.105  12.663 -0.8120 -2.1772  0.0602
  814TIP3   OH223932   4.090   2.309  16.551 -0.0615  0.4564 -0.7089
  814TIP3    H123933   4.129   2.299  16.464 -1.2793 -0.7763 -1.1527
  814TIP3    H223934   4.153   2.361  16.600  2.1943 -1.5756 -1.3120
  815TIP3   OH223935   4.842   0.934  12.514 -0.1700 -0.0208  0.5478
  815TIP3    H123936   4.849   1.027  12.494 -0.6954 -0.0906  0.0006
  815TIP3    H223937   4.932   0.901  12.509  0.1734  0.6572  1.8335
  816TIP3   OH223938   6.563   3.399  12.805  0.1967  0.1687  0.5256
  816TIP3    H123939   6.500   3.416  12.734 -1.0612 -1.5509  1.1564
  816TIP3    H223940   6.613   3.323  12.775 -0.9052 -1.1099  1.7504
  817TIP3   OH223941   0.494   6.094  12.863  0.2828  0.2131  0.2326
  817TIP3    H123942   0.582   6.084  12.900 -0.1637  0.5238  1.4100
  817TIP3    H223943   0.509   6.104  12.769  1.3864 -1.5771  0.1630
  818TIP3   OH223944   3.280   4.488   2.122  0.4180  0.0299  0.1788
  818TIP3    H123945   3.321   4.426   2.182  1.1297  0.1801 -0.1406
  818TIP3    H223946   3.186   4.475   2.135  0.5547  0.0384  1.2954
  819TIP3   OH223947   4.021   1.070  12.826  0.1658  0.3292  0.3539
  819TIP3    H123948   4.061   1.034  12.905 -0.4531  0.4579  0.7340
  819TIP3    H223949   4.092   1.070  12.761  0.8677  0.8542  1.0939
  820TIP3   OH223950   2.743   1.616   3.208 -0.2110  0.1693 -0.7285
  820TIP3    H123951   2.672   1.561   3.241  1.1357 -1.4351 -0.3708
  820TIP3    H223952   2.752   1.684   3.274  1.8552 -2.4810  2.0198
  821TIP3   OH223953   1.051   3.663  16.043  0.0065  0.8041  0.1840
  821TIP3    H123954   1.053   3.636  15.951  0.9732 -1.4799  0.8137
  821TIP3    H223955   1.142   3.660  16.071 -0.0449  3.1463  0.8309
  822TIP3   OH223956   0.387   2.462   4.302  0.2013  0.1878  0.0434
  822TIP3    H123957   0.330   2.485   4.228 -0.3105  1.3327  0.7751
  822TIP3    H223958   0.363   2.372   4.323 -1.7542  0.8042  0.6712
  823TIP3   OH223959   2.535   1.752   0.166 -0.2577 -0.4900  0.9029
  823TIP3    H123960   2.564   1.745   0.257  1.6801 -1.8383  0.2569
  823TIP3    H223961   2.524   1.661   0.138 -0.8192 -0.0961 -0.2229
  824TIP3   OH223962   6.796   6.020  11.424  0.4265 -0.0844  0.1138
  824TIP3    H123963   6.874   6.069  11.397 -0.4726  0.1937 -2.1856
  824TIP3    H223964   6.831   5.938  11.459  1.7582  0.1992 -0.4848
  825TIP3   OH223965   3.925   2.595   0.383 -0.3106  0.2442 -0.8630
  825TIP3    H123966   4.015   2.570   0.363 -0.4098  0.6046 -1.8138
  825TIP3    H223967   3.881   2.597   0.298 -1.7406 -1.8700 -0.2483
  826TIP3   OH223968   2.920   3.765  12.853  0.2083  0.1547 -0.1993
  826TIP3    H123969   2.992   3.796  12.907 -1.8204  0.9264  2.2398
  826TIP3    H223970   2.899   3.678  12.888 -0.7218  0.4000 -0.1008
  827TIP3   OH223971   2.914   0.028   3.819  0.1801 -0.2809  0.3238
  827TIP3    H123972   2.925   0.084   3.896  2.1584  0.1032 -0.1837
  827TIP3    H223973   2.935  -0.060   3.850 -0.4948 -0.3654  0.5527
  828TIP3   OH223974   6.495   2.856   1.928 -0.3515  0.4072  0.1582
  828TIP3    H123975   6.585   2.839   1.898 -0.7781  1.4007 -1.8596
  828TIP3    H223976   6.464   2.772   1.960 -0.0362 -1.0184 -2.8896
  829TIP3   OH223977   2.961   3.981   1.748  0.0817 -0.6062  0.2752
  829TIP3    H123978   2.980   3.922   1.675  0.2630 -2.2235  1.5542
  829TIP3    H223979   2.887   4.033   1.719  0.7835 -0.4860 -1.4283
  830TIP3   OH223980   5.393   3.279   2.935 -0.0285 -0.0570 -0.0072
  830TIP3    H123981   5.389   3.184   2.932  0.2015 -0.0446 -1.4302
  830TIP3    H223982   5.346   3.308   2.857 -0.8684  1.0368  0.8568
  831TIP3   OH223983   0.022   5.910   6.297 -0.1160  0.0424 -0.2524
  831TIP3    H123984   0.087   5.844   6.272  0.7987  1.2724 -1.3288
  831TIP3    H223985   0.072   5.993   6.296 -0.5293  0.5188  3.6455
  832TIP3   OH223986   6.542   5.698  16.125  0.1711  0.2114 -0.0962
  832TIP3    H123987   6.518   5.607  16.144  2.0487  0.0015  1.6319
  832TIP3    H223988   6.479   5.726  16.059 -0.3945 -2.3802 -0.7890
  833TIP3   OH223989   2.348   6.682   2.959 -0.0882  0.7935  0.4064
  833TIP3    H123990   2.278   6.729   3.005 -0.0354  2.3795 -1.0254
  833TIP3    H223991   2.414   6.665   3.027 -0.1255  2.8080  1.0117
  834TIP3   OH223992   1.633   2.334   3.894  0.1902 -0.5664 -0.6575
  834TIP3    H123993   1.678   2.400   3.843 -0.6789  1.1362  0.6742
  834TIP3    H223994   1.547   2.326   3.853  0.3647 -1.0609 -0.9431
  835TIP3   OH223995   1.286   0.417   5.569 -0.3914  0.0638  0.2867
  835TIP3    H123996   1.354   0.480   5.593  0.5550 -0.8027 -0.0064
  835TIP3    H223997   1.236   0.404   5.649 -0.9826  1.6120  0.2025
  836TIP3   OH223998   4.156   3.020  12.972  0.2954 -0.3479 -0.4160
  836TIP3    H123999   4.164   3.107  13.013  0.3771 -1.3208  1.7819
  836TIP3    H224000   4.070   2.989  13.001  0.7399 -1.4370 -0.2385
  837TIP3   OH224001   5.199   5.544   2.449 -0.2283  0.0679  0.2760
  837TIP3    H124002   5.201   5.636   2.423 -1.6559  0.0733  0.0847
  837TIP3    H224003   5.142   5.543   2.526  0.1010 -0.5973  0.5139
  838TIP3   OH224004   5.266   3.471  14.643 -0.1769  0.4598  0.1123
  838TIP3    H124005   5.241   3.492  14.553 -0.7511  1.6970  0.5346
  838TIP3    H224006   5.183   3.456  14.688  0.1683 -2.1365  0.0303
  839TIP3   OH224007   2.385   6.300  14.042  0.4653  0.2160 -0.0211
  839TIP3    H124008   2.329   6.356  14.095  0.1976 -0.6256  0.6044
  839TIP3    H224009   2.473   6.313  14.078  0.2048 -0.7770  1.0313
  840TIP3   OH224010   0.899   3.232   1.938  0.3161 -0.6280  0.0605
  840TIP3    H124011   0.888   3.137   1.931 -0.1596 -0.5078 -1.0617
  840TIP3    H224012   0.816   3.263   1.975 -0.0489 -0.5244 -0.8292
  841TIP3   OH224013   5.099   2.274  15.787 -0.0388 -0.9154 -0.3571
  841TIP3    H124014   5.081   2.333  15.714 -1.1657 -0.8401 -0.0290
  841TIP3    H224015   5.032   2.206  15.780 -0.9932 -0.2081  1.3394
  842TIP3   OH224016   6.443   0.361   0.156  0.0384  0.1141  0.6647
  842TIP3    H124017   6.407   0.276   0.179 -0.7313  0.7074  1.7668
  842TIP3    H224018   6.371   0.405   0.109  0.7807 -0.2083 -0.8094
  843TIP3   OH224019   1.651   2.048   3.995  0.5326 -0.3611  0.2035
  843TIP3    H124020   1.602   2.109   3.939  0.3623 -0.7508 -0.0775
  843TIP3    H224021   1.655   2.092   4.080  1.6741  0.7065 -0.3701
  844TIP3   OH224022   2.763   3.491  16.900 -0.4549  0.3679 -0.4243
  844TIP3    H124023   2.799   3.408  16.867  0.8786  0.6536  0.2522
  844TIP3    H224024   2.807   3.558  16.849 -3.2424  0.7046 -2.6632
  845TIP3   OH224025   2.260   0.308  11.343  0.0820 -0.5225 -0.0619
  845TIP3    H124026   2.184   0.250  11.348 -0.3161  0.0751  1.5144
  845TIP3    H224027   2.224   0.392  11.314  0.4056 -0.6455 -0.8385
  846TIP3   OH224028   4.019   6.757  11.343 -0.1036 -0.1356 -0.0067
  846TIP3    H124029   4.064   6.741  11.260  0.0470  1.0476 -0.1656
  846TIP3    H224030   3.931   6.721  11.331  0.8770 -2.9669  0.4779
  847TIP3   OH224031   1.951   1.651   3.350  0.0538 -0.5283 -0.1022
  847TIP3    H124032   2.034   1.680   3.310  0.6738 -0.3423  1.2635
  847TIP3    H224033   1.913   1.731   3.386  1.4753 -1.1234  3.1485
  848TIP3   OH224034   6.636   5.369   4.311 -0.2063 -0.1395  0.3834
  848TIP3    H124035   6.612   5.448   4.263  0.0419  0.3820  1.0945
  848TIP3    H224036   6.706   5.330   4.259 -0.5944 -0.1080 -0.1744
  849TIP3   OH224037   0.993   4.024   2.607 -0.1372  0.2860  0.0543
  849TIP3    H124038   1.016   4.115   2.622 -1.4495  0.8096 -0.8934
  849TIP3    H224039   0.905   4.014   2.644 -0.8641 -0.0068 -1.6272
  850TIP3   OH224040   2.296   4.593   3.154  0.1910  0.4925 -0.1697
  850TIP3    H124041   2.279   4.683   3.124 -0.1432  1.0725  1.6296
  850TIP3    H224042   2.232   4.540   3.107 -1.0998  1.5143  0.3643
  851TIP3   OH224043   0.261   2.988   6.259  0.1474 -0.1919  0.3152
  851TIP3    H124044   0.344   2.983   6.307  0.2259 -0.3431  0.1671
  851TIP3    H224045   0.224   2.900   6.266  0.4183 -0.3655 -0.3567
  852TIP3   OH224046   0.445   4.108  14.832  0.2438 -0.3945  0.3367
  852TIP3    H124047   0.465   4.155  14.913 -0.0644  1.7775 -0.7560
  852TIP3    H224048   0.525   4.061  14.811  2.4262  3.4114 -0.8784
  853TIP3   OH224049   6.766   4.752  14.931  0.3032  0.5262  0.6321
  853TIP3    H124050   6.815   4.694  14.873  0.0559 -1.8804  2.6326
  853TIP3    H224051   6.702   4.794  14.875 -0.9499 -2.8241 -0.7059
  854TIP3   OH224052   3.100   3.341   0.151 -0.3280 -0.1536  0.2744
  854TIP3    H124053   3.023   3.314   0.201 -1.0190  1.0172 -0.1052
  854TIP3    H224054   3.175   3.309   0.201 -1.0373 -0.0666  1.4088
  855TIP3   OH224055   0.473   2.179   5.647  0.1502  0.1301  0.5230
  855TIP3    H124056   0.423   2.230   5.583  0.9433 -0.9059 -0.9475
  855TIP3    H224057   0.432   2.093   5.646  0.0250  0.1604  1.6091
  856TIP3   OH224058   5.949   0.132   4.560 -0.2731  0.1813  0.2213
  856TIP3    H124059   5.969   0.043   4.589  0.6319  0.2310 -0.2172
  856TIP3    H224060   5.994   0.141   4.476  0.0703  1.2186  0.4975
  857TIP3   OH224061   5.252   2.455  13.414 -0.4136  0.0975  0.0918
  857TIP3    H124062   5.223   2.451  13.323 -0.9436 -0.9236  0.2806
  857TIP3    H224063   5.328   2.397  13.418 -1.2217 -0.9681  0.5621
  858TIP3   OH224064   1.458   2.860   0.734 -0.3874  0.4351 -0.2440
  858TIP3    H124065   1.398   2.925   0.770  0.5848  2.1340 -1.5458
  858TIP3    H224066   1.485   2.807   0.809 -0.8730  1.8109  0.9446
  859TIP3   OH224067   0.352   4.700  15.434  0.2773  0.1812 -0.5229
  859TIP3    H124068   0.348   4.668  15.344 -0.7771 -1.2567 -0.0114
  859TIP3    H224069   0.438   4.673  15.466  0.4563  0.2518 -0.9412
  860TIP3   OH224070   6.141   5.999   2.758  0.0996 -0.2646 -0.0638
  860TIP3    H124071   6.172   5.993   2.849  1.4104  2.4072 -0.2298
  860TIP3    H224072   6.064   6.055   2.762 -0.4425 -0.9606 -0.5145
  861TIP3   OH224073   1.170   0.332   5.272  0.0736  0.2179  0.7452
  861TIP3    H124074   1.245   0.355   5.216 -0.2860  0.9547  0.5488
  861TIP3    H224075   1.207   0.275   5.339  0.9185  0.9276  0.9102
  862TIP3   OH224076   4.663   2.082  10.962 -0.4357 -0.9597  0.1943
  862TIP3    H124077   4.594   2.147  10.980  0.5770 -0.0909  1.0519
  862TIP3    H224078   4.682   2.092  10.869  0.0762  0.3544  0.4288
  863TIP3   OH224079   1.657   2.154  14.235  0.1341  0.3222  0.3664
  863TIP3    H124080   1.608   2.235  14.248  1.7310  1.3495  0.2488
  863TIP3    H224081   1.596   2.096  14.188 -0.9069  1.5927  0.1076
  864TIP3   OH224082   6.553   2.265   6.082  0.7379  0.2273  0.4800
  864TIP3    H124083   6.582   2.260   6.173 -1.6216 -1.2319  1.2366
  864TIP3    H224084   6.459   2.286   6.088  0.8875  1.8073 -1.6991
  865TIP3   OH224085   5.440   6.549   6.011 -0.4949  0.4682 -0.3359
  865TIP3    H124086   5.354   6.513   5.992  0.4447 -1.6958 -0.7490
  865TIP3    H224087   5.476   6.492   6.079  0.6789  1.2199 -0.2958
  866TIP3   OH224088   3.329   2.894   1.445  0.0705  0.8231 -0.4648
  866TIP3    H124089   3.273   2.964   1.411 -1.5276 -0.4075 -0.5002
  866TIP3    H224090   3.361   2.849   1.367 -1.6047 -0.4877 -0.4437
  867TIP3   OH224091   3.581   0.903   2.497 -0.1393  0.2605 -0.0360
  867TIP3    H124092   3.636   0.917   2.575 -0.0891  0.3400 -0.0849
  867TIP3    H224093   3.607   0.817   2.465  0.8853  0.8197 -0.7960
  868TIP3   OH224094   1.142   1.633   1.117  0.0403 -0.0892 -0.6260
  868TIP3    H124095   1.130   1.724   1.091  2.7584  1.1651  1.8755
  868TIP3    H224096   1.056   1.606   1.151 -0.5925  1.8691 -0.5524
  869TIP3   OH224097   3.683   3.706  14.741  0.1034  0.3896  0.0247
  869TIP3    H124098   3.669   3.800  14.727 -0.0796  0.0300 -2.6737
  869TIP3    H224099   3.599   3.674  14.775 -0.5464  0.8880 -1.0438
  870TIP3   OH224100   4.332   0.678  12.311  0.3900 -0.2830 -0.0735
  870TIP3    H124101   4.391   0.651  12.240  0.2442  1.1454 -0.7900
  870TIP3    H224102   4.373   0.756  12.347  0.7996 -1.3577  1.9038
  871TIP3   OH224103   3.190   6.569   3.322  0.0453  0.0712  0.3732
  871TIP3    H124104   3.164   6.578   3.230 -1.7600  0.3944  0.8613
  871TIP3    H224105   3.237   6.650   3.342  0.6167 -0.0841 -0.3062
  872TIP3   OH224106   0.238   0.485   5.099 -0.6925  0.3424  0.3315
  872TIP3    H124107   0.156   0.488   5.049 -0.0742 -1.0726 -0.8468
  872TIP3    H224108   0.233   0.403   5.149  0.8802 -0.9630 -1.4715
  873TIP3   OH224109   0.129   2.932   2.537 -0.2800 -0.2821  0.1608
  873TIP3    H124110   0.172   3.017   2.533 -2.1679  0.7963  1.3074
  873TIP3    H224111   0.170   2.887   2.611  3.3107 -2.0100 -2.5876
  874TIP3   OH224112   1.826   4.562  10.391 -0.2015  0.3183  0.5028
  874TIP3    H124113   1.874   4.596  10.314  1.5721 -0.4758  1.2070
  874TIP3    H224114   1.735   4.585  10.373  0.3125  1.2532 -1.2633
  875TIP3   OH224115   3.037   1.895   4.763 -0.5281  0.0296 -0.1761
  875TIP3    H124116   3.130   1.900   4.741 -1.0220 -0.2233 -2.6129
  875TIP3    H224117   3.029   1.944   4.844  1.8973 -0.9354  0.7539
  876TIP3   OH224118   2.880   3.972   5.702 -0.0220 -0.0950 -0.4296
  876TIP3    H124119   2.787   3.992   5.688 -0.1119 -0.4934 -0.4170
  876TIP3    H224120   2.894   3.986   5.796 -0.1788 -0.4677 -0.3491
  877TIP3   OH224121   5.361   2.116  15.733 -0.0288  0.1560 -0.6795
  877TIP3    H124122   5.270   2.142  15.750  0.1142 -0.0371  0.4334
  877TIP3    H224123   5.364   2.023  15.756  0.9371  0.6358  1.4045
  878TIP3   OH224124   0.562   3.357   3.426  0.6908  0.4772 -0.2151
  878TIP3    H124125   0.645   3.319   3.456  1.3482  1.3294 -0.9197
  878TIP3    H224126   0.587   3.420   3.359 -0.5896  0.2546 -0.9303
  879TIP3   OH224127   0.635   2.862   6.147 -0.1068 -0.1954  0.0498
  879TIP3    H124128   0.657   2.773   6.117  1.4810 -0.1535  0.9582
  879TIP3    H224129   0.631   2.855   6.242 -2.6982  0.1779  0.0342
  880TIP3   OH224130   0.050   3.151  13.140  0.2804  0.2602 -0.2079
  880TIP3    H124131   0.008   3.220  13.192 -0.3755 -0.9215  0.8903
  880TIP3    H224132  -0.021   3.107  13.095  0.5835 -0.3295 -0.1222
  881TIP3   OH224133   3.337   2.507   5.314  0.1899 -0.5033  0.2604
  881TIP3    H124134   3.309   2.417   5.299 -1.3222 -0.1397  0.7236
  881TIP3    H224135   3.432   2.503   5.318  0.1291 -2.0997  0.4316
  882TIP3   OH224136   6.052   1.918   2.039 -0.6092 -0.3783  0.1017
  882TIP3    H124137   6.071   1.946   1.950 -0.8786  0.6722  0.3623
  882TIP3    H224138   6.136   1.889   2.074 -0.5817 -1.2083 -0.6307
  883TIP3   OH224139   1.288   0.597   2.670 -0.3223  0.5788 -0.2020
  883TIP3    H124140   1.278   0.691   2.655  0.4568  0.5135 -1.2981
  883TIP3    H224141   1.367   0.573   2.621  0.7524 -0.2524  1.8215
  884TIP3   OH224142   0.820   0.351   0.049  0.0472  0.8739  0.2758
  884TIP3    H124143   0.841   0.407  -0.025  0.7206 -0.1264 -0.3198
  884TIP3    H224144   0.899   0.298   0.063 -0.2023  0.7795  1.4642
  885TIP3   OH224145   2.736   2.216   2.015 -0.2862 -0.6275 -0.2333
  885TIP3    H124146   2.685   2.262   2.083  1.0793  0.5486  0.0533
  885TIP3    H224147   2.702   2.250   1.933  0.5705  0.8431 -0.0293
  886TIP3   OH224148   6.204   5.242  16.464 -0.0003 -0.1766 -0.0759
  886TIP3    H124149   6.163   5.192  16.393 -0.4210  0.1807 -0.0872
  886TIP3    H224150   6.137   5.246  16.532 -0.5239  1.6081 -0.6405
  887TIP3   OH224151   3.166   2.940   3.681  0.1454  0.1530 -0.3084
  887TIP3    H124152   3.133   2.887   3.609  0.9541  0.0547 -0.6195
  887TIP3    H224153   3.241   2.891   3.715 -0.6747 -0.1771  1.0998
  888TIP3   OH224154   6.255   0.795  14.978 -0.0318 -0.0832 -0.4727
  888TIP3    H124155   6.197   0.730  15.017  0.8448 -0.7405 -0.2524
  888TIP3    H224156   6.197   0.849  14.924 -1.0572  0.0584  0.7229
  889TIP3   OH224157   4.857   5.252   1.172 -0.6327  0.0062  0.4484
  889TIP3    H124158   4.889   5.164   1.193 -0.4885  0.0000  0.2166
  889TIP3    H224159   4.787   5.268   1.234 -0.3761 -0.1037  0.7697
  890TIP3   OH224160   0.060   3.499  14.173 -0.1585 -0.3465 -0.1529
  890TIP3    H124161   0.102   3.561  14.233  0.3443 -0.7230 -0.1060
  890TIP3    H224162   0.055   3.546  14.090  0.5097 -0.3476 -0.1993
  891TIP3   OH224163   0.457   4.303  14.400  0.0083  0.4565 -0.3658
  891TIP3    H124164   0.416   4.325  14.484  1.7946  3.4599 -0.1028
  891TIP3    H224165   0.387   4.265  14.348 -1.4024 -0.6088  2.1326
  892TIP3   OH224166   4.709   2.660   0.073 -0.3608 -0.2868  0.1546
  892TIP3    H124167   4.731   2.748   0.103  1.7561  0.1790 -2.4230
  892TIP3    H224168   4.622   2.669   0.035  0.0524  0.8438 -0.5692
  893TIP3   OH224169   3.539   3.465   4.192 -0.0672  0.1263  0.5462
  893TIP3    H124170   3.444   3.475   4.181 -0.2671 -0.6979  1.3566
  893TIP3    H224171   3.561   3.524   4.264 -0.2414 -0.7967  1.3776
  894TIP3   OH224172   5.921   2.384  15.085 -0.0879  0.1055  0.6079
  894TIP3    H124173   6.012   2.359  15.071 -0.4918 -0.6720 -0.7620
  894TIP3    H224174   5.896   2.429  15.005 -1.6593 -1.9656 -0.1546
  895TIP3   OH224175   1.121   1.877   6.157  0.3682 -0.4384  0.0712
  895TIP3    H124176   1.049   1.839   6.207  0.5780 -0.8885  0.0346
  895TIP3    H224177   1.193   1.885   6.221 -0.1435  1.3636  0.4898
  896TIP3   OH224178   2.302   4.695  16.591  0.2144 -0.0826  0.2011
  896TIP3    H124179   2.272   4.786  16.587  1.3969  0.2782 -1.5581
  896TIP3    H224180   2.272   4.656  16.509 -1.5328 -1.7497  1.5543
  897TIP3   OH224181   5.929   1.772   5.754 -0.4439  0.1434  0.3904
  897TIP3    H124182   5.905   1.768   5.847  0.6271 -0.1306  0.6731
  897TIP3    H224183   6.009   1.824   5.752 -0.1940 -0.2519 -0.3208
  898TIP3   OH224184   4.432   4.170  13.240 -0.3214 -0.0132  0.5475
  898TIP3    H124185   4.442   4.114  13.317 -1.4213 -0.7019  0.2073
  898TIP3    H224186   4.404   4.112  13.170 -0.7931  0.8380  0.0027
  899TIP3   OH224187   3.206   3.780  11.657  0.1592 -0.2338 -0.1938
  899TIP3    H124188   3.162   3.708  11.611  0.0397 -0.0123 -0.4334
  899TIP3    H224189   3.170   3.859  11.617 -2.2134  0.0801  2.2861
  900TIP3   OH224190   3.042   5.951  12.194 -0.0353  0.3175 -0.0606
  900TIP3    H124191   2.998   5.916  12.272 -0.9883  3.2664  0.8820
  900TIP3    H224192   2.972   5.997  12.147  0.8294 -0.2336 -1.9787
  901TIP3   OH224193   3.039   3.625  13.279 -0.1908  0.3511  0.2761
  901TIP3    H124194   2.946   3.636  13.300 -0.8741 -1.4520 -1.4833
  901TIP3    H224195   3.068   3.555  13.337 -0.1260  0.4003  0.3027
  902TIP3   OH224196   0.275   3.576   4.819 -0.6756 -0.1283 -0.3102
  902TIP3    H124197   0.357   3.619   4.840 -0.1305 -2.1699  2.3313
  902TIP3    H224198   0.207   3.642   4.838  0.1906  0.2272  1.8304
  903TIP3   OH224199   4.940   3.086  11.668  0.2039  0.1537 -0.7961
  903TIP3    H124200   4.873   3.141  11.627 -0.4487  0.3770  0.5158
  903TIP3    H224201   4.980   3.141  11.735  0.4788 -0.5306 -0.3785
  904TIP3   OH224202   2.977   3.407   5.174 -0.2518 -0.1490 -0.2358
  904TIP3    H124203   3.071   3.416   5.159 -0.4434 -0.1512 -1.5779
  904TIP3    H224204   2.937   3.460   5.106 -1.2347  1.6866  1.6603
  905TIP3   OH224205   4.564   0.920  15.852  0.0904 -0.7250  0.2012
  905TIP3    H124206   4.569   0.966  15.935  0.0809 -2.0308  0.9544
  905TIP3    H224207   4.552   0.828  15.876  0.0638 -1.1275 -1.2410
  906TIP3   OH224208   6.817   2.340   5.805  0.0265  0.0221  0.2239
  906TIP3    H124209   6.860   2.317   5.888  1.0526  0.7631 -0.0816
  906TIP3    H224210   6.735   2.382   5.831  0.3762  0.3225  0.8604
  907TIP3   OH224211   6.801   4.315   6.004 -0.0321 -0.4761 -1.0361
  907TIP3    H124212   6.878   4.364   6.034 -0.2224 -1.0668  0.4984
  907TIP3    H224213   6.837   4.251   5.941  0.5975 -0.1327 -1.0371
  908TIP3   OH224214   1.550   6.739  15.730  0.0224  0.2770 -0.2561
  908TIP3    H124215   1.505   6.753  15.647  2.3366 -0.4458 -1.7382
  908TIP3    H224216   1.638   6.711  15.705  0.7663 -0.1131  2.4636
  909TIP3   OH224217   2.066   5.736   1.068 -0.4406 -0.0013 -0.4751
  909TIP3    H124218   2.107   5.822   1.060 -1.7099  0.6404 -0.2252
  909TIP3    H224219   2.032   5.733   1.157  2.2816 -2.0224  0.6508
  910TIP3   OH224220   6.041   5.768  16.415 -0.3049 -0.1661  0.0105
  910TIP3    H124221   6.108   5.758  16.483  0.7611  0.7525 -0.8573
  910TIP3    H224222   5.984   5.838  16.448  0.4425  0.5561 -0.2019
  911TIP3   OH224223   0.457   2.731   1.440  0.2074 -0.0122 -0.4113
  911TIP3    H124224   0.386   2.786   1.407  0.9965 -0.5634 -3.3519
  911TIP3    H224225   0.412   2.660   1.487 -1.1469  0.1481 -1.3945
  912TIP3   OH224226   4.704   2.152   4.284  0.2728 -0.7666  0.8582
  912TIP3    H124227   4.741   2.134   4.198 -2.1737  0.8687 -0.6729
  912TIP3    H224228   4.750   2.231   4.314 -0.3540 -0.0617  0.0123
  913TIP3   OH224229   2.279   4.400  12.067 -0.3099  0.2507 -0.2918
  913TIP3    H124230   2.354   4.452  12.098  0.1694 -0.3784 -0.3818
  913TIP3    H224231   2.243   4.360  12.146 -0.2285  0.1370 -0.3122
  914TIP3   OH224232   2.154   6.466   3.036 -0.0335 -0.6503 -0.4488
  914TIP3    H124233   2.061   6.488   3.031  0.2190  0.0976 -2.7399
  914TIP3    H224234   2.168   6.444   3.128 -2.1512  0.6661  0.2610
  915TIP3   OH224235   2.322   1.906  16.138 -0.3806  0.1608 -0.3307
  915TIP3    H124236   2.258   1.930  16.072 -0.8389 -0.7743 -0.2291
  915TIP3    H224237   2.272   1.900  16.219 -0.3153 -1.3093 -0.3820
  916TIP3   OH224238   4.430   3.689  14.622  0.5445 -0.4743  0.4052
  916TIP3    H124239   4.424   3.737  14.540  0.2325  0.2741  0.8587
  916TIP3    H224240   4.449   3.756  14.688 -0.8792 -0.8248  1.2057
  917TIP3   OH224241   5.004   6.021  11.597 -0.4812  0.1505 -0.0147
  917TIP3    H124242   4.962   5.946  11.637 -2.2080  0.5161 -1.0523
  917TIP3    H224243   5.020   6.082  11.670 -0.9705 -0.3497  0.5118
  918TIP3   OH224244   0.280   5.356  15.068  0.0987  0.1706  0.1314
  918TIP3    H124245   0.359   5.325  15.112  0.1713  0.0006 -0.1156
  918TIP3    H224246   0.218   5.374  15.139  0.0180 -0.6438  0.2866
  919TIP3   OH224247   0.807   1.147   4.815  0.3185  0.0123  0.4405
  919TIP3    H124248   0.840   1.131   4.903  0.7950 -0.3959  0.1927
  919TIP3    H224249   0.728   1.201   4.828  0.0480 -0.5366  1.1460
  920TIP3   OH224250   3.974   2.806   3.162  0.0245 -0.0914 -0.1959
  920TIP3    H124251   3.898   2.854   3.196  0.4725  1.9084 -1.8228
  920TIP3    H224252   4.005   2.754   3.236 -2.3261 -0.1994  0.7796
  921TIP3   OH224253   4.121   0.004   2.022  0.8200  0.2860  0.1456
  921TIP3    H124254   4.157   0.042   1.941  0.9404 -0.4276 -0.1412
  921TIP3    H224255   4.026   0.015   2.013  0.8201  0.0581 -0.1785
  922TIP3   OH224256   5.630   1.769   1.944  0.4708  0.2982  0.5094
  922TIP3    H124257   5.575   1.744   1.869  0.3653  1.0400  0.3324
  922TIP3    H224258   5.719   1.773   1.908  0.8065 -1.6450  0.9587
  923TIP3   OH224259   6.708   1.746   1.577 -0.4393 -0.1347  0.4797
  923TIP3    H124260   6.725   1.839   1.594 -0.9672  0.1619 -0.5178
  923TIP3    H224261   6.686   1.743   1.484 -0.2173 -1.2984  0.4535
  924TIP3   OH224262   6.110   1.490   1.221 -0.0618  0.2957  0.1213
  924TIP3    H124263   6.173   1.555   1.188  1.9405 -2.1190 -1.2832
  924TIP3    H224264   6.132   1.480   1.313  0.9219  0.2588 -0.1044
  925TIP3   OH224265   6.179   0.064   0.944  0.0910 -0.8870 -0.5834
  925TIP3    H124266   6.132   0.146   0.931  3.0710  1.1110  0.2479
  925TIP3    H224267   6.176   0.049   1.039 -0.1490 -1.5513 -0.6935
  926TIP3   OH224268   3.186   0.287  16.276 -0.1277  0.0934 -0.1570
  926TIP3    H124269   3.136   0.215  16.238  1.2434 -0.0447 -1.7980
  926TIP3    H224270   3.166   0.362  16.219  0.8644  0.2276 -0.3510
  927TIP3   OH224271   3.127   2.127  16.770 -0.0534 -0.3899 -0.5696
  927TIP3    H124272   3.199   2.100  16.713  0.2856  0.4092 -0.5294
  927TIP3    H224273   3.168   2.145  16.854 -0.4227 -0.7010 -0.3176
  928TIP3   OH224274   3.556   2.498  13.360  0.3756  0.5425 -0.0859
  928TIP3    H124275   3.590   2.557  13.428  1.7220  1.2307 -1.2805
  928TIP3    H224276   3.533   2.418  13.407 -0.5510  1.6459  1.4395
  929TIP3   OH224277   0.976   5.146   0.236  0.3946  0.2788 -0.3353
  929TIP3    H124278   0.979   5.123   0.143 -0.9244 -0.6610 -0.1709
  929TIP3    H224279   0.914   5.219   0.240  0.7778  0.6064 -0.2272
  930TIP3   OH224280   2.514   1.286   5.261  0.5055  0.1811 -0.3039
  930TIP3    H124281   2.458   1.219   5.300  1.0445  0.1789  0.4763
  930TIP3    H224282   2.453   1.350   5.224 -0.1221  1.5791  2.8064
  931TIP3   OH224283   0.942   5.940   1.603 -0.2905 -0.2235 -0.0124
  931TIP3    H124284   0.942   6.006   1.672 -0.3059 -0.1837 -0.0501
  931TIP3    H224285   0.860   5.892   1.615 -1.7572  1.6456 -1.7717
  932TIP3   OH224286   1.645   4.835   5.139 -0.2854 -0.2274  0.0177
  932TIP3    H124287   1.639   4.789   5.055  0.6424 -2.0356  0.8864
  932TIP3    H224288   1.732   4.874   5.139  0.7365 -2.3403  1.0924
  933TIP3   OH224289   0.498   6.038  11.310 -0.3636 -0.0856  0.2784
  933TIP3    H124290   0.502   6.103  11.380  2.8442 -0.4629  0.6013
  933TIP3    H224291   0.556   6.073  11.242  1.4497 -2.5065  0.4600
  934TIP3   OH224292   0.640   4.671  12.204  0.1830 -0.2508 -0.3785
  934TIP3    H124293   0.676   4.596  12.156  0.1193  0.7255 -1.9899
  934TIP3    H224294   0.563   4.698  12.153 -0.0976  0.6090  0.4688
  935TIP3   OH224295   5.481   6.768   0.653  0.5731  0.2755  0.7427
  935TIP3    H124296   5.423   6.797   0.724  0.9418  2.2819  0.2872
  935TIP3    H224297   5.568   6.768   0.692  0.4150 -1.9651  1.2021
  936TIP3   OH224298   0.037   2.695  16.762  0.1337 -1.0023 -0.4248
  936TIP3    H124299   0.125   2.678  16.796  0.4596  0.6373 -0.3386
  936TIP3    H224300  -0.008   2.741  16.833  0.6545  2.0389 -1.8886
  937TIP3   OH224301   3.650   2.146   3.543 -0.0209  0.1001  0.3967
  937TIP3    H124302   3.673   2.127   3.452  2.0395  0.6584  0.7411
  937TIP3    H224303   3.594   2.073   3.570 -2.0278  0.7192 -1.7405
  938TIP3   OH224304   4.993   6.046   6.056 -0.2271 -0.1832  0.0951
  938TIP3    H124305   4.956   5.985   6.120 -0.2362 -0.8460 -0.5419
  938TIP3    H224306   4.917   6.076   6.006 -0.2563  0.5425  0.5553
  939TIP3   OH224307   2.361   1.391  12.928  0.4628 -0.5252 -1.0224
  939TIP3    H124308   2.387   1.301  12.948  1.3216 -0.0294  0.1665
  939TIP3    H224309   2.443   1.438  12.915  0.0477  0.2206 -1.0383
  940TIP3   OH224310   6.379   1.192  11.511 -0.2447 -0.1178 -0.3419
  940TIP3    H124311   6.302   1.241  11.482 -0.3948 -0.3820 -0.3895
  940TIP3    H224312   6.359   1.165  11.600  0.4029  1.0841  0.1912
  941TIP3   OH224313   2.318   1.858   0.790  0.1501 -0.3133  0.5843
  941TIP3    H124314   2.387   1.805   0.830  0.4281 -0.3249  0.1030
  941TIP3    H224315   2.277   1.801   0.726 -0.4949 -0.3909  1.0612
  942TIP3   OH224316   4.772   3.597  11.163  0.0674  0.3724  0.1480
  942TIP3    H124317   4.862   3.617  11.188 -0.5441  2.1457  1.1612
  942TIP3    H224318   4.731   3.683  11.149 -1.4655 -0.3836 -0.3036
  943TIP3   OH224319   0.371   4.124  16.209 -0.0486  0.1315  0.1733
  943TIP3    H124320   0.409   4.086  16.129  1.2445  1.7746 -0.0407
  943TIP3    H224321   0.447   4.149  16.262 -0.8783 -1.3652  2.1943
  944TIP3   OH224322   1.649   2.539   5.806  0.6472  0.4056  0.6604
  944TIP3    H124323   1.672   2.480   5.878  3.8604  1.1929  0.4290
  944TIP3    H224324   1.625   2.481   5.734 -0.2526 -0.4478  1.6057
  945TIP3   OH224325   2.317   3.719   3.611  0.3002  0.3262  0.2048
  945TIP3    H124326   2.329   3.712   3.517 -1.3856  0.9553 -0.0801
  945TIP3    H224327   2.353   3.637   3.646  0.6789 -0.0343 -0.9920
  946TIP3   OH224328   5.413   6.138  11.450 -0.2656 -0.3494 -0.0097
  946TIP3    H124329   5.350   6.209  11.456  0.1004 -0.1492  2.0569
  946TIP3    H224330   5.364   6.065  11.412 -1.1950  0.3756 -0.2333
  947TIP3   OH224331   3.593   2.662  14.808 -0.0717 -0.4154  0.0202
  947TIP3    H124332   3.542   2.682  14.887 -1.9871  1.5509 -1.6061
  947TIP3    H224333   3.539   2.600  14.760  0.0471  0.0601 -0.7377
  948TIP3   OH224334   4.196   0.629   0.052 -0.0716 -0.1844  0.6203
  948TIP3    H124335   4.217   0.551   0.000 -1.1734  0.0466 -0.2090
  948TIP3    H224336   4.138   0.596   0.122  0.0173 -0.2149  0.6799
  949TIP3   OH224337   2.218   2.740  11.780 -0.0904 -0.2176 -0.2434
  949TIP3    H124338   2.222   2.774  11.691 -1.9324 -1.9959 -1.0840
  949TIP3    H224339   2.285   2.672  11.783 -0.2622 -0.3958 -0.3991
  950TIP3   OH224340   2.282   5.020   3.741 -0.1828  0.7140  0.0159
  950TIP3    H124341   2.284   5.115   3.751 -1.9939  0.9967 -1.7419
  950TIP3    H224342   2.232   5.005   3.660 -2.4708 -1.8066  1.7307
  951TIP3   OH224343   2.884   6.046  14.248  0.0245  0.2402  0.0935
  951TIP3    H124344   2.895   6.129  14.295 -1.7975 -0.5862  2.1601
  951TIP3    H224345   2.795   6.050  14.213 -0.9341 -1.6486  2.1063
  952TIP3   OH224346   5.102   1.476  10.913 -0.4221 -0.4593  0.2321
  952TIP3    H124347   5.114   1.467  10.818  1.1441 -1.0075  0.4519
  952TIP3    H224348   5.044   1.551  10.922 -1.7031 -1.2255 -1.2011
  953TIP3   OH224349   3.448   3.627   5.786 -0.5836  0.3766  0.5215
  953TIP3    H124350   3.379   3.574   5.825  2.2189 -2.1231  2.4567
  953TIP3    H224351   3.453   3.705   5.841 -0.5818 -0.3511  1.5681
  954TIP3   OH224352   5.789   5.511   0.855 -0.0949  0.2803 -0.0369
  954TIP3    H124353   5.838   5.479   0.779 -0.5477 -1.2569  0.2900
  954TIP3    H224354   5.857   5.537   0.918  0.2966 -0.3901 -0.1745
  955TIP3   OH224355   6.114   1.521   5.607 -0.6033 -0.3921  0.6845
  955TIP3    H124356   6.119   1.580   5.532  2.3414 -0.2984  0.8280
  955TIP3    H224357   6.153   1.439   5.577  0.1804 -0.5115  1.9110
  956TIP3   OH224358   4.757   2.583   6.192 -0.5425 -0.0982 -0.2542
  956TIP3    H124359   4.707   2.648   6.241 -0.9516  0.1633 -1.0023
  956TIP3    H224360   4.778   2.515   6.257 -1.4692  0.0101  0.1851
  957TIP3   OH224361   1.994   3.466  11.229  0.1103 -0.0805  0.1768
  957TIP3    H124362   1.962   3.549  11.264 -0.6072  0.1218 -0.9135
  957TIP3    H224363   2.031   3.421  11.305  0.5918  1.2580  0.7754
  958TIP3   OH224364   3.962   5.013   5.027 -0.2128  0.3406 -0.2843
  958TIP3    H124365   4.014   4.943   5.066 -0.0123  0.4991 -0.2653
  958TIP3    H224366   3.892   4.968   4.981 -0.4646  0.1534  0.2787
  959TIP3   OH224367   2.034   0.149   0.683 -0.1394  0.1169 -0.1992
  959TIP3    H124368   2.011   0.237   0.655 -0.5718  0.2303  0.4926
  959TIP3    H224369   2.005   0.144   0.774  1.9686  0.0490  0.5177
  960TIP3   OH224370   4.280   1.939   2.190 -0.1933 -0.3214  0.0113
  960TIP3    H124371   4.200   1.917   2.142 -0.6605 -1.6137  1.2917
  960TIP3    H224372   4.262   1.910   2.280  1.9269 -1.1286  0.2183
  961TIP3   OH224373   4.829   3.027   0.978  0.0667 -0.4199 -0.1485
  961TIP3    H124374   4.775   3.106   0.970  0.2600 -0.4005 -1.8049
  961TIP3    H224375   4.767   2.956   0.991 -0.0924  0.0055  1.7039
  962TIP3   OH224376   3.674   0.500   0.214 -0.2915  0.1754  0.1382
  962TIP3    H124377   3.707   0.526   0.300 -0.9609 -2.0293  1.1149
  962TIP3    H224378   3.648   0.409   0.225  0.2723 -0.3845 -2.6150
  963TIP3   OH224379   4.645   2.699   0.670  0.1517  0.6782 -0.3289
  963TIP3    H124380   4.666   2.615   0.631  0.0589  1.0478 -1.1879
  963TIP3    H224381   4.730   2.740   0.687  0.2107  0.2618  0.4635
  964TIP3   OH224382   5.222   3.037   0.696 -0.1188  0.7357  0.4692
  964TIP3    H124383   5.248   2.974   0.629 -3.9892  0.6578 -1.2489
  964TIP3    H224384   5.179   2.984   0.763  1.1716  1.1117  1.6269
  965TIP3   OH224385   1.256   1.425   0.957  0.3429 -0.4381  0.1535
  965TIP3    H124386   1.253   1.495   0.892  0.4653 -1.9696 -1.5876
  965TIP3    H224387   1.197   1.454   1.027 -1.4939  0.3539 -1.6218
  966TIP3   OH224388   0.672   1.809   6.520  0.2477 -0.4066 -1.1584
  966TIP3    H124389   0.763   1.823   6.545 -0.1138 -0.3738  0.2296
  966TIP3    H224390   0.624   1.878   6.567 -0.6143 -1.1424 -0.9426
  967TIP3   OH224391   4.443   2.147   4.193 -0.9737 -0.7370  0.2096
  967TIP3    H124392   4.537   2.143   4.211 -0.6539 -0.5221 -1.2804
  967TIP3    H224393   4.430   2.088   4.118 -1.7961  0.1663 -0.3958
  968TIP3   OH224394   4.965   1.525  11.883  0.5604  0.2871  0.0117
  968TIP3    H124395   5.009   1.552  11.802  0.3981  0.1161 -0.1345
  968TIP3    H224396   4.884   1.576  11.884  0.3015 -0.1158 -0.2141
  969TIP3   OH224397   3.211   0.039   3.134  0.0704 -0.8233  0.8527
  969TIP3    H124398   3.252   0.102   3.075 -0.3597 -0.0210  1.4033
  969TIP3    H224399   3.278  -0.029   3.146  0.6014 -0.3924  0.3930
  970TIP3   OH224400   3.696   2.009   0.568  0.7839 -1.0944 -0.0204
  970TIP3    H124401   3.682   2.101   0.547  2.0389 -1.1689 -1.3605
  970TIP3    H224402   3.764   2.009   0.636 -0.1229 -1.0172  0.9179
  971TIP3   OH224403   0.969   4.095   1.769  0.5779  0.2769  0.3078
  971TIP3    H124404   0.961   4.187   1.793  1.1336  0.1036  1.2030
  971TIP3    H224405   1.045   4.064   1.818  0.7227 -0.5253 -0.4072
  972TIP3   OH224406   0.986   1.993   3.288 -0.0285  0.8723 -0.4433
  972TIP3    H124407   1.068   2.000   3.337  0.8494 -3.4896 -0.8879
  972TIP3    H224408   1.013   1.970   3.199 -1.7580  2.9222 -1.6129
  973TIP3   OH224409   3.032   6.665  12.240  0.0438 -0.0746  0.0603
  973TIP3    H124410   3.059   6.648  12.330 -0.4611  0.4489  0.3147
  973TIP3    H224411   3.076   6.596  12.189 -1.4685 -1.8122  0.9668
  974TIP3   OH224412   6.820   2.190  11.544  0.5098  0.4464  0.6221
  974TIP3    H124413   6.901   2.240  11.540  0.9152 -0.2134 -3.3348
  974TIP3    H224414   6.848   2.099  11.554  0.0709  0.3914  1.5183
  975TIP3   OH224415   4.812   1.083  16.784  0.6320  0.5571 -0.1002
  975TIP3    H124416   4.736   1.075  16.726 -1.8394 -0.0281  2.9384
  975TIP3    H224417   4.821   0.998  16.825  0.6146  1.5904  2.2082
  976TIP3   OH224418   5.385   6.616  11.469  0.0644  0.1754  0.2247
  976TIP3    H124419   5.377   6.698  11.519 -0.0166  0.6011 -0.4708
  976TIP3    H224420   5.302   6.608  11.423  0.5397  0.3846 -0.7072
  977TIP3   OH224421   2.232   3.244   5.053  0.1355  0.1304 -0.4107
  977TIP3    H124422   2.274   3.190   5.120  1.2943  0.0466 -1.1860
  977TIP3    H224423   2.143   3.207   5.046 -0.2967  0.6448  1.6118
  978TIP3   OH224424   3.081   3.421  16.991  0.2246 -0.1288 -0.3442
  978TIP3    H124425   3.105   3.380  17.074  2.2829 -0.3860 -1.0105
  978TIP3    H224426   3.054   3.510  17.015  0.7447 -0.2180  0.6169
  979TIP3   OH224427   5.591   1.192   2.018  0.2221  0.4539 -0.1700
  979TIP3    H124428   5.670   1.241   2.040  0.0843  0.0025  1.4879
  979TIP3    H224429   5.521   1.234   2.068 -0.1742 -0.4643  0.0788
  980TIP3   OH224430   5.412   5.050  14.149  0.4376 -0.4339 -0.0881
  980TIP3    H124431   5.507   5.036  14.160  0.2789 -0.3993  1.7101
  980TIP3    H224432   5.403   5.145  14.144  0.4307 -0.3640  0.9233
  981TIP3   OH224433   6.181   6.247  12.662  0.7737 -0.2851 -0.2887
  981TIP3    H124434   6.217   6.273  12.747 -1.0977 -1.1922  0.8465
  981TIP3    H224435   6.256   6.248  12.603  2.0093  0.9794  1.2238
  982TIP3   OH224436   0.256   0.202  14.751 -0.6656 -0.0736 -0.4207
  982TIP3    H124437   0.347   0.177  14.734 -1.1802 -0.2324 -3.5025
  982TIP3    H224438   0.261   0.264  14.824  1.6622 -1.4927  0.7524
  983TIP3   OH224439   0.441   4.080   0.672  0.1199  0.0402  0.6102
  983TIP3    H124440   0.385   4.112   0.743 -0.3771 -0.8402  0.6245
  983TIP3    H224441   0.501   4.018   0.715 -0.0526 -0.3450  0.2973
  984TIP3   OH224442   5.279   0.545  16.473  0.4544  0.0222  0.2797
  984TIP3    H124443   5.237   0.607  16.413  1.1341 -1.1399 -1.5007
  984TIP3    H224444   5.307   0.598  16.547 -1.6573  1.2978  0.2329
  985TIP3   OH224445   3.897   4.134  15.712 -0.4366  0.3821  0.3853
  985TIP3    H124446   3.838   4.125  15.787  0.3308 -0.8183  0.8606
  985TIP3    H224447   3.867   4.214  15.669  0.3946  2.3402  3.1361
  986TIP3   OH224448   3.575   2.570  17.069 -0.1015 -0.0036  0.0672
  986TIP3    H124449   3.579   2.485  17.025  2.3432  0.3954 -0.6550
  986TIP3    H224450   3.555   2.632  16.998  1.8916  0.4026 -0.2225
  987TIP3   OH224451   6.019   5.695   3.614 -0.3252  0.0842 -0.2639
  987TIP3    H124452   6.033   5.777   3.567 -1.5172  0.9993  0.9228
  987TIP3    H224453   5.937   5.707   3.661  1.5607 -0.1040  3.4352
  988TIP3   OH224454   5.631   3.620  16.656 -0.0323  0.1330 -0.0147
  988TIP3    H124455   5.697   3.655  16.597 -1.2092  2.4496 -0.0709
  988TIP3    H224456   5.547   3.640  16.613 -0.8607  0.2832  1.5767
  989TIP3   OH224457   2.943   3.918   3.622  0.2187  0.3869  0.2362
  989TIP3    H124458   2.958   3.983   3.691  1.0514  0.1517  0.2896
  989TIP3    H224459   3.013   3.854   3.634 -0.4265 -0.3747  0.0036
  990TIP3   OH224460   3.322   5.227  15.994  0.1734  0.2263  0.3471
  990TIP3    H124461   3.340   5.168  15.921 -0.3616  1.7395 -1.0783
  990TIP3    H224462   3.361   5.184  16.070  1.6162 -0.9492 -0.9891
  991TIP3   OH224463   6.177   0.418   5.725 -0.0234  0.3514 -0.2434
  991TIP3    H124464   6.137   0.472   5.792 -0.2622  0.9002 -0.8203
  991TIP3    H224465   6.257   0.384   5.765 -0.4689  0.1897  0.5173
  992TIP3   OH224466   2.683   3.691  11.495 -0.0817  0.5359  0.1097
  992TIP3    H124467   2.660   3.686  11.587  0.5652  0.4633  0.2725
  992TIP3    H224468   2.637   3.617  11.455  0.7941 -0.3115  0.6332
  993TIP3   OH224469   2.080   0.949  12.618 -0.7651  0.1439  0.6504
  993TIP3    H124470   2.074   1.009  12.692 -1.2609  0.3646  0.4379
  993TIP3    H224471   2.142   0.882  12.646  0.1461  0.9961  0.7158
  994TIP3   OH224472   0.922   0.072   1.581  0.1072  0.1892  0.1203
  994TIP3    H124473   0.853   0.126   1.542 -1.0471 -1.9685 -0.9996
  994TIP3    H224474   0.875   0.012   1.639  1.4682  1.0215  2.1968
  995TIP3   OH224475   2.538   4.865  11.540  0.5249  0.4482 -0.3395
  995TIP3    H124476   2.512   4.777  11.514  2.6588 -0.6145  0.8044
  995TIP3    H224477   2.460   4.902  11.582 -0.0178 -1.4605  0.4394
  996TIP3   OH224478   1.583   4.227   4.908 -0.3460 -0.2736 -0.6968
  996TIP3    H124479   1.491   4.238   4.933 -0.1427  0.1996 -0.1354
  996TIP3    H224480   1.588   4.261   4.819 -0.2797  1.8302  0.0506
  997TIP3   OH224481   2.285   3.456  16.839 -0.1030 -0.0170  0.5966
  997TIP3    H124482   2.344   3.494  16.904  0.5484  0.1686 -0.0754
  997TIP3    H224483   2.197   3.469  16.874  0.1360  1.6396  0.6212
  998TIP3   OH224484   3.233   2.667  13.950  0.0156 -0.1644  0.5011
  998TIP3    H124485   3.284   2.746  13.965  1.9014 -1.3620  0.8007
  998TIP3    H224486   3.278   2.599  14.001 -1.8659 -1.3435  0.7296
  999TIP3   OH224487   1.886   5.979   5.829 -0.4754  0.2153 -0.1441
  999TIP3    H124488   1.891   5.959   5.923  0.3297 -1.7348 -0.5582
  999TIP3    H224489   1.878   5.894   5.787 -2.0791  1.1245 -1.8217
 1000TIP3   OH224490   0.801   2.634   1.186  0.2348  0.8839 -0.3132
 1000TIP3    H124491   0.710   2.616   1.163  0.2859  1.5870 -1.1190
 1000TIP3    H224492   0.797   2.667   1.276  0.0456 -2.0240  0.8584
 1001TIP3   OH224493   5.183   3.199  15.198  0.4834 -0.0565  0.3189
 1001TIP3    H124494   5.135   3.123  15.165  1.1128 -0.4417  0.2777
 1001TIP3    H224495   5.219   3.240  15.119  1.9023 -0.9184  0.4826
 1002TIP3   OH224496   0.480   2.569  12.851 -0.2454  0.2376 -0.2784
 1002TIP3    H124497   0.461   2.640  12.913 -0.5859  0.3653 -0.5273
 1002TIP3    H224498   0.436   2.596  12.771 -0.1714 -0.1427 -0.4457
 1003TIP3   OH224499   3.542   4.580  13.326  0.0965 -0.4059  0.2195
 1003TIP3    H124500   3.594   4.630  13.263 -1.4165  0.6230 -0.2698
 1003TIP3    H224501   3.605   4.520  13.367  1.4699  0.1657 -0.9642
 1004TIP3   OH224502   5.350   6.029  13.964  0.4506 -0.0049  0.3624
 1004TIP3    H124503   5.394   5.951  13.998 -2.3010 -1.6639  0.4392
 1004TIP3    H224504   5.333   6.007  13.872 -1.8615 -0.3039  0.8171
 1005TIP3   OH224505   1.990   6.589  11.255  0.0058  0.1219 -0.6700
 1005TIP3    H124506   2.003   6.495  11.240 -0.9321  0.0884 -1.3909
 1005TIP3    H224507   1.897   6.603  11.237 -1.0595  0.3730  3.8328
 1006TIP3   OH224508   5.785   4.924  13.202  0.6112 -0.3844 -0.4772
 1006TIP3    H124509   5.711   4.976  13.234  1.5428  0.5271  0.2392
 1006TIP3    H224510   5.780   4.933  13.107  0.0126 -0.0347 -0.4214
 1007TIP3   OH224511   1.814   4.007  13.434  0.5878 -0.4987  0.4307
 1007TIP3    H124512   1.873   4.035  13.364 -0.4310 -0.5811 -0.4849
 1007TIP3    H224513   1.764   3.935  13.395  0.0000 -0.5424  1.2447
 1008TIP3   OH224514   1.881   4.620   4.800  0.2937 -0.1443  0.0143
 1008TIP3    H124515   1.934   4.699   4.788 -1.0952  0.8918  0.4629
 1008TIP3    H224516   1.875   4.610   4.895 -1.1244  0.3540  0.0055
 1009TIP3   OH224517   4.242   2.973  11.982  0.4503 -1.1779 -0.2526
 1009TIP3    H124518   4.237   2.894  12.036 -2.9470 -2.0493 -1.5908
 1009TIP3    H224519   4.239   2.941  11.892  0.3429  0.4474 -0.8568
 1010TIP3   OH224520   6.524   5.881  13.379 -0.2922 -0.5865  0.0946
 1010TIP3    H124521   6.556   5.967  13.354  1.1822 -1.3936 -0.9817
 1010TIP3    H224522   6.429   5.888  13.374 -0.1967  0.0691 -3.3935
 1011TIP3   OH224523   6.570   4.754  16.814 -0.3542  0.0191 -0.3157
 1011TIP3    H124524   6.525   4.785  16.893 -0.6067  0.3740 -0.5951
 1011TIP3    H224525   6.500   4.723  16.757 -0.3362  1.4008 -1.1193
 1012TIP3   OH224526   4.947   4.383   2.726 -0.1388  0.2363 -0.4885
 1012TIP3    H124527   4.951   4.304   2.671  2.0637  0.3201 -0.5602
 1012TIP3    H224528   5.004   4.362   2.800 -0.6268  1.2721  0.1966
 1013TIP3   OH224529   1.630   6.207   2.556  0.0641  0.1896 -0.3790
 1013TIP3    H124530   1.718   6.183   2.583 -0.7564 -1.2033  1.2314
 1013TIP3    H224531   1.577   6.199   2.635 -1.3736  1.8916 -1.0861
 1014TIP3   OH224532   4.878   4.896   6.251  0.4789 -0.2797 -0.3729
 1014TIP3    H124533   4.792   4.901   6.209  0.5228 -2.0060 -0.7316
 1014TIP3    H224534   4.859   4.891   6.345  0.2984  1.4536 -0.2900
 1015TIP3   OH224535   5.941   1.462  12.675 -0.0406 -0.1195  0.7526
 1015TIP3    H124536   5.916   1.552  12.654  0.1310  0.2222  1.9500
 1015TIP3    H224537   5.911   1.449  12.765 -0.9771 -1.6144  0.2745
 1016TIP3   OH224538   6.796   0.675   6.278  0.0125 -0.0097  0.3170
 1016TIP3    H124539   6.849   0.716   6.209 -1.5279  0.9456 -0.3430
 1016TIP3    H224540   6.829   0.714   6.359  0.4285  0.4611 -0.0689
 1017TIP3   OH224541   4.069   0.692  12.705 -0.3206 -0.3063 -0.4303
 1017TIP3    H124542   4.052   0.690  12.610 -0.5747  2.3358 -0.5025
 1017TIP3    H224543   3.996   0.643  12.743 -0.2807 -1.3024 -1.5625
 1018TIP3   OH224544   3.930   1.482   3.023 -0.5115 -0.2900 -0.3078
 1018TIP3    H124545   3.917   1.472   2.929  0.0797 -0.7320 -0.3462
 1018TIP3    H224546   3.861   1.429   3.063 -0.3904 -0.5847 -0.4931
 1019TIP3   OH224547   1.577   4.707  13.587  0.0677  0.1277 -0.1012
 1019TIP3    H124548   1.507   4.643  13.602  0.0832  0.4749  1.6622
 1019TIP3    H224549   1.658   4.658  13.602  0.1296  0.2783  0.0486
 1020TIP3   OH224550   5.824   1.246  13.804  0.2659  0.7110 -0.1202
 1020TIP3    H124551   5.887   1.177  13.780 -0.5742  0.6777 -2.4717
 1020TIP3    H224552   5.860   1.284  13.884  1.0038 -2.1340  1.0418
 1021TIP3   OH224553   4.457   5.934  11.782 -0.2795  0.6766  0.4289
 1021TIP3    H124554   4.486   6.016  11.742 -0.7737  1.1826  1.0769
 1021TIP3    H224555   4.397   5.962  11.851 -1.7162 -0.2990 -0.3771
 1022TIP3   OH224556   3.931   2.311  10.510 -0.1287 -0.1876 -0.2699
 1022TIP3    H124557   3.972   2.372  10.448 -1.1444  0.0625 -0.7187
 1022TIP3    H224558   3.856   2.276  10.462 -0.3958 -0.6867  0.5057
 1023TIP3   OH224559   3.695   3.724   2.876  0.0339  0.5509  0.4208
 1023TIP3    H124560   3.786   3.708   2.851 -0.5903 -1.5776 -0.6594
 1023TIP3    H224561   3.643   3.696   2.801 -1.6082  0.0869  1.6561
 1024TIP3   OH224562   0.066   5.958  13.042 -0.0141 -0.0250 -0.1557
 1024TIP3    H124563  -0.019   6.001  13.042  0.8144  1.6914 -0.8673
 1024TIP3    H224564   0.088   5.948  13.135  0.6802  3.0611  0.1014
 1025TIP3   OH224565   4.735   5.232  15.104  0.3013 -0.1024 -0.3605
 1025TIP3    H124566   4.830   5.224  15.118  0.1355 -0.6725  0.5155
 1025TIP3    H224567   4.727   5.283  15.024  1.3496  1.5143  0.5067
 1026TIP3   OH224568   5.533   2.812  13.180  0.4605  0.0152  0.6136
 1026TIP3    H124569   5.484   2.734  13.205 -1.0045  0.5353 -0.5207
 1026TIP3    H224570   5.613   2.808  13.233  1.3235 -3.2037 -0.6931
 1027TIP3   OH224571   4.447   6.018  16.953  0.3923 -0.3688  0.0366
 1027TIP3    H124572   4.520   5.967  16.918  0.1957 -1.9277  1.7186
 1027TIP3    H224573   4.487   6.098  16.988  1.2289 -0.9119  0.3571
 1028TIP3   OH224574   3.695   1.092   4.370  0.1749  0.4262  0.3190
 1028TIP3    H124575   3.732   1.146   4.439 -1.4363 -0.8169  2.2951
 1028TIP3    H224576   3.643   1.153   4.317  0.2962  1.1994  1.0633
 1029TIP3   OH224577   6.675   6.308  14.207  0.3296 -0.4308  0.5125
 1029TIP3    H124578   6.749   6.309  14.146  1.5268 -0.1327  1.8932
 1029TIP3    H224579   6.617   6.377  14.175  2.4652  1.9633  1.4184
 1030TIP3   OH224580   4.081   2.338   1.273 -0.4070 -0.2306 -0.2358
 1030TIP3    H124581   4.149   2.307   1.333  0.2053  1.2899 -0.0877
 1030TIP3    H224582   4.017   2.381   1.330 -1.3457 -1.3321 -0.4130
 1031TIP3   OH224583   5.799   5.986   3.932 -0.1825  0.0977 -1.0005
 1031TIP3    H124584   5.854   6.032   3.996  0.2881 -0.4352 -1.0092
 1031TIP3    H224585   5.756   5.918   3.983 -0.2550  0.0372 -1.1418
 1032TIP3   OH224586   0.506   5.596  14.123  0.1270 -0.5386 -0.4499
 1032TIP3    H124587   0.598   5.622  14.134  0.2615 -1.3576  0.4629
 1032TIP3    H224588   0.458   5.651  14.184 -0.1195  0.4990 -1.5388
 1033TIP3   OH224589   3.338   0.637   5.931  0.3812 -0.0434 -0.1539
 1033TIP3    H124590   3.327   0.610   5.840  0.4154  1.0993 -0.5127
 1033TIP3    H224591   3.433   0.639   5.945  0.3994  0.5437 -0.3394
 1034TIP3   OH224592   3.852   1.873  16.528  0.2520  0.1089 -0.5463
 1034TIP3    H124593   3.885   1.831  16.449  2.0170 -0.2594  0.3387
 1034TIP3    H224594   3.930   1.907  16.572 -0.9739  3.9425 -0.9436
 1035TIP3   OH224595   5.211   3.819   5.720  0.0735  0.0474  0.2118
 1035TIP3    H124596   5.241   3.840   5.808 -1.4449 -0.2774  0.8315
 1035TIP3    H224597   5.211   3.723   5.717 -2.0969 -0.0282  0.7184
 1036TIP3   OH224598   1.794   2.604  13.315 -0.6114  0.4462 -0.2986
 1036TIP3    H124599   1.889   2.610  13.316 -0.4884 -0.9014  1.6909
 1036TIP3    H224600   1.775   2.517  13.282 -1.1821  0.8382 -1.0304
 1037TIP3   OH224601   5.005   6.472   4.066 -0.2579  0.0792 -0.0490
 1037TIP3    H124602   4.910   6.484   4.064 -0.6695 -2.5569 -0.8273
 1037TIP3    H224603   5.022   6.431   4.151  0.0603 -0.2280 -0.2580
 1038TIP3   OH224604   4.459   0.228  16.350  0.4732  0.6227  0.4580
 1038TIP3    H124605   4.444   0.285  16.426 -0.8199  2.5002 -1.1172
 1038TIP3    H224606   4.550   0.199  16.359  0.6059  1.4515  2.2660
 1039TIP3   OH224607   0.484   4.903   4.354  0.1089 -0.6233 -0.3972
 1039TIP3    H124608   0.398   4.930   4.387  0.5637  1.7359 -0.9195
 1039TIP3    H224609   0.519   4.846   4.422 -0.3178  1.4635  1.7393
 1040TIP3   OH224610   6.807   6.365  14.990  0.4949  0.0741  0.3340
 1040TIP3    H124611   6.714   6.385  15.003 -0.0527 -0.3505 -2.3212
 1040TIP3    H224612   6.822   6.287  15.043 -0.6394  0.1971  0.8668
 1041TIP3   OH224613   5.223   5.757  10.502 -0.0647 -0.0843  0.4681
 1041TIP3    H124614   5.149   5.745  10.444 -0.3530 -0.2618  0.8657
 1041TIP3    H224615   5.296   5.780  10.444 -0.3303 -0.3199  0.0364
 1042TIP3   OH224616   5.791   6.593  11.574  0.0912  0.3209  0.0426
 1042TIP3    H124617   5.827   6.569  11.489 -1.6714  0.9625 -0.9461
 1042TIP3    H224618   5.742   6.674  11.558 -0.2213  0.5001  1.6840
 1043TIP3   OH224619   5.774   3.414   4.801 -1.0209  0.3363  0.3260
 1043TIP3    H124620   5.808   3.331   4.833  1.7819  0.9193 -0.8980
 1043TIP3    H224621   5.775   3.471   4.878  2.4394  0.7632  0.1057
 1044TIP3   OH224622   3.395   6.830  13.417  0.2577 -0.6258 -0.0404
 1044TIP3    H124623   3.369   6.791  13.501  1.5228 -0.8279  0.2813
 1044TIP3    H224624   3.359   6.919  13.420  0.0415 -0.7267  0.5875
 1045TIP3   OH224625   3.855   0.822  14.104 -0.1656 -0.4904  0.1010
 1045TIP3    H124626   3.939   0.792  14.071 -0.1176  0.5136 -0.7534
 1045TIP3    H224627   3.849   0.786  14.192  0.6079 -1.5748 -0.2687
 1046TIP3   OH224628   4.865   4.737  16.358  0.2961 -0.2062  0.6127
 1046TIP3    H124629   4.899   4.826  16.353 -2.1354  0.7709  0.4792
 1046TIP3    H224630   4.838   4.716  16.269  1.8477 -1.5614  0.4019
 1047TIP3   OH224631   1.319   6.382  10.856  0.4791  0.1317  0.5121
 1047TIP3    H124632   1.254   6.434  10.807  0.4759  1.1760  1.5768
 1047TIP3    H224633   1.399   6.389  10.804 -0.5691 -2.5206 -1.6997
 1048TIP3   OH224634   3.048   6.212   5.994 -0.1319  0.0066 -0.1448
 1048TIP3    H124635   3.092   6.254   6.068 -2.1829  0.2193  1.0609
 1048TIP3    H224636   2.954   6.226   6.012 -0.7119 -0.2789 -2.5995
 1049TIP3   OH224637   2.789   6.543   4.738  0.3284 -0.1012  0.1689
 1049TIP3    H124638   2.813   6.452   4.721 -0.4869 -0.4624  0.8813
 1049TIP3    H224639   2.742   6.541   4.821 -0.1588  0.8957 -0.0605
 1050TIP3   OH224640   1.651   4.226   0.361  0.0797  0.0427 -0.4057
 1050TIP3    H124641   1.601   4.297   0.320  1.1014  2.1173  1.7445
 1050TIP3    H224642   1.588   4.182   0.417 -0.1766  0.3074 -0.4804
 1051TIP3   OH224643   1.971   2.896  12.156 -0.2569 -0.3219 -0.2563
 1051TIP3    H124644   1.912   2.945  12.098  0.3518 -0.6344 -1.1549
 1051TIP3    H224645   1.989   2.815  12.110 -1.9192 -1.8359  1.5896
 1052TIP3   OH224646   1.943   3.764   2.297 -0.1996  0.1653  0.3465
 1052TIP3    H124647   1.860   3.716   2.294 -1.2422  1.8878  0.3862
 1052TIP3    H224648   1.918   3.856   2.302  1.7245  0.8041 -0.6064
 1053TIP3   OH224649   6.388   0.549   3.096 -0.2055  0.9225  0.1082
 1053TIP3    H124650   6.358   0.462   3.073  0.2227  0.9566 -0.5965
 1053TIP3    H224651   6.346   0.607   3.033 -0.6072  1.2533  0.6644
 1054TIP3   OH224652   1.573   0.925  13.212 -0.5977  0.8339 -0.4520
 1054TIP3    H124653   1.557   0.890  13.300  1.9049  1.5734  0.3945
 1054TIP3    H224654   1.523   0.868  13.154  1.1321 -2.5639  1.0776
 1055TIP3   OH224655   5.229   0.290   3.088 -0.0844 -0.1388  0.3735
 1055TIP3    H124656   5.265   0.377   3.067  0.3523 -0.7745 -1.7203
 1055TIP3    H224657   5.305   0.239   3.116 -0.3048  0.0557  1.3736
 1056TIP3   OH224658   0.218   2.707  16.329  0.0164  0.1673  0.2682
 1056TIP3    H124659   0.233   2.741  16.417 -1.0481  0.4861  0.3341
 1056TIP3    H224660   0.181   2.620  16.343 -0.2807  0.2732  0.1346
 1057TIP3   OH224661   0.122   1.629  16.082  0.3045 -0.3668  0.3109
 1057TIP3    H124662   0.140   1.663  16.170  1.9159 -0.9049  0.2142
 1057TIP3    H224663   0.031   1.653  16.066  0.2253  0.4679  1.7953
 1058TIP3   OH224664   0.029   0.123  13.006  0.4526  0.0564 -0.0423
 1058TIP3    H124665  -0.015   0.094  12.926  1.5119 -1.4446 -0.1299
 1058TIP3    H224666   0.036   0.218  12.997  0.9304 -0.1288 -1.9284
 1059TIP3   OH224667   2.496   4.366   1.202 -0.1830 -0.0222 -0.1161
 1059TIP3    H124668   2.473   4.287   1.153 -0.8192  0.6540 -0.9396
 1059TIP3    H224669   2.588   4.354   1.226 -0.1649 -0.8324 -0.5661
 1060TIP3   OH224670   5.897   0.902  10.652  0.6952  0.0732  0.0973
 1060TIP3    H124671   5.860   0.875  10.568 -0.1715  1.0874  0.1224
 1060TIP3    H224672   5.977   0.949  10.630  0.9129 -0.3808 -0.0969
 1061TIP3   OH224673   5.869   2.914   3.393 -0.1633 -0.0679 -0.1932
 1061TIP3    H124674   5.934   2.860   3.437  0.6956  0.1351 -1.1685
 1061TIP3    H224675   5.861   2.992   3.448  0.0519 -0.3105  0.1847
 1062TIP3   OH224676   1.160   3.376   1.642  0.4977  0.1947 -0.0647
 1062TIP3    H124677   1.193   3.453   1.596 -1.0089  0.0032 -1.5679
 1062TIP3    H224678   1.140   3.407   1.730 -0.1262  1.5451 -0.6522
 1063TIP3   OH224679   4.114   6.102   4.890  0.0327  0.1931 -0.2604
 1063TIP3    H124680   4.113   6.013   4.854 -0.4818  1.0940 -2.6415
 1063TIP3    H224681   4.163   6.153   4.826 -0.0142  1.7355  0.8777
 1064TIP3   OH224682   2.541   6.820  16.054 -0.4698  1.0116 -0.3103
 1064TIP3    H124683   2.582   6.796  16.137  1.3979  0.3515 -1.3505
 1064TIP3    H224684   2.472   6.754  16.041  1.2517 -0.8385 -0.6871
 1065TIP3   OH224685   5.934   3.733   1.132  0.1232 -0.2625  0.3000
 1065TIP3    H124686   5.882   3.790   1.075 -1.6656 -0.0012  2.0767
 1065TIP3    H224687   5.918   3.645   1.099 -0.4545 -0.0735  0.0626
 1066TIP3   OH224688   0.833   1.672   1.163  0.3001  0.3373  0.2572
 1066TIP3    H124689   0.785   1.690   1.082 -0.0431 -1.6473 -0.0347
 1066TIP3    H224690   0.837   1.757   1.207 -2.0757  0.9245 -0.4657
 1067TIP3   OH224691   4.312   0.114   1.150 -0.1451  0.5898  0.2060
 1067TIP3    H124692   4.377   0.052   1.184  1.3989  2.0006  0.0042
 1067TIP3    H224693   4.239   0.059   1.122 -0.1232 -0.9022  2.7050
 1068TIP3   OH224694   6.656   3.491  14.212 -0.1523 -0.4238 -0.3011
 1068TIP3    H124695   6.748   3.511  14.194 -0.6866  1.5905 -1.0786
 1068TIP3    H224696   6.657   3.400  14.243  2.0288 -0.6042 -0.7155
 1069TIP3   OH224697   4.090   5.912  16.105 -1.0375  0.2780 -0.2810
 1069TIP3    H124698   4.025   5.953  16.049 -2.9591 -2.1761 -0.0257
 1069TIP3    H224699   4.094   5.821  16.075  1.8120  0.1531  0.1708
 1070TIP3   OH224700   2.951   1.493  16.700 -0.4042  0.2103 -0.0221
 1070TIP3    H124701   2.887   1.451  16.644 -0.7682 -1.1263  1.3467
 1070TIP3    H224702   2.909   1.498  16.786 -0.5780  3.8531 -0.1539
 1071TIP3   OH224703   1.317   4.169  12.017  0.4977 -0.0366  0.8551
 1071TIP3    H124704   1.350   4.153  12.105  0.2637 -0.8252  0.8012
 1071TIP3    H224705   1.256   4.097  12.000  1.4258 -0.5624 -0.4023
 1072TIP3   OH224706   2.710   6.378   5.495 -0.5207 -0.0065 -0.1124
 1072TIP3    H124707   2.630   6.409   5.538  0.5141 -0.0344  1.9548
 1072TIP3    H224708   2.703   6.283   5.497 -0.3900 -0.0102  0.1570
 1073TIP3   OH224709   3.280   5.050  12.474 -0.0499 -0.7334  0.1211
 1073TIP3    H124710   3.272   4.977  12.534 -0.0575 -0.3724  0.5615
 1073TIP3    H224711   3.257   5.014  12.388 -1.0389 -1.0115  0.4899
 1074TIP3   OH224712   1.392   1.206   2.944  0.2208 -0.2094  0.0681
 1074TIP3    H124713   1.404   1.240   2.855 -0.1631  0.2061  0.1703
 1074TIP3    H224714   1.453   1.257   2.997 -0.1509  0.1276  0.1753
 1075TIP3   OH224715   2.667   5.348  11.771 -0.0470 -0.1810 -0.2965
 1075TIP3    H124716   2.755   5.343  11.733  0.2183  0.6377  0.1986
 1075TIP3    H224717   2.641   5.439  11.759 -0.0855  0.0256  1.1997
 1076TIP3   OH224718   1.644   2.491   4.761 -0.0003  0.4301  0.4743
 1076TIP3    H124719   1.571   2.450   4.716  1.0753  0.7247 -1.6440
 1076TIP3    H224720   1.610   2.576   4.789 -1.4384 -0.7434  2.5644
 1077TIP3   OH224721   1.315   1.884   1.972  0.3161  0.0402 -0.5816
 1077TIP3    H124722   1.279   1.795   1.969  1.4760 -0.4554 -0.4609
 1077TIP3    H224723   1.407   1.871   1.996  0.9069  1.1648 -2.1546
 1078TIP3   OH224724   0.358   5.675  13.216  0.1759 -0.8761 -0.0691
 1078TIP3    H124725   0.346   5.733  13.291 -0.0248 -0.6691 -0.2591
 1078TIP3    H224726   0.387   5.734  13.145  1.6692 -1.2533  0.1949
 1079TIP3   OH224727   3.794   0.874   1.476  0.5169 -0.2731  0.3459
 1079TIP3    H124728   3.820   0.948   1.530 -1.1892 -0.3337  1.3175
 1079TIP3    H224729   3.788   0.801   1.537  1.0851 -0.9661 -0.4045
 1080TIP3   OH224730   2.002   2.723  13.138 -0.9543  0.2476 -0.1099
 1080TIP3    H124731   1.987   2.807  13.094 -0.8118  0.6744  0.6360
 1080TIP3    H224732   2.029   2.747  13.226  0.3880 -0.5660 -0.2722
 1081TIP3   OH224733   2.275   1.156   3.397 -0.2664  0.0473 -0.4894
 1081TIP3    H124734   2.238   1.215   3.462 -2.5521  0.2939 -1.8771
 1081TIP3    H224735   2.258   1.068   3.431 -1.1239  0.1815 -0.5473
 1082TIP3   OH224736   1.942   3.804   6.557 -0.1822  0.6214  0.2801
 1082TIP3    H124737   1.987   3.879   6.595  1.5236  0.1784 -0.7867
 1082TIP3    H224738   1.859   3.799   6.605  1.0352  1.2445  2.5629
 1083TIP3   OH224739   2.381   5.911   3.167  0.3319  0.0566  0.2699
 1083TIP3    H124740   2.300   5.870   3.196  0.1160 -0.3138 -0.8257
 1083TIP3    H224741   2.356   5.965   3.092  1.3522 -1.3728 -1.1610
 1084TIP3   OH224742   5.775   2.863   0.435  0.6626  0.1025 -0.3478
 1084TIP3    H124743   5.797   2.817   0.516  1.8261  1.1098 -0.0528
 1084TIP3    H224744   5.756   2.794   0.372  1.2237 -0.7335  0.3742
 1085TIP3   OH224745   4.994   5.179  15.641  0.2440  0.0529 -0.1486
 1085TIP3    H124746   4.938   5.231  15.584  1.8282  1.4651 -0.4932
 1085TIP3    H224747   5.041   5.120  15.581 -0.3754 -0.6796  0.0695
 1086TIP3   OH224748   6.208   6.254   4.232  0.1740 -0.1558 -0.0354
 1086TIP3    H124749   6.144   6.322   4.212  1.4377  1.6898  1.8109
 1086TIP3    H224750   6.268   6.255   4.157 -1.2859 -1.1821 -1.2836
 1087TIP3   OH224751   4.748   2.180   1.780 -0.0614  0.0730 -0.1159
 1087TIP3    H124752   4.768   2.215   1.693 -0.1271 -0.5451 -0.3888
 1087TIP3    H224753   4.833   2.164   1.820 -0.0306  0.5831  0.0305
 1088TIP3   OH224754   2.448   4.093   0.134  0.1612 -0.2822 -0.1457
 1088TIP3    H124755   2.485   4.048   0.210  0.4996  0.1074 -0.0779
 1088TIP3    H224756   2.355   4.100   0.153  0.1213 -0.8669 -0.1123
 1089TIP3   OH224757   1.261   0.484  15.169  0.9467 -0.6356 -0.0031
 1089TIP3    H124758   1.276   0.528  15.253  1.7740  0.2484 -0.5883
 1089TIP3    H224759   1.257   0.391  15.191 -0.5457 -0.3251  1.2346
 1090TIP3   OH224760   1.827   1.908   0.469 -0.0421  0.2265 -0.3691
 1090TIP3    H124761   1.841   1.943   0.557 -1.2543  1.1233 -0.5054
 1090TIP3    H224762   1.857   1.817   0.475  1.3706  0.7099  0.5212
 1091TIP3   OH224763   4.965   0.694  12.081  0.1983 -0.0069  0.4359
 1091TIP3    H124764   4.936   0.605  12.059  1.6991 -0.3263 -0.3909
 1091TIP3    H224765   4.884   0.743  12.094 -0.6622 -1.5769  1.2921
 1092TIP3   OH224766   3.725   0.412   4.189  0.7763 -0.1826 -0.0283
 1092TIP3    H124767   3.815   0.444   4.184  1.5260 -1.8010  1.7206
 1092TIP3    H224768   3.686   0.461   4.261 -0.0031  1.0204 -1.2384
 1093TIP3   OH224769   2.169   1.069  14.765  0.2390 -0.1251  0.1723
 1093TIP3    H124770   2.095   1.064  14.703 -0.1418  0.3689  0.5811
 1093TIP3    H224771   2.194   1.162  14.764 -0.1515 -0.0010  1.1975
 1094TIP3   OH224772   0.972   4.714   3.688  0.1080 -0.2149 -0.3122
 1094TIP3    H124773   0.968   4.625   3.653 -1.0070 -0.3207  0.0345
 1094TIP3    H224774   0.920   4.711   3.768 -0.6328  0.9250 -0.7163
 1095TIP3   OH224775   1.857   0.429   2.204  0.0717  0.3590  0.2401
 1095TIP3    H124776   1.780   0.461   2.157  0.2121  0.2223 -0.0836
 1095TIP3    H224777   1.824   0.405   2.291  0.0060  1.6640  0.6033
 1096TIP3   OH224778   3.019   0.443   3.004  0.5232 -0.2583  0.0083
 1096TIP3    H124779   3.043   0.353   2.983 -1.2433 -1.4935  2.7395
 1096TIP3    H224780   2.986   0.439   3.093 -3.3305  2.3373 -1.0404
 1097TIP3   OH224781   2.259   6.606  11.971  0.2915 -0.2090 -0.3503
 1097TIP3    H124782   2.326   6.630  11.906  1.8684  1.1314  1.6612
 1097TIP3    H224783   2.297   6.532  12.019  0.8139  1.1575  1.4256
 1098TIP3   OH224784   4.761   5.628   4.189 -0.1046  0.1165 -0.2284
 1098TIP3    H124785   4.747   5.688   4.116  0.4696  0.4846 -0.0446
 1098TIP3    H224786   4.777   5.543   4.148 -0.5396  0.1671 -0.5041
 1099TIP3   OH224787   4.427   0.274   5.582 -0.3918  0.2335  0.1209
 1099TIP3    H124788   4.380   0.346   5.541 -1.3658  0.9121  2.2798
 1099TIP3    H224789   4.382   0.195   5.551 -2.3214  0.8206  1.2887
 1100TIP3   OH224790   2.585   2.612  11.961  0.0604  0.1085 -0.1196
 1100TIP3    H124791   2.632   2.602  12.044  0.3312 -0.0117 -0.2860
 1100TIP3    H224792   2.585   2.707  11.945  1.2129  0.0313 -0.6672
 1101TIP3   OH224793   5.951   2.496  16.906 -0.5588 -0.3393 -0.2254
 1101TIP3    H124794   6.044   2.484  16.928 -0.6153  0.9517  0.8787
 1101TIP3    H224795   5.923   2.411  16.873  1.0742 -0.6836 -0.8225
 1102TIP3   OH224796   4.494   3.084   1.744 -0.4887 -0.1591 -0.1647
 1102TIP3    H124797   4.494   3.006   1.687  0.5012  0.2960 -0.7961
 1102TIP3    H224798   4.434   3.144   1.701 -1.2052 -0.5265  0.2899
 1103TIP3   OH224799   6.794   1.090  11.067  0.1304 -0.3534  0.0718
 1103TIP3    H124800   6.708   1.072  11.029  1.6176 -2.5143 -2.6374
 1103TIP3    H224801   6.800   1.032  11.143 -1.3145  0.9952  1.2987
 1104TIP3   OH224802   0.389   2.138   5.082 -0.2739  0.4003 -0.2531
 1104TIP3    H124803   0.427   2.137   4.995  2.2060  1.1894  0.7254
 1104TIP3    H224804   0.432   2.066   5.128 -1.4706  0.0548  0.3593
 1105TIP3   OH224805   3.058   1.684   1.623  0.2587 -0.3358  0.1877
 1105TIP3    H124806   3.077   1.705   1.714 -1.5916 -0.4046  0.6223
 1105TIP3    H224807   3.105   1.602   1.607  2.4404  0.8104  0.3571
 1106TIP3   OH224808   6.347   5.001  15.927  0.2381 -0.0067 -0.5829
 1106TIP3    H124809   6.284   4.967  15.864  1.5277 -0.4185 -1.6970
 1106TIP3    H224810   6.303   4.992  16.012 -1.1970 -0.2428 -1.3166
 1107TIP3   OH224811   0.093   0.683  16.019  0.3868  0.5077 -0.0586
 1107TIP3    H124812   0.060   0.772  16.005 -0.6313  0.5778  2.3788
 1107TIP3    H224813   0.181   0.695  16.055 -0.1101  0.5850  1.1632
 1108TIP3   OH224814   4.638   6.750  11.937  0.1383 -0.2544  0.0704
 1108TIP3    H124815   4.697   6.758  11.862  0.4802  0.8207  0.4316
 1108TIP3    H224816   4.630   6.656  11.951  0.5814 -0.4539 -0.9100
 1109TIP3   OH224817   5.038   4.920   4.926  0.2936 -0.2473  0.4072
 1109TIP3    H124818   5.099   4.955   4.861 -1.6352  0.1372 -1.3015
 1109TIP3    H224819   5.094   4.873   4.988  2.2908 -0.1590 -1.2079
 1110TIP3   OH224820   2.609   3.561   0.326 -0.2320 -0.0114  0.5654
 1110TIP3    H124821   2.687   3.590   0.374 -0.3141  1.2027 -0.0164
 1110TIP3    H224822   2.639   3.488   0.273  0.8096  1.1612 -0.5150
 1111TIP3   OH224823   0.899   3.218  10.691 -0.1919  0.8538 -0.2032
 1111TIP3    H124824   0.945   3.137  10.672 -0.7946  0.9084 -2.1911
 1111TIP3    H224825   0.856   3.203  10.775  0.5364 -0.4918 -0.0523
 1112TIP3   OH224826   1.252   1.359  10.142  0.2795 -0.4153 -0.9603
 1112TIP3    H124827   1.320   1.293  10.129  0.4891 -0.0521 -1.7535
 1112TIP3    H224828   1.172   1.317  10.109 -0.2910 -1.5261  1.5889
 1113TIP3   OH224829   4.211   5.169   1.725 -0.0152  0.0065  0.2197
 1113TIP3    H124830   4.247   5.156   1.638 -0.4296 -2.7165  0.3775
 1113TIP3    H224831   4.277   5.134   1.784 -0.9419 -0.8637  0.7781
 1114TIP3   OH224832   0.756   1.847   5.259  0.1338 -0.7824  0.4429
 1114TIP3    H124833   0.779   1.794   5.335 -0.9299  1.7509  2.6784
 1114TIP3    H224834   0.840   1.876   5.223  0.6652  0.1202  2.3033
 1115TIP3   OH224835   4.825   2.581   4.157 -0.6477 -0.5949 -0.5972
 1115TIP3    H124836   4.913   2.608   4.182 -0.4124 -2.7849  1.2991
 1115TIP3    H224837   4.768   2.653   4.187  0.3520  0.1557 -0.4496
 1116TIP3   OH224838   3.294   4.349   0.883 -0.5039  0.4156  0.0222
 1116TIP3    H124839   3.346   4.273   0.859 -0.3835  0.5173 -0.0414
 1116TIP3    H224840   3.357   4.409   0.923 -0.5624  0.5667 -0.1144
 1117TIP3   OH224841   1.139   3.840   3.516 -0.5658 -0.4892 -0.0752
 1117TIP3    H124842   1.191   3.903   3.465 -2.4872 -0.1829 -1.8118
 1117TIP3    H224843   1.091   3.895   3.579 -0.6415 -0.4497 -0.1654
 1118TIP3   OH224844   3.417   4.733  11.762 -0.3117  0.1155 -0.2922
 1118TIP3    H124845   3.406   4.645  11.798 -0.2801 -0.5760 -1.8808
 1118TIP3    H224846   3.383   4.791  11.830  1.1511 -0.9997  1.4736
 1119TIP3   OH224847   2.881   1.009  12.424 -0.2275 -0.1364 -0.2453
 1119TIP3    H124848   2.816   1.080  12.427 -0.4000 -0.2648 -0.7836
 1119TIP3    H224849   2.946   1.034  12.490 -1.9371 -1.1436  1.9545
 1120TIP3   OH224850   3.448   0.497   4.359 -0.2531 -0.3332  0.0669
 1120TIP3    H124851   3.405   0.484   4.444 -3.5334 -0.3476 -1.4447
 1120TIP3    H224852   3.532   0.538   4.381  0.1219 -2.4402  3.4296
 1121TIP3   OH224853   4.350   3.649  11.434 -0.3411 -0.6295  0.2178
 1121TIP3    H124854   4.438   3.683  11.418 -0.4486 -0.7783 -0.7684
 1121TIP3    H224855   4.331   3.595  11.357 -1.7640  0.3714 -0.1688
 1122TIP3   OH224856   1.362   6.088   3.424 -0.5784 -0.2436 -0.4020
 1122TIP3    H124857   1.380   6.026   3.495 -1.2409  1.0266  0.9014
 1122TIP3    H224858   1.443   6.139   3.416  0.7162 -2.3993 -2.7783
 1123TIP3   OH224859   1.535   3.672   0.631  0.1152  0.0559  0.5176
 1123TIP3    H124860   1.593   3.596   0.629 -0.8779 -0.7493  1.1097
 1123TIP3    H224861   1.478   3.657   0.707 -0.2878  1.2590  0.4862
 1124TIP3   OH224862   3.188   3.264  16.765 -0.0561 -0.5283  0.3070
 1124TIP3    H124863   3.203   3.225  16.679  0.8337 -0.3139  0.3530
 1124TIP3    H224864   3.171   3.190  16.823 -1.7907 -0.6110 -0.2512
 1125TIP3   OH224865   4.944   1.153   0.457  0.1256 -0.0777  0.2654
 1125TIP3    H124866   4.975   1.106   0.379 -1.9128 -1.1129  0.0068
 1125TIP3    H224867   5.014   1.142   0.521  1.7138  0.5107 -1.2854
 1126TIP3   OH224868   3.651   0.600   2.544 -0.4162 -0.1935 -0.2367
 1126TIP3    H124869   3.563   0.576   2.573 -0.0921 -1.0500  0.0551
 1126TIP3    H224870   3.694   0.633   2.622  0.7654 -3.3725  0.5997
 1127TIP3   OH224871   4.384   4.720   1.640 -0.6549  0.4097 -0.2795
 1127TIP3    H124872   4.440   4.797   1.652 -1.1624  0.5518  1.5339
 1127TIP3    H224873   4.350   4.728   1.551 -0.4362  2.0973 -0.2451
 1128TIP3   OH224874   3.083   2.381   4.267 -0.1435 -0.2969 -0.0681
 1128TIP3    H124875   3.067   2.425   4.184  1.1168 -0.5490 -0.4707
 1128TIP3    H224876   3.146   2.437   4.312 -1.9415  0.6504  1.4305
 1129TIP3   OH224877   2.031   5.651  10.840 -0.2199 -0.8887 -0.0814
 1129TIP3    H124878   1.991   5.728  10.800 -0.6665 -1.1397 -0.1198
 1129TIP3    H224879   1.964   5.617  10.900  0.2914 -0.7492  0.5809
 1130TIP3   OH224880   4.840   0.566  15.987 -0.1425 -0.1186 -0.2556
 1130TIP3    H124881   4.925   0.555  15.944 -0.3840 -4.9434 -0.0878
 1130TIP3    H224882   4.776   0.563  15.916 -0.3228 -3.2118 -0.0784
 1131TIP3   OH224883   0.655   0.220  14.238 -0.5921 -0.4920  0.1894
 1131TIP3    H124884   0.734   0.269  14.263 -0.8000  0.7147 -1.3452
 1131TIP3    H224885   0.634   0.168  14.315  1.6619 -0.8174  0.6661
 1132TIP3   OH224886   2.491   5.261   0.977 -0.2842 -0.2582 -0.0224
 1132TIP3    H124887   2.497   5.276   1.071 -0.1267 -1.8742  0.2466
 1132TIP3    H224888   2.464   5.170   0.968 -0.7513 -0.0065 -1.5459
 1133TIP3   OH224889   4.707   3.603   4.556  0.4588 -0.6517 -0.1941
 1133TIP3    H124890   4.746   3.515   4.555  0.1706 -0.8376  1.3668
 1133TIP3    H224891   4.770   3.656   4.604  0.8664  0.1383 -1.5742
 1134TIP3   OH224892   2.449   4.861   4.587 -0.1230  0.1155 -0.2729
 1134TIP3    H124893   2.421   4.849   4.497  0.9987  2.0594 -0.9357
 1134TIP3    H224894   2.368   4.860   4.638 -0.6929 -1.9065 -1.1482
 1135TIP3   OH224895   6.525   5.516   2.603 -0.0553  0.0077  0.4684
 1135TIP3    H124896   6.527   5.548   2.513  0.9177 -2.9793 -0.6908
 1135TIP3    H224897   6.484   5.587   2.652  1.0829  2.5370 -1.9496
 1136TIP3   OH224898   0.904   5.957  12.657  0.3043  0.0652  0.3023
 1136TIP3    H124899   0.956   5.916  12.726  0.4660 -1.2103 -0.5275
 1136TIP3    H224900   0.880   6.043  12.692  0.7538 -0.3658  1.7474
 1137TIP3   OH224901   4.958   4.232  13.868 -0.2333  0.4840  0.1574
 1137TIP3    H124902   4.941   4.325  13.854 -2.7709 -0.1034 -1.1778
 1137TIP3    H224903   5.022   4.209  13.801  0.4792  1.2387  0.5475
 1138TIP3   OH224904   2.936   3.305   0.709 -0.5167  0.5881 -0.1590
 1138TIP3    H124905   3.001   3.358   0.662  0.2300 -0.0890  0.0939
 1138TIP3    H224906   2.958   3.215   0.687 -0.9284  0.3196  0.5010
 1139TIP3   OH224907   4.268   4.981   3.927  0.1162  0.0481 -0.4147
 1139TIP3    H124908   4.315   4.900   3.947  1.0975  0.4113 -1.1825
 1139TIP3    H224909   4.252   4.977   3.833 -1.8450 -0.2805 -0.1086
 1140TIP3   OH224910   2.424   2.649   2.582  0.3414  0.3055 -0.3611
 1140TIP3    H124911   2.338   2.692   2.576 -0.5048 -1.3299 -0.5741
 1140TIP3    H224912   2.464   2.686   2.660  0.0090  2.0271 -0.9459
 1141TIP3   OH224913   2.179   5.767   5.980  0.2094 -0.2139  0.8703
 1141TIP3    H124914   2.258   5.741   5.934 -0.0416  0.0623  0.2727
 1141TIP3    H224915   2.141   5.685   6.011 -0.2411 -0.5373 -0.4501
 1142TIP3   OH224916   1.400   5.316   5.416  0.4381  0.3413 -0.1805
 1142TIP3    H124917   1.480   5.361   5.389 -0.2750  1.4580 -0.5211
 1142TIP3    H224918   1.419   5.284   5.504  0.9985  1.2778  0.0568
 1143TIP3   OH224919   1.527   1.118  11.217 -0.0847 -0.3233 -0.3881
 1143TIP3    H124920   1.435   1.104  11.194  0.1849 -0.8548 -1.1937
 1143TIP3    H224921   1.526   1.194  11.275 -0.8013  1.1941 -2.2737
 1144TIP3   OH224922   4.379   4.318   1.505  0.2526  0.1484 -0.4388
 1144TIP3    H124923   4.448   4.352   1.563 -0.8626  0.5796  0.6651
 1144TIP3    H224924   4.410   4.340   1.417  0.3276  2.6659  0.1415
 1145TIP3   OH224925   6.392   6.164  11.507  0.2292 -0.5531  0.2132
 1145TIP3    H124926   6.360   6.244  11.464  4.0769  0.8498 -0.4359
 1145TIP3    H224927   6.415   6.105  11.436  3.1094  0.3015  0.3074
 1146TIP3   OH224928   5.451   4.160  13.542 -0.4194  0.3930 -0.0757
 1146TIP3    H124929   5.380   4.127  13.487 -0.7131  0.6409  0.1529
 1146TIP3    H224930   5.524   4.172  13.482 -0.9430  1.3319 -0.5524
 1147TIP3   OH224931   6.438   3.988  16.581  0.8841  0.2115 -0.1051
 1147TIP3    H124932   6.448   4.013  16.673  1.5583 -0.3004 -0.0320
 1147TIP3    H224933   6.473   3.899  16.576  1.7273  0.5753 -1.0439
 1148TIP3   OH224934   1.394   1.848   2.401 -0.4359 -0.2150 -0.2427
 1148TIP3    H124935   1.344   1.834   2.321 -0.8027 -0.8562  0.0893
 1148TIP3    H224936   1.403   1.761   2.440  1.7373 -0.2643 -0.7467
 1149TIP3   OH224937   3.648   5.124   0.561 -0.0629 -0.3970  0.3712
 1149TIP3    H124938   3.579   5.064   0.589  1.4286 -1.8813  1.0465
 1149TIP3    H224939   3.601   5.197   0.520 -1.9921 -1.5355  0.4220
 1150TIP3   OH224940   5.712   4.834  11.972 -0.1979  0.1217  0.4827
 1150TIP3    H124941   5.632   4.781  11.971 -0.6640  0.7857  1.3404
 1150TIP3    H224942   5.683   4.922  11.948 -0.1103  0.8399  2.7634
 1151TIP3   OH224943   5.241   6.666  11.170 -0.4386 -0.2918  0.5850
 1151TIP3    H124944   5.152   6.697  11.189 -1.2364 -1.7489 -0.4913
 1151TIP3    H224945   5.240   6.574  11.195  1.1324 -0.0750  1.5587
 1152TIP3   OH224946   0.958   2.714   2.207  0.0727  0.3965 -0.0715
 1152TIP3    H124947   0.988   2.805   2.205 -0.5105  0.5749 -0.7755
 1152TIP3    H224948   0.881   2.716   2.264 -3.3056  1.4200 -4.2196
 1153TIP3   OH224949   0.706   5.764  14.969 -0.0022 -0.5433 -0.0290
 1153TIP3    H124950   0.636   5.722  15.017  0.6272  0.0526  1.4655
 1153TIP3    H224951   0.779   5.702  14.974  0.1535 -0.3564  0.0056
 1154TIP3   OH224952   0.419   1.173  16.870 -0.0170 -0.0983 -0.0680
 1154TIP3    H124953   0.434   1.083  16.842 -1.0215 -0.6861  1.2393
 1154TIP3    H224954   0.388   1.217  16.791  0.5091 -0.8788 -0.7279
 1155TIP3   OH224955   3.635   3.274  11.328 -0.1279  0.3978 -0.1451
 1155TIP3    H124956   3.681   3.282  11.244  0.3507  0.5520  0.1263
 1155TIP3    H224957   3.693   3.317  11.391 -2.0776  3.4791 -0.2519
 1156TIP3   OH224958   0.301   0.276   4.335 -0.0304  0.0958 -0.1916
 1156TIP3    H124959   0.225   0.323   4.302 -1.2184 -2.1144 -0.7825
 1156TIP3    H224960   0.375   0.315   4.288 -0.8059  1.9067 -0.0162
 1157TIP3   OH224961   2.750   4.570   4.879 -0.0456  0.3361  0.5286
 1157TIP3    H124962   2.765   4.476   4.895  1.1929  0.4854  0.3294
 1157TIP3    H224963   2.816   4.614   4.933  0.2158  1.0534 -0.3553
 1158TIP3   OH224964   4.496   6.757   1.595  0.3357  0.2217  0.0016
 1158TIP3    H124965   4.411   6.740   1.636  0.3317 -1.5156 -0.6433
 1158TIP3    H224966   4.493   6.849   1.570 -0.2354  0.9851  2.5212
 1159TIP3   OH224967   6.472   5.644   4.292  0.1067  0.4656  0.8200
 1159TIP3    H124968   6.504   5.711   4.232 -1.1616  0.2205 -0.1744
 1159TIP3    H224969   6.398   5.604   4.246 -0.1653 -0.5276  2.0658
 1160TIP3   OH224970   4.689   2.887  12.283 -0.1799  0.0336  0.2902
 1160TIP3    H124971   4.614   2.932  12.244 -1.7254 -2.2683  0.4097
 1160TIP3    H224972   4.653   2.804  12.314  2.3068 -0.8644  0.9609
 1161TIP3   OH224973   5.627   6.611  14.972 -0.0079  0.4913 -0.5156
 1161TIP3    H124974   5.542   6.568  14.962 -0.1618  0.8211 -0.6429
 1161TIP3    H224975   5.691   6.542  14.956 -0.2477  0.1027  0.1512
 1162TIP3   OH224976   3.773   1.716  14.237 -0.7705  0.6598  0.1197
 1162TIP3    H124977   3.738   1.654  14.302 -0.2628 -0.2290 -0.4350
 1162TIP3    H224978   3.866   1.695  14.232 -0.6040  1.4174 -0.1516
 1163TIP3   OH224979   6.447   2.233   4.421 -0.3170  0.3559  0.2970
 1163TIP3    H124980   6.389   2.291   4.470 -1.8199 -1.3403  0.6300
 1163TIP3    H224981   6.512   2.204   4.485  0.0869  1.2037  0.2747
 1164TIP3   OH224982   5.911   0.603  11.929  0.1810  0.2099 -0.1090
 1164TIP3    H124983   5.942   0.573  12.015 -0.3442 -0.1973 -0.0543
 1164TIP3    H224984   5.990   0.605  11.874  0.5250  0.5017  0.3873
 1165TIP3   OH224985   4.968   4.858  15.066 -0.1092  0.8635  0.8450
 1165TIP3    H124986   5.048   4.829  15.109  0.2977 -1.8740 -1.4050
 1165TIP3    H224987   4.902   4.794  15.092 -0.1380 -0.1469 -1.4603
 1166TIP3   OH224988   3.701   1.046  14.194 -0.2237 -0.2147  0.1976
 1166TIP3    H124989   3.773   0.985  14.177 -2.0896 -2.2725 -0.8226
 1166TIP3    H224990   3.697   1.100  14.115  0.0064 -0.2943  0.1303
 1167TIP3   OH224991   4.428   2.373  13.965  0.2017 -0.4294 -0.2772
 1167TIP3    H124992   4.484   2.347  13.892  1.7955  0.2446  0.6442
 1167TIP3    H224993   4.392   2.458  13.938  1.3294  0.1461 -0.0233
 1168TIP3   OH224994   0.518   0.319   2.483 -0.1708  0.3199 -0.0103
 1168TIP3    H124995   0.527   0.368   2.565  0.9306 -0.8287  0.5980
 1168TIP3    H224996   0.524   0.227   2.510  1.4770 -0.0616 -1.5179
 1169TIP3   OH224997   1.864   5.933   2.373  0.2004  0.3304 -0.1349
 1169TIP3    H124998   1.798   5.874   2.409  0.3296 -1.0632 -2.0722
 1169TIP3    H224999   1.814   6.005   2.335 -0.1345 -0.0722 -0.4619
 1170TIP3   OH225000   1.002   2.722   0.909  0.6338 -0.3212 -0.2220
 1170TIP3    H125001   0.937   2.687   0.969  2.2482 -2.7423  0.2410
 1170TIP3    H225002   0.958   2.796   0.867 -2.7144 -2.3099 -0.5815
 1171TIP3   OH225003   2.779   0.506   0.684 -0.2676  0.3346 -0.1796
 1171TIP3    H125004   2.746   0.498   0.595 -0.1616 -1.1405 -0.0966
 1171TIP3    H225005   2.831   0.586   0.683 -0.5481  0.5155 -1.3415
 1172TIP3   OH225006   0.901   4.073  12.954  0.5057 -0.5570 -0.0184
 1172TIP3    H125007   0.852   4.142  12.909  3.7087  1.1816 -1.1729
 1172TIP3    H225008   0.917   4.109  13.041  1.6332 -0.0734 -0.4106
 1173TIP3   OH225009   5.956   5.125  15.148 -0.5612  0.1666  0.4095
 1173TIP3    H125010   6.039   5.080  15.163 -0.8476 -0.1093  1.2187
 1173TIP3    H225011   5.912   5.073  15.080  0.9678  1.7071 -1.9223
 1174TIP3   OH225012   4.342   0.405   2.285 -0.4720 -0.1917 -1.0054
 1174TIP3    H125013   4.317   0.457   2.361  0.8782 -1.7793  0.6313
 1174TIP3    H225014   4.432   0.379   2.302 -0.6698 -1.9856 -2.3264
 1175TIP3   OH225015   2.135   5.303   0.252 -0.9273  0.6527  0.1890
 1175TIP3    H125016   2.111   5.234   0.314 -2.4162  0.2622 -0.7629
 1175TIP3    H225017   2.109   5.385   0.295 -1.9044  0.3852  0.1320
 1176TIP3   OH225018   0.773   6.595  10.784 -0.0583  0.2867 -0.1076
 1176TIP3    H125019   0.853   6.543  10.785  0.5437  1.1544  1.1171
 1176TIP3    H225020   0.703   6.533  10.762  0.8393 -0.6723 -0.3118
 1177TIP3   OH225021   2.592   6.000   3.334  0.5948 -0.2922  0.1435
 1177TIP3    H125022   2.549   5.955   3.261  2.3518 -1.1202 -0.4222
 1177TIP3    H225023   2.598   5.934   3.403 -0.6075  0.3463  0.9049
 1178TIP3   OH225024   6.262   6.287  15.023 -0.4426  0.4680  0.4846
 1178TIP3    H125025   6.205   6.216  14.992 -1.3651  1.6882 -0.7541
 1178TIP3    H225026   6.349   6.249  15.025 -0.7737 -0.4654 -1.0752
 1179TIP3   OH225027   1.440   2.101  12.364  0.1032 -0.8330  0.1192
 1179TIP3    H125028   1.483   2.026  12.325  3.1208 -0.1589  1.8481
 1179TIP3    H225029   1.457   2.173  12.303 -1.7079 -1.2089 -0.9090
 1180TIP3   OH225030   6.104   0.852  13.235 -0.4392 -0.1962 -0.0433
 1180TIP3    H125031   6.096   0.943  13.264 -1.5104  0.1277 -1.2711
 1180TIP3    H225032   6.182   0.820  13.279  0.0047  1.3429  0.3523
 1181TIP3   OH225033   0.042   4.905   2.870 -0.3533  0.4602 -0.2428
 1181TIP3    H125034  -0.050   4.920   2.890 -0.9199  0.0159 -2.3303
 1181TIP3    H225035   0.053   4.810   2.876  0.2296  0.5770  0.9049
 1182TIP3   OH225036   4.685   1.199  13.753  0.7976 -0.1040  0.4835
 1182TIP3    H125037   4.611   1.148  13.719  0.1295  1.5169 -0.6385
 1182TIP3    H225038   4.755   1.184  13.690  0.1943  1.3204 -0.5677
 1183TIP3   OH225039   5.913   2.868   4.536  0.2111 -0.4426  0.1747
 1183TIP3    H125040   5.991   2.923   4.521 -1.0647  1.4728  0.2072
 1183TIP3    H225041   5.896   2.829   4.450  1.0057 -0.6346  0.0896
 1184TIP3   OH225042   0.536   2.230   5.920  0.1151  0.0610  0.4083
 1184TIP3    H125043   0.488   2.268   5.994  0.1795 -1.3782  1.2368
 1184TIP3    H225044   0.468   2.189   5.866 -0.0729  2.1559 -1.0439
 1185TIP3   OH225045   1.357   6.163  11.027 -0.6405 -0.3422 -0.4546
 1185TIP3    H125046   1.333   6.217  11.103 -1.2536 -1.4855  0.1963
 1185TIP3    H225047   1.321   6.209  10.952 -1.9918 -0.3178  0.1851
 1186TIP3   OH225048   6.471   3.954  13.779 -0.5590 -0.0021 -0.0869
 1186TIP3    H125049   6.467   3.859  13.768  2.1395 -0.5969  2.5405
 1186TIP3    H225050   6.487   3.967  13.873 -0.5020  3.0545 -0.4009
 1187TIP3   OH225051   6.051   6.446  13.386  0.4986 -0.5995 -0.0737
 1187TIP3    H125052   6.015   6.405  13.464  1.5375 -0.1608  0.6571
 1187TIP3    H225053   6.127   6.495  13.417  1.1468 -0.7010 -1.4144
 1188TIP3   OH225054   3.747   6.197   1.727  0.1976 -0.0195  0.0325
 1188TIP3    H125055   3.723   6.141   1.801  0.1827 -0.6018 -0.4040
 1188TIP3    H225056   3.677   6.184   1.663 -0.3340  1.2861  0.3293
 1189TIP3   OH225057   2.949   3.834  16.609 -0.5435 -0.2758  0.1393
 1189TIP3    H125058   2.938   3.759  16.549  0.7632 -1.2034  1.0004
 1189TIP3    H225059   2.905   3.806  16.689 -1.1548  0.4338  0.0654
 1190TIP3   OH225060   1.139   1.375  10.486  0.2224  0.1751 -0.5700
 1190TIP3    H125061   1.092   1.379  10.570 -1.1807  0.9023 -1.3469
 1190TIP3    H225062   1.201   1.304  10.497 -0.5489 -0.3325  0.7948
 1191TIP3   OH225063   5.260   6.683   1.938 -0.3302 -0.7859  0.1862
 1191TIP3    H125064   5.204   6.608   1.918  0.7594 -1.2629 -1.2073
 1191TIP3    H225065   5.315   6.654   2.011 -0.7073 -0.9208  0.4173
 1192TIP3   OH225066   5.148   1.256   0.886 -0.0171  0.5091  0.1087
 1192TIP3    H125067   5.208   1.239   0.959 -0.5006  2.7694  1.1110
 1192TIP3    H225068   5.167   1.346   0.860 -0.7888  0.1922 -1.6943
 1193TIP3   OH225069   0.508   2.896   4.651  0.0197 -0.6876 -0.2502
 1193TIP3    H125070   0.581   2.953   4.674 -1.9104  1.8957 -0.1206
 1193TIP3    H225071   0.507   2.895   4.555  0.6173 -1.2849 -0.2533
 1194TIP3   OH225072   0.910   5.221   4.014 -0.0302 -0.2937 -0.1297
 1194TIP3    H125073   0.991   5.249   3.973  0.3393  0.4452  1.0686
 1194TIP3    H225074   0.937   5.168   4.089 -0.6458 -0.0177  0.2992
 1195TIP3   OH225075   5.870   6.481  11.332  0.4981 -0.1907 -0.4558
 1195TIP3    H125076   5.887   6.474  11.238 -1.6584  1.1435 -1.0123
 1195TIP3    H225077   5.823   6.401  11.355 -0.3539  0.1720 -0.8853
 1196TIP3   OH225078   0.100   5.419   2.321  0.8576 -0.0656  0.2904
 1196TIP3    H125079   0.190   5.401   2.349  0.6696 -0.3577  0.7084
 1196TIP3    H225080   0.060   5.464   2.395  1.3543  2.2966 -0.7737
 1197TIP3   OH225081   6.191   6.025  15.796 -0.3556  0.4497  0.7827
 1197TIP3    H125082   6.236   6.090  15.742  0.2028  0.0940  0.8057
 1197TIP3    H225083   6.261   5.984  15.846 -0.7643  0.1641  1.1243
 1198TIP3   OH225084   3.953   4.645  12.682 -0.0602  0.4933 -0.3330
 1198TIP3    H125085   3.945   4.633  12.777 -2.5303  2.1406 -0.2368
 1198TIP3    H225086   4.022   4.583  12.656  0.0090 -0.7293  2.3616
 1199TIP3   OH225087   5.557   4.041  14.732 -0.2551 -0.3541  0.1597
 1199TIP3    H125088   5.470   4.009  14.710  0.2470 -1.7754  0.1386
 1199TIP3    H225089   5.589   4.081  14.651 -1.0885  0.7431  0.3343
 1200TIP3   OH225090   0.201   5.708  14.076 -0.0553 -0.8075 -0.1346
 1200TIP3    H125091   0.278   5.727  14.022 -0.4833  0.8220 -0.2151
 1200TIP3    H225092   0.237   5.693  14.164  0.2846  2.2447  0.3669
 1201TIP3   OH225093   1.855   6.797   3.573  0.4564 -0.2252  1.2909
 1201TIP3    H125094   1.911   6.720   3.573  0.0403 -0.5332  0.9189
 1201TIP3    H225095   1.858   6.829   3.664  1.6080  0.0503  1.1731
 1202TIP3   OH225096   6.195   5.616   2.342  0.1419  0.5239  0.6356
 1202TIP3    H125097   6.199   5.695   2.396 -0.6563  0.8736  0.2074
 1202TIP3    H225098   6.113   5.625   2.293  0.2975 -0.3259  0.2035
 1203TIP3   OH225099   0.784   5.718  13.526 -0.2360 -0.2032 -0.0682
 1203TIP3    H125100   0.732   5.727  13.447  1.3024 -1.4300 -1.3032
 1203TIP3    H225101   0.728   5.670  13.587 -0.2355 -2.4890 -1.7425
 1204TIP3   OH225102   5.911   5.156   3.856  0.2926 -0.2280  0.2825
 1204TIP3    H125103   5.947   5.190   3.774 -1.5304 -1.4432 -1.1104
 1204TIP3    H225104   5.819   5.181   3.854 -0.5674 -3.0703  0.3083
 1205TIP3   OH225105   0.975   3.917   1.514  0.2340 -0.1928  0.3390
 1205TIP3    H125106   1.054   3.895   1.465  0.4672  1.1912  0.0458
 1205TIP3    H225107   1.005   3.934   1.603  0.5211  1.6096 -0.0507
 1206TIP3   OH225108   5.199   0.982  11.093  0.2080  0.0425 -0.1144
 1206TIP3    H125109   5.127   0.977  11.156  0.3469  2.3160  0.3247
 1206TIP3    H225110   5.157   1.005  11.010  0.3164  0.2343 -0.1165
 1207TIP3   OH225111   4.160   3.763  13.224 -0.3671  0.0346 -0.5080
 1207TIP3    H125112   4.141   3.855  13.210 -2.7234  0.2692  2.9217
 1207TIP3    H225113   4.079   3.718  13.197 -1.3034 -0.3502  2.5243
 1208TIP3   OH225114   4.867   6.709   1.635 -0.2754 -0.3335 -0.1658
 1208TIP3    H125115   4.911   6.794   1.640 -0.9061  0.1530 -2.1480
 1208TIP3    H225116   4.901   6.669   1.555 -1.7845 -0.8707 -0.5696
 1209TIP3   OH225117   5.901   4.940   0.438  0.1384 -0.5498  0.3496
 1209TIP3    H125118   5.961   4.906   0.505  0.3992 -0.1683  0.3156
 1209TIP3    H225119   5.943   4.919   0.355  0.5160  0.2234  0.3355
 1210TIP3   OH225120   5.017   2.612  14.340  0.2733  0.0143 -0.0597
 1210TIP3    H125121   5.000   2.656  14.424  0.4284  4.0316 -1.9103
 1210TIP3    H225122   5.072   2.537  14.363  2.5044  2.3878  3.2078
 1211TIP3   OH225123   3.223   6.457  13.253 -0.2738  0.8842 -0.0053
 1211TIP3    H125124   3.209   6.380  13.197 -1.4589  0.2296  1.1432
 1211TIP3    H225125   3.136   6.491  13.270  0.1667  1.8350  0.3998
 1212TIP3   OH225126   1.703   1.631  11.372  0.4743  0.5671  0.4358
 1212TIP3    H125127   1.673   1.721  11.363 -1.4636 -0.0619  0.2104
 1212TIP3    H225128   1.657   1.598  11.449  0.5923 -0.4507  0.0817
 1213TIP3   OH225129   6.682   3.489   0.233 -0.3960 -0.2332  0.4463
 1213TIP3    H125130   6.628   3.439   0.294 -0.5225 -1.4001 -0.5867
 1213TIP3    H225131   6.667   3.447   0.148  1.0481  0.3039 -0.0958
 1214TIP3   OH225132   3.303   5.645  14.748  0.2695  0.2870  0.0299
 1214TIP3    H125133   3.301   5.551  14.731  2.8495  0.1717 -0.0272
 1214TIP3    H225134   3.254   5.684  14.676 -0.4006 -0.9707 -0.2233
 1215TIP3   OH225135   3.538   3.134   6.629 -0.3876 -0.2897 -0.3186
 1215TIP3    H125136   3.476   3.089   6.686 -1.0393  0.9289 -0.0408
 1215TIP3    H225137   3.615   3.149   6.685 -0.7831  0.3371  0.0760
 1216TIP3   OH225138   6.399   4.422   4.389  0.1157  0.4091  0.2770
 1216TIP3    H125139   6.373   4.509   4.360 -1.1948  0.5783  1.8366
 1216TIP3    H225140   6.465   4.437   4.457 -0.2480  0.2060  0.6810
 1217TIP3   OH225141   3.408   6.015  16.168 -0.2149 -0.6125  0.1705
 1217TIP3    H125142   3.340   6.081  16.182  0.6989 -0.1628  3.0336
 1217TIP3    H225143   3.395   5.951  16.238  1.9745 -0.7777  0.5018
 1218TIP3   OH225144   5.931   2.988  13.523 -0.2427  0.0354  0.1543
 1218TIP3    H125145   5.839   2.967  13.539  0.3810 -1.9174  1.6531
 1218TIP3    H225146   5.952   3.056  13.587 -0.3151 -0.5488  0.8170
 1219TIP3   OH225147   3.240   2.109   4.791  0.2842 -0.6816 -0.1049
 1219TIP3    H125148   3.282   2.084   4.709  0.1954  0.8839 -0.6563
 1219TIP3    H225149   3.163   2.159   4.764 -1.1348 -2.2052  0.9094
 1220TIP3   OH225150   5.857   1.953   1.668  0.4955  0.2663  0.1434
 1220TIP3    H125151   5.927   2.003   1.625  0.8436  1.1659  1.6567
 1220TIP3    H225152   5.868   1.864   1.637  1.9342  0.5222 -0.1408
 1221TIP3   OH225153   6.129   6.635   1.509  0.0745  0.0526  0.1356
 1221TIP3    H125154   6.149   6.572   1.439  0.4942  0.2112  0.1054
 1221TIP3    H225155   6.034   6.632   1.518  0.0587 -0.3134 -0.1215
 1222TIP3   OH225156   1.907   3.688  15.818  0.4782  0.2059  0.2212
 1222TIP3    H125157   1.903   3.631  15.740  2.0099 -3.2675  2.4190
 1222TIP3    H225158   1.988   3.737  15.808  0.0692  0.6968 -0.8651
 1223TIP3   OH225159   2.454   2.923   2.803  0.4620 -0.3863 -0.1786
 1223TIP3    H125160   2.497   2.995   2.850 -2.7494  1.1425  0.7129
 1223TIP3    H225161   2.480   2.844   2.851 -0.7526  0.8747  2.7461
 1224TIP3   OH225162   6.427   6.217   0.993  0.4155 -0.6211  0.1126
 1224TIP3    H125163   6.484   6.177   0.928 -1.0182 -3.6996  0.5578
 1224TIP3    H225164   6.342   6.225   0.949  0.5018  1.5838  0.2294
 1225TIP3   OH225165   3.570   1.207  15.427  0.5813 -0.0555 -0.2246
 1225TIP3    H125166   3.643   1.210  15.489 -0.9969 -0.6976  1.7815
 1225TIP3    H225167   3.529   1.293  15.435  0.5676 -0.0200 -0.6531
 1226TIP3   OH225168   6.771   5.850   1.761 -0.1862  0.1897 -0.1490
 1226TIP3    H125169   6.776   5.777   1.822  1.7212 -0.0897 -0.5965
 1226TIP3    H225170   6.840   5.910   1.789 -2.3399  2.3741  0.8351
 1227TIP3   OH225171   6.130   2.360   6.503 -0.5481  0.2222 -0.0393
 1227TIP3    H125172   6.081   2.429   6.548 -0.1928 -0.6405  1.7910
 1227TIP3    H225173   6.098   2.279   6.543  1.2883 -0.4469  0.1628
 1228TIP3   OH225174   4.889   1.287   4.497  0.0378 -0.0344 -0.5569
 1228TIP3    H125175   4.798   1.310   4.479  0.2000  1.3970  0.2966
 1228TIP3    H225176   4.909   1.330   4.580  1.1211 -1.3814 -0.0717
 1229TIP3   OH225177   3.032   2.174   0.046  0.0748 -0.2350 -0.2017
 1229TIP3    H125178   3.095   2.159   0.117  1.0225 -1.5598 -1.2723
 1229TIP3    H225179   2.951   2.199   0.090  1.0271  0.3989  1.2669
 1230TIP3   OH225180   2.273   2.695  14.666 -0.4509 -0.1667  0.3217
 1230TIP3    H125181   2.181   2.686  14.689  0.0169 -1.0714  1.9651
 1230TIP3    H225182   2.304   2.605  14.653  0.6677 -0.0402  1.8128
 1231TIP3   OH225183   5.055   1.630   0.871  0.3652 -0.3563 -0.4912
 1231TIP3    H125184   5.090   1.545   0.899 -0.8414 -0.5933  0.3615
 1231TIP3    H225185   5.084   1.691   0.940  2.0474  0.1636 -1.5761
 1232TIP3   OH225186   5.929   4.864  11.748  0.7117  0.1849  0.9746
 1232TIP3    H125187   5.895   4.803  11.683  0.3333  2.8695 -1.5794
 1232TIP3    H225188   5.874   4.852  11.825 -0.9090 -0.9922 -0.3195
 1233TIP3   OH225189   4.599   0.363  13.391  0.7043  0.3445  0.3311
 1233TIP3    H125190   4.548   0.351  13.471  0.5635 -0.5050  0.1309
 1233TIP3    H225191   4.689   0.340  13.415  0.4981 -0.8525  0.0345
 1234TIP3   OH225192   5.209   6.358   5.978  0.4293 -0.6111  0.0490
 1234TIP3    H125193   5.190   6.310   5.897  0.9830 -0.4660 -0.1710
 1234TIP3    H225194   5.284   6.312   6.016 -0.2294 -1.0705  0.8186
 1235TIP3   OH225195   4.970   1.320  12.099 -0.2069  0.3280  0.1529
 1235TIP3    H125196   4.909   1.374  12.150 -1.9555 -0.2592 -1.2123
 1235TIP3    H225197   5.000   1.378  12.028  0.4336  0.4577  0.5247
 1236TIP3   OH225198   6.654   0.102   3.421 -0.1662  0.0548 -0.1864
 1236TIP3    H125199   6.636   0.196   3.418  0.1128  0.1110 -0.1386
 1236TIP3    H225200   6.688   0.082   3.333  1.1078  0.2778  0.2276
 1237TIP3   OH225201   2.056   3.680   6.339 -0.3963  0.0969  0.0604
 1237TIP3    H125202   2.012   3.595   6.333 -1.0169  0.3307  1.0280
 1237TIP3    H225203   2.032   3.713   6.426  1.3137  0.4534  0.4316
 1238TIP3   OH225204   5.725   1.694  14.706 -0.4286  0.7255  0.0398
 1238TIP3    H125205   5.741   1.706  14.800  1.7422  0.0834 -0.1817
 1238TIP3    H225206   5.631   1.678  14.699 -0.8436  2.0347  1.9439
 1239TIP3   OH225207   0.361   4.368  15.049  0.6938  0.4054 -0.2793
 1239TIP3    H125208   0.271   4.393  15.070 -0.6787 -2.0160 -2.6331
 1239TIP3    H225209   0.379   4.294  15.106  0.2005 -0.6847 -1.4913
 1240TIP3   OH225210   2.793   2.847  14.318  0.2821 -0.3451  0.4220
 1240TIP3    H125211   2.739   2.920  14.286 -0.7404 -0.7951  1.0919
 1240TIP3    H225212   2.840   2.884  14.393 -0.4643 -0.4504  0.9488
 1241TIP3   OH225213   4.557   5.394  13.560 -0.1113  0.2274 -0.4303
 1241TIP3    H125214   4.463   5.378  13.547 -0.5574  3.1113 -1.7595
 1241TIP3    H225215   4.599   5.355  13.483 -0.2483 -0.6812 -0.0555
 1242TIP3   OH225216   2.492   1.785   5.721  0.2795 -0.1385  0.3782
 1242TIP3    H125217   2.515   1.799   5.813  2.4049 -1.1757  0.0783
 1242TIP3    H225218   2.472   1.692   5.715  3.5617 -0.9140 -0.7418
 1243TIP3   OH225219   4.608   5.878   0.725  0.4227 -0.3705  0.6352
 1243TIP3    H125220   4.522   5.871   0.768  0.7659 -2.4259  1.0932
 1243TIP3    H225221   4.652   5.795   0.746  1.6288 -0.3399 -1.4976
 1244TIP3   OH225222   3.147   4.256  14.851 -0.0721 -0.5222  0.1041
 1244TIP3    H125223   3.131   4.344  14.815 -1.9678 -0.1875  1.6004
 1244TIP3    H225224   3.067   4.236  14.899  1.5176 -1.8066  2.3620
 1245TIP3   OH225225   4.630   3.510  14.057  0.4203 -0.5021 -0.1125
 1245TIP3    H125226   4.588   3.517  13.971  1.5767 -1.6006 -0.8005
 1245TIP3    H225227   4.569   3.458  14.109 -0.5217  0.5837 -0.0729
 1246TIP3   OH225228   0.289   2.332   5.418  0.3819  0.8149  0.1770
 1246TIP3    H125229   0.216   2.341   5.479 -0.7460  1.4159 -1.2011
 1246TIP3    H225230   0.277   2.404   5.356  0.2278 -0.9912 -1.9951
 1247TIP3   OH225231   0.832   4.421   4.204  0.5046  0.2965 -0.4633
 1247TIP3    H125232   0.831   4.515   4.187  0.1302  0.2760 -0.5591
 1247TIP3    H225233   0.917   4.405   4.245  0.2416  0.8150  0.3186
 1248TIP3   OH225234   6.600   2.320  11.474 -0.1011 -0.1797 -0.3371
 1248TIP3    H125235   6.670   2.255  11.484  0.8616  0.8374 -0.2612
 1248TIP3    H225236   6.534   2.276  11.421  1.7489 -0.3527 -2.6765
 1249TIP3   OH225237   2.451   3.412  16.182  0.3872  0.1236  0.4972
 1249TIP3    H125238   2.421   3.399  16.092  2.1370 -0.3828 -0.0634
 1249TIP3    H225239   2.502   3.333  16.202  1.7977  1.1353  1.1400
 1250TIP3   OH225240   1.886   0.940  15.861  0.4651 -0.5117 -0.3940
 1250TIP3    H125241   1.964   0.887  15.845  2.0563  0.8983  2.1935
 1250TIP3    H225242   1.814   0.877  15.859  2.0980 -2.5420  1.0112
 1251TIP3   OH225243   5.935   0.180  12.136  0.4766  0.6530  0.0904
 1251TIP3    H125244   5.896   0.104  12.095 -0.6714  1.1803  0.1673
 1251TIP3    H225245   5.997   0.214  12.071  1.0139 -0.3447  0.0720
 1252TIP3   OH225246   0.374   4.873   1.907 -0.1154 -1.1552  0.2699
 1252TIP3    H125247   0.289   4.858   1.867 -0.4701  0.5458  0.2996
 1252TIP3    H225248   0.429   4.803   1.874 -0.7174 -0.5582 -2.2083
 1253TIP3   OH225249   2.775   0.632   5.434 -0.6075 -0.3115  0.8741
 1253TIP3    H125250   2.747   0.695   5.499  0.4651 -0.6494  1.7007
 1253TIP3    H225251   2.865   0.609   5.460  0.1828  0.2036 -1.2216
 1254TIP3   OH225252   0.605   0.347  10.745 -0.3072 -0.3191 -0.0488
 1254TIP3    H125253   0.700   0.336  10.756 -0.2364  0.1692 -0.1276
 1254TIP3    H225254   0.566   0.273  10.792  0.1095 -0.4648  0.0704
 1255TIP3   OH225255   0.281   3.938   4.100  0.2669 -0.1863 -0.3020
 1255TIP3    H125256   0.269   3.867   4.164 -1.2985  2.0340  2.0388
 1255TIP3    H225257   0.345   3.902   4.038 -0.4936 -3.6585  0.6634
 1256TIP3   OH225258   2.381   3.097  10.985  0.6946  0.1690  0.4506
 1256TIP3    H125259   2.352   3.166  10.926 -1.9754 -0.6734  0.6606
 1256TIP3    H225260   2.353   3.016  10.942  3.7608 -0.9018  0.1942
 1257TIP3   OH225261   0.885   6.401  12.053 -0.5840 -0.0014  0.0025
 1257TIP3    H125262   0.866   6.309  12.073  2.0153 -0.7414 -0.4573
 1257TIP3    H225263   0.971   6.416  12.092 -0.1223  1.6588 -1.5324
 1258TIP3   OH225264   5.751   0.650   0.701  0.1284  0.5945 -0.3101
 1258TIP3    H125265   5.712   0.690   0.778  0.1416  0.4790 -0.2424
 1258TIP3    H225266   5.676   0.615   0.651  0.2338 -1.2855  0.7447
 1259TIP3   OH225267   1.818   2.864   0.228 -0.2011 -0.2476 -0.1652
 1259TIP3    H125268   1.882   2.820   0.172  3.1592  2.6140  1.0765
 1259TIP3    H225269   1.788   2.939   0.176  0.4014  0.5535  0.6253
 1260TIP3   OH225270   6.348   4.166  13.628  0.1072  0.0012  0.4728
 1260TIP3    H125271   6.374   4.078  13.656 -2.3160 -0.8508  0.2977
 1260TIP3    H225272   6.274   4.188  13.685  0.5939  1.8966  0.4254
 1261TIP3   OH225273   0.607   3.083   4.115  0.4675 -0.2436 -0.0798
 1261TIP3    H125274   0.587   3.112   4.203 -2.6461 -1.9123 -0.1189
 1261TIP3    H225275   0.578   3.154   4.058  0.7688  0.0681  0.1562
 1262TIP3   OH225276   4.633   2.234   3.623 -0.3804  0.2263 -0.2837
 1262TIP3    H125277   4.545   2.271   3.633 -0.6855 -0.8276  1.2509
 1262TIP3    H225278   4.689   2.310   3.613 -1.4294  0.9318 -1.0689
 1263TIP3   OH225279   4.137   0.141  13.527 -0.1296  0.3442 -0.1495
 1263TIP3    H125280   4.057   0.097  13.555 -1.3515  3.9942  3.0005
 1263TIP3    H225281   4.125   0.154  13.433 -2.0975 -1.3103 -0.1955
 1264TIP3   OH225282   4.994   3.200  13.709  0.4277 -0.0323 -0.5181
 1264TIP3    H125283   5.070   3.242  13.668 -0.8387  1.5217 -1.3619
 1264TIP3    H225284   4.918   3.242  13.669 -0.9057 -1.5081  0.3437
 1265TIP3   OH225285   5.856   4.423   5.404  0.3130  0.5729  0.3837
 1265TIP3    H125286   5.942   4.436   5.443 -0.1950  0.2154  1.6836
 1265TIP3    H225287   5.852   4.330   5.384 -1.2041 -0.3531  4.1287
 1266TIP3   OH225288   3.837   4.334  12.758  0.1940  0.5612  0.4467
 1266TIP3    H125289   3.816   4.243  12.737  0.5578  0.5427  0.1509
 1266TIP3    H225290   3.898   4.361  12.689  2.4793  0.0921  2.1727
 1267TIP3   OH225291   3.148   4.445  13.798  0.3524 -0.8683 -0.3570
 1267TIP3    H125292   3.220   4.508  13.803  1.1782 -1.6145 -1.9707
 1267TIP3    H225293   3.077   4.493  13.756  0.5611 -0.6560 -0.4711
 1268TIP3   OH225294   6.837   6.282  15.568 -0.5126  0.3403  1.0402
 1268TIP3    H125295   6.839   6.192  15.537 -0.3716  0.3652  0.9769
 1268TIP3    H225296   6.907   6.326  15.519  0.4298  0.1428  2.1842
 1269TIP3   OH225297   5.373   3.574  16.531  0.0422  0.0343  0.2219
 1269TIP3    H125298   5.372   3.485  16.566  0.6495  0.1446  0.5397
 1269TIP3    H225299   5.427   3.568  16.452 -0.8040 -0.0881 -0.3581
 1270TIP3   OH225300   2.177   1.530   6.193  0.0876  0.9245 -0.3486
 1270TIP3    H125301   2.087   1.502   6.177 -0.0484  1.2597 -0.1794
 1270TIP3    H225302   2.170   1.623   6.216  0.2609  0.4623  1.7680
 1271TIP3   OH225303   4.808   2.938   3.948  0.0902  0.0091  0.0274
 1271TIP3    H125304   4.879   3.001   3.961 -0.9246  1.2646 -0.3011
 1271TIP3    H225305   4.771   2.925   4.036  1.2540 -1.3462  0.3551
 1272TIP3   OH225306   3.777   5.348   4.661  0.2000  0.4365  0.2231
 1272TIP3    H125307   3.795   5.397   4.741  1.0554  0.0961  0.2559
 1272TIP3    H225308   3.862   5.309   4.637 -0.2833 -0.3807 -0.2287
 1273TIP3   OH225309   2.268   0.573   2.825  0.2867 -0.1453  0.0423
 1273TIP3    H125310   2.242   0.636   2.892 -0.9961 -0.4214 -0.1728
 1273TIP3    H225311   2.333   0.518   2.868 -1.8015 -1.4663  1.7144
 1274TIP3   OH225312   2.063   0.006   5.002  0.3946  0.2461 -0.3272
 1274TIP3    H125313   2.072   0.068   4.929  0.6789  1.7239  0.9270
 1274TIP3    H225314   2.148   0.008   5.046 -0.1713  0.3611  0.7906
 1275TIP3   OH225315   5.005   3.624  16.231 -0.8071 -0.2642  0.1988
 1275TIP3    H125316   5.010   3.550  16.290  1.4908 -0.0086  0.4187
 1275TIP3    H225317   4.998   3.701  16.288 -0.2473 -0.1242  0.0821
 1276TIP3   OH225318   0.442   6.553   2.519 -0.4972  0.1610  1.0221
 1276TIP3    H125319   0.504   6.506   2.574 -0.4411  0.6876  1.4179
 1276TIP3    H225320   0.449   6.644   2.547 -0.5145  0.4330  0.1863
 1277TIP3   OH225321   3.393   0.006   1.268 -0.4166  0.0795 -0.7788
 1277TIP3    H125322   3.331  -0.066   1.282 -0.2714 -0.0811 -0.9621
 1277TIP3    H225323   3.422   0.029   1.356 -1.8837  1.1772 -0.5419
 1278TIP3   OH225324   4.735   0.605  13.849 -0.4244  0.1357  0.6991
 1278TIP3    H125325   4.665   0.583  13.787  0.0540  2.4485 -0.8271
 1278TIP3    H225326   4.815   0.605  13.796  0.2010  0.9519  1.6044
 1279TIP3   OH225327   0.405   3.626  12.270 -0.3291 -0.4896 -0.6205
 1279TIP3    H125328   0.397   3.531  12.280 -0.5645 -0.3875  0.2705
 1279TIP3    H225329   0.361   3.662  12.347  3.2024  0.2651  1.2210
 1280TIP3   OH225330   0.890   6.226  14.357  0.0295  0.4891 -0.1682
 1280TIP3    H125331   0.937   6.215  14.274 -0.6358  1.1281 -0.6509
 1280TIP3    H225332   0.956   6.209  14.424  0.9611  1.3523 -0.8208
 1281TIP3   OH225333   2.885   4.099  16.544  0.1588  0.3378 -0.0118
 1281TIP3    H125334   2.882   4.003  16.539 -0.3069  0.4101 -1.4298
 1281TIP3    H225335   2.809   4.121  16.598  0.1661 -0.0791  0.1783
 1282TIP3   OH225336   0.140   1.590  15.262  0.4216 -0.5682 -1.0649
 1282TIP3    H125337   0.158   1.514  15.317 -1.0782 -0.8865 -0.9807
 1282TIP3    H225338   0.118   1.660  15.323 -0.6988 -0.7720 -1.2184
 1283TIP3   OH225339   1.629   1.613   2.657  0.2305 -0.0687 -0.2201
 1283TIP3    H125340   1.636   1.705   2.682 -1.0908  0.2343 -0.8577
 1283TIP3    H225341   1.684   1.605   2.579  0.0744  0.2629 -0.3637
 1284TIP3   OH225342   6.047   2.722  12.826 -0.1292  0.6081 -0.0371
 1284TIP3    H125343   5.984   2.760  12.887  0.3411 -1.7746  2.0864
 1284TIP3    H225344   6.026   2.628  12.826  1.1496  0.2536 -2.0996
 1285TIP3   OH225345   5.697   4.611   2.834 -0.0951 -0.6202 -0.4477
 1285TIP3    H125346   5.684   4.517   2.847 -0.2649 -0.6084 -0.5379
 1285TIP3    H225347   5.776   4.617   2.781 -0.4417 -0.7332 -0.9781
 1286TIP3   OH225348   5.363   6.320  12.513 -0.4089 -0.3328 -0.3129
 1286TIP3    H125349   5.393   6.229  12.502 -0.8074 -0.6026  0.6695
 1286TIP3    H225350   5.287   6.312  12.571  0.7319  0.7968  1.4408
 1287TIP3   OH225351   1.402   5.207   3.864  0.0560 -0.7828  0.3306
 1287TIP3    H125352   1.481   5.255   3.842 -0.2096 -0.1170  0.7925
 1287TIP3    H225353   1.420   5.168   3.950 -0.7670  0.9248  1.3289
 1288TIP3   OH225354   5.386   2.284   0.071  0.0747  0.3945 -0.4447
 1288TIP3    H125355   5.435   2.358   0.037 -0.5391  0.5509 -1.0240
 1288TIP3    H225356   5.405   2.282   0.165  0.8834  0.6661 -0.6000
 1289TIP3   OH225357   5.220   0.946  12.030  0.0963 -0.6362 -0.2932
 1289TIP3    H125358   5.184   1.028  12.064 -0.7691 -0.9038 -0.5478
 1289TIP3    H225359   5.285   0.973  11.965 -0.0313 -0.1503 -0.2189
 1290TIP3   OH225360   1.702   2.563  14.247 -0.3009 -0.2298 -0.0045
 1290TIP3    H125361   1.672   2.636  14.192  0.1359 -0.6820 -0.8788
 1290TIP3    H225362   1.796   2.577  14.255 -0.3382 -0.2628  0.5015
 1291TIP3   OH225363   2.380   3.884   1.290 -0.3719  0.7208 -0.4116
 1291TIP3    H125364   2.403   3.800   1.251 -0.1032  1.5330 -2.0942
 1291TIP3    H225365   2.337   3.861   1.373 -0.4204 -1.0623 -0.8890
 1292TIP3   OH225366   6.673   2.923  12.325 -0.1846  0.7267  0.2121
 1292TIP3    H125367   6.672   2.982  12.250 -0.3145 -0.6068 -0.8748
 1292TIP3    H225368   6.692   2.837  12.287  1.3282  0.2610  1.8872
 1293TIP3   OH225369   6.410   5.860  14.781  0.1299  0.3482  0.4458
 1293TIP3    H125370   6.482   5.799  14.795  1.1562  1.5134  0.4179
 1293TIP3    H225371   6.428   5.932  14.841 -1.0001  0.6838  0.3970
 1294TIP3   OH225372   0.412   3.109   3.404 -0.1235  0.4833  0.1677
 1294TIP3    H125373   0.478   3.041   3.415 -0.0432  0.0810 -2.1406
 1294TIP3    H225374   0.461   3.191   3.402 -0.1743  0.6251  2.5149
 1295TIP3   OH225375   1.090   3.213   4.147 -0.6382  0.0470  0.1208
 1295TIP3    H125376   1.001   3.211   4.111 -0.2518  0.1617 -0.8661
 1295TIP3    H225377   1.135   3.141   4.103  0.2618  1.1126 -0.7576
 1296TIP3   OH225378   0.160   6.160  11.292 -0.2398 -0.3232  0.4775
 1296TIP3    H125379   0.242   6.197  11.324 -0.4950  0.7939 -0.1405
 1296TIP3    H225380   0.139   6.210  11.214 -1.2002 -1.0138  0.2706
 1297TIP3   OH225381   5.472   5.406   0.509 -0.0657 -0.3128 -0.5328
 1297TIP3    H125382   5.523   5.474   0.554 -0.9212 -1.5746  2.6265
 1297TIP3    H225383   5.384   5.443   0.502 -0.8112 -1.2898  2.1617
 1298TIP3   OH225384   5.542   4.731   1.065  0.0984  0.2530 -0.6207
 1298TIP3    H125385   5.590   4.765   1.141  0.4594  0.2569 -0.8488
 1298TIP3    H225386   5.553   4.798   0.998 -0.3320  0.3110 -0.6398
 1299TIP3   OH225387   2.804   6.624   0.855 -0.2766  0.4161 -0.1697
 1299TIP3    H125388   2.723   6.592   0.817 -0.2357  1.1747 -0.9125
 1299TIP3    H225389   2.797   6.602   0.948 -0.5379 -1.1250 -0.5205
 1300TIP3   OH225390   6.262   3.235   0.644 -0.2554  0.4595 -0.3575
 1300TIP3    H125391   6.347   3.191   0.652 -1.3630 -1.6689  0.6384
 1300TIP3    H225392   6.235   3.219   0.554  0.2473  0.8378 -0.5748
 1301TIP3   OH225393   2.646   2.543  12.426  0.2730  0.3392 -0.4079
 1301TIP3    H125394   2.697   2.516  12.349  1.4927  0.5509  0.2993
 1301TIP3    H225395   2.703   2.524  12.500 -1.6972 -1.8636  0.6736
 1302TIP3   OH225396   1.877   2.466  15.287 -0.3688  0.0478  0.4911
 1302TIP3    H125397   1.882   2.555  15.254 -0.2064 -0.5517 -1.2256
 1302TIP3    H225398   1.932   2.466  15.366  0.1688  1.2946  0.1363
 1303TIP3   OH225399   0.525   1.596  11.554 -0.2866 -0.7058 -0.4997
 1303TIP3    H125400   0.531   1.684  11.518  0.4556 -0.1346  0.9319
 1303TIP3    H225401   0.611   1.558  11.540 -0.4224 -0.9924 -0.5721
 1304TIP3   OH225402   2.627   3.998   3.665  0.2391 -0.4317 -0.1023
 1304TIP3    H125403   2.595   4.028   3.751 -1.8682 -1.9780 -0.2880
 1304TIP3    H225404   2.637   3.904   3.675  0.2760 -0.5854 -1.4871
 1305TIP3   OH225405   1.535   4.970   4.496  0.1745 -0.5565  0.1021
 1305TIP3    H125406   1.585   5.015   4.427 -0.1551  1.9114  1.3464
 1305TIP3    H225407   1.595   4.903   4.529  1.5753  0.3984 -0.4023
 1306TIP3   OH225408   0.175   3.282   4.867  0.0570  0.2905 -0.0905
 1306TIP3    H125409   0.224   3.209   4.830  0.4394  0.3686  0.2467
 1306TIP3    H225410   0.237   3.355   4.864 -0.3361  0.6134 -0.4652
 1307TIP3   OH225411   5.700   0.858  13.764  0.3964  0.1945  0.1448
 1307TIP3    H125412   5.791   0.870  13.790  0.4829  0.5723 -0.3359
 1307TIP3    H225413   5.698   0.772  13.723  0.9250  0.9366 -1.5200
 1308TIP3   OH225414   0.330   0.030  10.693  0.1415 -0.6337 -0.2821
 1308TIP3    H125415   0.378   0.029  10.610 -0.3005 -0.6895 -0.5441
 1308TIP3    H225416   0.287  -0.056  10.696 -0.0173 -0.5471 -0.0988
 1309TIP3   OH225417   0.839   6.142  11.689  0.3076  0.4899  0.0639
 1309TIP3    H125418   0.865   6.113  11.602  1.8513 -1.4134  1.0913
 1309TIP3    H225419   0.853   6.237  11.688  0.9706  0.4086 -1.5135
 1310TIP3   OH225420   2.267   3.207   0.534 -0.1653 -0.0291 -0.0817
 1310TIP3    H125421   2.325   3.177   0.464  0.5909  1.0062  0.0684
 1310TIP3    H225422   2.276   3.303   0.533 -1.4876  0.1272  0.2871
 1311TIP3   OH225423   1.162   0.703  17.018  0.0721  0.1974  0.6379
 1311TIP3    H125424   1.189   0.727  17.107 -1.3293 -0.4196  1.2570
 1311TIP3    H225425   1.089   0.643  17.030 -2.5650  2.8410 -0.8906
 1312TIP3   OH225426   1.110   0.664  15.465 -0.1186  0.2064 -0.0051
 1312TIP3    H125427   1.192   0.618  15.449 -0.7305 -0.9739  0.0686
 1312TIP3    H225428   1.125   0.754  15.436  0.1999 -0.7393 -3.1281
 1313TIP3   OH225429   0.543   2.671   4.330 -0.4400 -0.5518 -0.3169
 1313TIP3    H125430   0.477   2.603   4.338 -0.2665 -0.5281  2.3757
 1313TIP3    H225431   0.625   2.628   4.352  0.0941 -0.0585 -1.2974
 1314TIP3   OH225432   5.550   4.071   2.373  0.1186 -0.6044  0.1920
 1314TIP3    H125433   5.564   4.053   2.280  1.2123 -0.9929  0.4223
 1314TIP3    H225434   5.492   4.001   2.403 -2.1165  0.7431 -0.6575
 1315TIP3   OH225435   2.758   5.249   0.759  0.1184  0.0039  0.0498
 1315TIP3    H125436   2.729   5.311   0.692  1.5146  0.5245 -0.1014
 1315TIP3    H225437   2.768   5.303   0.838  1.5642  0.0532 -0.1391
 1316TIP3   OH225438   4.499   5.565   4.268  0.3317  0.3048 -0.1375
 1316TIP3    H125439   4.592   5.586   4.256  0.6547  1.0380  2.9471
 1316TIP3    H225440   4.490   5.477   4.233  2.2253  0.1614 -0.3780
 1317TIP3   OH225441   3.270   0.985   4.232 -0.2397  0.1967  0.3131
 1317TIP3    H125442   3.286   0.951   4.320  0.3392 -0.1483  0.0795
 1317TIP3    H225443   3.179   1.016   4.235  0.1807  1.3953  1.4052
 1318TIP3   OH225444   6.414   5.548   3.881  0.8233 -0.0646  0.4493
 1318TIP3    H125445   6.369   5.581   3.959 -0.2838 -0.9441  0.2097
 1318TIP3    H225446   6.387   5.456   3.875  0.8180  0.0137 -1.0161
 1319TIP3   OH225447   5.130   3.967  14.151  0.2276  0.5151 -0.0991
 1319TIP3    H125448   5.162   4.042  14.101 -0.5700 -0.6735 -2.5492
 1319TIP3    H225449   5.035   3.978  14.154  0.0006 -0.8033 -1.3010
 1320TIP3   OH225450   0.880   5.119  13.711 -0.7413 -0.3314 -0.0529
 1320TIP3    H125451   0.925   5.200  13.687 -1.6844 -0.2703 -1.7584
 1320TIP3    H225452   0.829   5.143  13.788 -0.1500  0.3867  0.1360
 1321TIP3   OH225453   3.788   0.457  14.713 -0.0220  0.6455 -0.4413
 1321TIP3    H125454   3.863   0.462  14.772 -0.1687 -0.3588 -0.1482
 1321TIP3    H225455   3.826   0.430  14.629 -0.1723 -1.1149  0.0182
 1322TIP3   OH225456   1.246   5.617  16.788  0.3709  0.0880 -0.1500
 1322TIP3    H125457   1.240   5.530  16.827  0.4066  0.3479  0.4433
 1322TIP3    H225458   1.155   5.641  16.770  0.1833  0.7228  1.4836
 1323TIP3   OH225459   6.182   0.127  14.656 -0.1977 -0.5523  0.7122
 1323TIP3    H125460   6.173   0.063  14.585  0.0613 -0.5953  0.7181
 1323TIP3    H225461   6.252   0.185  14.627 -0.4946 -0.2113  0.6629
 1324TIP3   OH225462   1.451   5.244  10.758 -0.2742 -0.4016 -0.7687
 1324TIP3    H125463   1.507   5.245  10.681  0.0271  0.8962 -0.5569
 1324TIP3    H225464   1.378   5.303  10.735  0.0811  0.4050  0.1044
 1325TIP3   OH225465   3.035   6.498   2.712 -0.0419  0.0124 -0.0915
 1325TIP3    H125466   2.977   6.493   2.788  0.9324  1.1370  0.7500
 1325TIP3    H225467   2.978   6.531   2.642 -0.8907 -0.8177  0.1813
 1326TIP3   OH225468   4.771   4.188   4.306  1.0046 -0.1544 -0.0712
 1326TIP3    H125469   4.830   4.126   4.350  1.5467 -0.2461 -0.9051
 1326TIP3    H225470   4.689   4.139   4.296  0.5165  0.2209  1.7511
 1327TIP3   OH225471   2.058   2.077  11.773  0.7594  1.3225 -0.0780
 1327TIP3    H125472   1.994   2.138  11.737 -1.1707 -1.3755 -1.4736
 1327TIP3    H225473   2.050   2.089  11.868 -2.0895  0.8991 -0.1724
 1328TIP3   OH225474   5.965   6.373   2.142 -0.2059 -0.6117  0.2098
 1328TIP3    H125475   6.037   6.416   2.097  0.8298 -1.4912  0.9696
 1328TIP3    H225476   5.988   6.280   2.142 -1.3410 -0.9117  0.4621
 1329TIP3   OH225477   6.674   6.152   5.007 -0.0274  0.3078  0.0703
 1329TIP3    H125478   6.679   6.098   4.927 -0.8299 -0.8811  0.7915
 1329TIP3    H225479   6.757   6.135   5.051 -0.3307 -0.4686  0.3596
 1330TIP3   OH225480   2.101   1.723  15.535  0.6154 -0.0633 -0.1019
 1330TIP3    H125481   2.067   1.800  15.582 -0.9234 -1.1673  0.6724
 1330TIP3    H225482   2.057   1.726  15.450 -1.5475 -1.4388  0.8638
 1331TIP3   OH225483   5.073   2.640   6.657  0.3879  0.6693  0.3063
 1331TIP3    H125484   5.124   2.663   6.735 -1.5338  3.1050  0.9549
 1331TIP3    H225485   5.115   2.688   6.586 -0.0928  1.5168  0.5790
 1332TIP3   OH225486   5.322   2.151  14.897 -0.4685  0.3017 -0.3914
 1332TIP3    H125487   5.240   2.144  14.947  0.2115 -2.0240  0.5644
 1332TIP3    H225488   5.363   2.065  14.907  1.4881  0.9783 -1.9368
 1333TIP3   OH225489   5.879   3.941   0.026 -0.1949 -0.5068 -0.0701
 1333TIP3    H125490   5.870   3.959   0.120  2.2866 -0.7097  0.2617
 1333TIP3    H225491   5.953   3.881   0.020 -0.1118 -0.2621 -2.1937
 1334TIP3   OH225492   6.438   1.750  13.651  0.2700  0.2223  0.6426
 1334TIP3    H125493   6.458   1.820  13.589  1.0089  0.5068  1.1792
 1334TIP3    H225494   6.442   1.792  13.737  1.8744 -0.6762  1.0632
 1335TIP3   OH225495   2.576   0.349  12.016 -0.4764 -0.3404  0.1693
 1335TIP3    H125496   2.612   0.336  11.928  0.7879 -0.4385  0.6712
 1335TIP3    H225497   2.492   0.391  12.002  0.2718  0.8202 -1.0492
 1336TIP3   OH225498   0.837   6.766  11.909 -0.0384  0.3526  0.7312
 1336TIP3    H125499   0.884   6.723  11.980 -0.0650  0.7182  0.9735
 1336TIP3    H225500   0.878   6.733  11.829  0.9136  0.9802  0.9404
 1337TIP3   OH225501   0.294   2.015  16.670 -0.0587 -0.4040 -0.1427
 1337TIP3    H125502   0.199   2.022  16.665 -0.0026 -0.1158 -1.1787
 1337TIP3    H225503   0.320   1.976  16.586  0.7451 -0.2712  0.0300
 1338TIP3   OH225504   1.413   1.052  14.191 -0.4335 -0.0902  0.3073
 1338TIP3    H125505   1.478   0.998  14.235 -0.5192 -0.2083  0.2902
 1338TIP3    H225506   1.364   1.093  14.262 -1.1972 -1.0281  0.3429
 1339TIP3   OH225507   2.736   3.190  11.682 -0.3206  0.0411  0.7465
 1339TIP3    H125508   2.690   3.139  11.615  0.4945  0.2212  0.0269
 1339TIP3    H225509   2.796   3.128  11.723 -0.7639 -0.0498  1.2674
 1340TIP3   OH225510   1.718   3.136  15.189 -0.2103 -0.4414  0.0180
 1340TIP3    H125511   1.649   3.071  15.204  0.0083 -0.3897  1.3629
 1340TIP3    H225512   1.702   3.168  15.101 -0.2913 -2.3662 -0.7088
 1341TIP3   OH225513   3.446   4.618  16.034 -0.6270 -0.2169  0.0557
 1341TIP3    H125514   3.541   4.610  16.026 -0.5401 -0.1295  0.9405
 1341TIP3    H225515   3.429   4.710  16.014 -0.2545  0.3481  2.1077
 1342TIP3   OH225516   3.317   6.619  11.835  0.4620 -0.0611 -0.1909
 1342TIP3    H125517   3.252   6.665  11.782 -0.0009 -0.6966 -0.1896
 1342TIP3    H225518   3.400   6.639  11.794  0.5514  2.5435  1.0451
 1343TIP3   OH225519   2.011   3.491  11.921 -0.1076 -0.1101  0.1301
 1343TIP3    H125520   1.969   3.554  11.863 -1.1268 -0.8438  0.0371
 1343TIP3    H225521   2.091   3.466  11.875 -1.2494 -1.2184 -1.3629
 1344TIP3   OH225522   4.713   0.309  11.145  0.4464  0.2122  0.0663
 1344TIP3    H125523   4.662   0.249  11.200  1.0005 -0.2536  0.0745
 1344TIP3    H225524   4.804   0.281  11.156  0.4270 -1.2672 -2.7292
 1345TIP3   OH225525   3.955   6.545   1.042 -0.2760  0.0059 -0.3254
 1345TIP3    H125526   4.001   6.482   0.987  1.8586  1.1479  0.0856
 1345TIP3    H225527   3.983   6.524   1.131 -0.7110  0.6198 -0.0381
 1346TIP3   OH225528   1.198   1.691   3.112 -0.3408  0.0704  0.4646
 1346TIP3    H125529   1.260   1.671   3.041 -1.6447 -1.2574 -0.3718
 1346TIP3    H225530   1.112   1.685   3.070 -1.0745  0.9415  1.8049
 1347TIP3   OH225531   0.328   6.183  11.697  0.1382 -0.2470  0.1274
 1347TIP3    H125532   0.273   6.181  11.776  0.4317  0.8000  0.3750
 1347TIP3    H225533   0.403   6.127  11.719  0.2522  0.0927  0.6218
 1348TIP3   OH225534   6.642   1.767  15.452 -0.3790  0.5512 -0.3052
 1348TIP3    H125535   6.575   1.823  15.493 -0.1271  1.0746 -0.5926
 1348TIP3    H225536   6.701   1.744  15.524 -0.8032  0.1793 -0.0721
 1349TIP3   OH225537   1.830   5.865  16.173  0.0955  0.1945  0.1921
 1349TIP3    H125538   1.788   5.936  16.222  1.2215 -0.0506  1.5863
 1349TIP3    H225539   1.760   5.829  16.119 -0.4899  2.4008 -0.6510
 1350TIP3   OH225540   5.235   1.537  16.205  0.3738 -0.4758 -0.5608
 1350TIP3    H125541   5.171   1.546  16.134  0.4705 -1.5159 -0.7951
 1350TIP3    H225542   5.192   1.575  16.281 -0.9239 -1.9673 -0.4999
 1351TIP3   OH225543   3.451   5.928  13.340 -0.1600  0.3237 -0.1917
 1351TIP3    H125544   3.428   5.910  13.431 -0.4785  0.6996 -0.1952
 1351TIP3    H225545   3.445   6.023  13.332 -0.4423  0.2689 -0.6874
 1352TIP3   OH225546   1.983   2.698  13.750 -0.0047 -0.1152  0.4906
 1352TIP3    H125547   1.908   2.697  13.690  0.0607 -0.7994  0.4183
 1352TIP3    H225548   2.059   2.701  13.692  0.0320  0.5598  0.5649
 1353TIP3   OH225549   5.823   6.816  16.576 -0.0886 -0.1642  0.2147
 1353TIP3    H125550   5.832   6.858  16.490 -0.6422  0.9011  0.6527
 1353TIP3    H225551   5.807   6.724  16.556 -1.9877  0.3540 -0.9193
 1354TIP3   OH225552   4.199   4.586  16.631  0.4851 -0.1169 -0.0752
 1354TIP3    H125553   4.145   4.641  16.573  1.6914  0.8534 -0.3428
 1354TIP3    H225554   4.277   4.567  16.579 -0.2681 -2.9060 -0.3198
 1355TIP3   OH225555   0.645   0.064   4.261 -0.1125  0.3476  0.1511
 1355TIP3    H125556   0.630   0.158   4.255  0.6419  0.5139  0.7077
 1355TIP3    H225557   0.581   0.033   4.324  0.7327  0.7766  1.2556
 1356TIP3   OH225558   2.199   6.494   4.357  0.0021 -0.1459 -0.4920
 1356TIP3    H125559   2.193   6.407   4.398 -0.2252  0.3190  0.5012
 1356TIP3    H225560   2.108   6.525   4.354  0.0744  0.0344 -0.9121
 1357TIP3   OH225561   1.973   0.416  15.433  0.2356  0.0344 -0.6074
 1357TIP3    H125562   2.014   0.472  15.498 -0.5173  1.1904 -1.1095
 1357TIP3    H225563   2.031   0.421  15.357 -0.2020  0.7357 -0.9066
 1358TIP3   OH225564   3.786   0.293   4.599  0.2900  0.4437  0.5307
 1358TIP3    H125565   3.834   0.376   4.598  1.0546  0.0165  1.0234
 1358TIP3    H225566   3.823   0.245   4.673  0.3953 -0.6623 -0.2184
 1359TIP3   OH225567   2.336   2.903  15.062  0.4565 -0.4908  0.1584
 1359TIP3    H125568   2.409   2.849  15.030 -0.8012 -1.1715 -1.7721
 1359TIP3    H225569   2.340   2.982  15.009  0.4423 -0.0330  0.8283
 1360TIP3   OH225570   1.734   0.700  13.880 -0.1415 -0.6798 -0.3350
 1360TIP3    H125571   1.706   0.663  13.796 -0.3336 -2.1334  0.3336
 1360TIP3    H225572   1.662   0.757  13.906 -0.7509 -1.3667 -0.4722
 1361TIP3   OH225573   0.973   5.847  16.327  0.0486  0.0507  0.4077
 1361TIP3    H125574   0.990   5.796  16.407 -0.8315 -1.2761 -0.2184
 1361TIP3    H225575   1.049   5.831  16.272 -0.0905 -0.3774  0.3317
 1362TIP3   OH225576   1.617   6.838  12.387  0.4647 -0.1748 -0.5058
 1362TIP3    H125577   1.570   6.921  12.377 -0.0687 -0.4262 -0.1227
 1362TIP3    H225578   1.617   6.821  12.481  0.1137 -0.8723 -0.6255
 1363TIP3   OH225579   1.607   1.953   0.754 -0.7336 -0.5917  0.1746
 1363TIP3    H125580   1.694   1.982   0.726  0.5652 -2.5491  1.8797
 1363TIP3    H225581   1.591   1.873   0.705 -1.1331 -0.7879  0.6172
 1364TIP3   OH225582   5.605   1.573  14.191  0.2602 -0.1307 -0.3675
 1364TIP3    H125583   5.644   1.506  14.247 -1.1248 -1.6872 -1.1663
 1364TIP3    H225584   5.613   1.654  14.241 -0.4825 -1.3629  1.8866
 1365TIP3   OH225585   6.512   5.069  11.136 -0.4412 -0.4653  0.0639
 1365TIP3    H125586   6.600   5.031  11.137  0.0037  0.4676 -1.3996
 1365TIP3    H225587   6.481   5.058  11.047 -0.8969  1.2170 -0.0280
 1366TIP3   OH225588   0.921   3.314  12.181 -0.0794 -0.5070 -0.2802
 1366TIP3    H125589   0.932   3.389  12.123  0.5815  0.4157  0.9942
 1366TIP3    H225590   0.834   3.326  12.221 -0.1811 -0.6982 -0.4370
 1367TIP3   OH225591   1.441   6.379  13.706 -0.5055  0.4349  0.3938
 1367TIP3    H125592   1.528   6.415  13.686 -0.9119  0.9348 -0.5044
 1367TIP3    H225593   1.380   6.443  13.672 -1.2473 -0.4627 -0.0047
 1368TIP3   OH225594   4.264   4.552  15.838  0.0508 -0.5228 -0.6397
 1368TIP3    H125595   4.329   4.535  15.907  1.1124  0.1168 -1.4356
 1368TIP3    H225596   4.264   4.472  15.785 -1.3220 -1.3165  0.4841
 1369TIP3   OH225597   2.950   0.944  15.285  0.3499 -0.2476  0.1824
 1369TIP3    H125598   2.982   1.025  15.245 -1.5851  0.5408  0.0836
 1369TIP3    H225599   3.025   0.908  15.331  0.8323  2.7766  2.0637
 1370TIP3   OH225600   3.514   2.693  15.794  0.7039  0.2738 -0.4887
 1370TIP3    H125601   3.505   2.644  15.713 -1.9977 -1.5819  0.8187
 1370TIP3    H225602   3.571   2.639  15.849  0.0897  0.0143 -0.0962
 1371TIP3   OH225603   4.527   2.684   4.151 -0.1961  0.3003  0.6590
 1371TIP3    H125604   4.434   2.702   4.160 -0.4275  0.7146 -1.8995
 1371TIP3    H225605   4.533   2.621   4.079  1.6401  2.8761 -1.6758
 1372TIP3   OH225606   2.198   5.224  17.092  0.2693  0.0649 -0.1217
 1372TIP3    H125607   2.230   5.261  17.174 -1.0427  0.8716  0.0691
 1372TIP3    H225608   2.131   5.161  17.119 -1.8321  1.9577 -0.5300
 1373TIP3   OH225609   2.964   1.607  12.561  0.1463 -0.2239  0.1959
 1373TIP3    H125610   2.996   1.680  12.614  1.2226  0.4971 -1.3573
 1373TIP3    H225611   3.019   1.532  12.587  0.3127 -0.0124  0.4541
 1374TIP3   OH225612   3.769   3.910   5.911 -0.1337  0.3310 -0.2087
 1374TIP3    H125613   3.709   3.947   5.845  1.7171  0.8808 -1.6677
 1374TIP3    H225614   3.807   3.986   5.954  0.4891  0.0266 -0.2140
 1375TIP3   OH225615   4.234   1.068  15.324  0.0958  0.4975  0.9291
 1375TIP3    H125616   4.253   1.146  15.272 -0.9486  1.3120  1.6953
 1375TIP3    H225617   4.304   1.065  15.389  1.6854 -0.8135 -0.7745
 1376TIP3   OH225618   6.587   6.854   0.246 -0.3697  0.2442  0.1470
 1376TIP3    H125619   6.619   6.773   0.286 -0.6160 -0.2039 -0.5352
 1376TIP3    H225620   6.536   6.824   0.170  1.6224  1.1037 -1.6322
 1377TIP3   OH225621   0.007   2.704   2.992 -0.5438  0.0275  0.0204
 1377TIP3    H125622   0.080   2.765   2.978 -0.6255 -0.4825 -3.3221
 1377TIP3    H225623  -0.071   2.760   2.991 -0.3832  0.3316  1.5952
 1378TIP3   OH225624   4.012   0.688   2.247 -0.2411 -0.4417 -0.4191
 1378TIP3    H125625   4.019   0.634   2.326  0.5644 -0.8358 -0.7522
 1378TIP3    H225626   4.014   0.625   2.175  1.1007  0.0404 -0.8308
 1379TIP3   OH225627   1.604   0.282   5.265 -0.1388 -0.0310  0.5096
 1379TIP3    H125628   1.672   0.241   5.212 -0.1949 -0.1886  0.5592
 1379TIP3    H225629   1.524   0.235   5.242 -0.6280  1.4434 -1.0621
 1380TIP3   OH225630   0.938   4.794  12.296  0.8117  0.6132 -0.6101
 1380TIP3    H125631   0.896   4.782  12.211 -0.1609  1.2736 -0.2446
 1380TIP3    H225632   0.913   4.882  12.323 -1.3414 -0.5669  1.6603
 1381TIP3   OH225633   3.781   0.665  16.672  0.5329 -0.2796  0.3451
 1381TIP3    H125634   3.711   0.651  16.736 -0.1032  2.1273  0.2843
 1381TIP3    H225635   3.746   0.631  16.590 -0.2672  0.2022  0.4753
 1382TIP3   OH225636   0.491   5.741   1.179  0.7567 -0.4900  0.3592
 1382TIP3    H125637   0.550   5.813   1.156 -1.5083  1.5868  0.7709
 1382TIP3    H225638   0.437   5.729   1.101 -0.9274  0.4003  1.3585
 1383TIP3   OH225639   5.383   4.144  12.352  0.5437  0.2861  0.3144
 1383TIP3    H125640   5.348   4.229  12.326 -0.3779 -0.7665 -2.1080
 1383TIP3    H225641   5.313   4.104  12.404  0.1606  0.1960 -0.2689
 1384TIP3   OH225642   3.708   2.164   3.261  0.1804  0.2250 -0.2538
 1384TIP3    H125643   3.803   2.163   3.251  0.0556  1.1235 -1.9698
 1384TIP3    H225644   3.678   2.222   3.191 -1.6233  0.1093  0.3835
 1385TIP3   OH225645   3.518   5.198  14.034 -0.1039 -0.0052  0.1549
 1385TIP3    H125646   3.589   5.136  14.052  0.8725  1.0072 -0.0814
 1385TIP3    H225647   3.440   5.158  14.073 -0.4675 -3.4168 -3.5157
 1386TIP3   OH225648   3.857   6.545  11.836  0.1098 -0.2268  0.2647
 1386TIP3    H125649   3.847   6.625  11.784 -0.1662 -0.2986  0.2037
 1386TIP3    H225650   3.823   6.569  11.923  1.0069  0.0334  0.5586
 1387TIP3   OH225651   1.626   1.357   0.791  0.2537 -0.5242  0.0514
 1387TIP3    H125652   1.707   1.318   0.823  0.9016 -1.2577 -2.2816
 1387TIP3    H225653   1.558   1.324   0.850  1.5940  0.0712  2.0239
 1388TIP3   OH225654   5.491   1.234   4.082 -0.5055 -0.1744 -0.4417
 1388TIP3    H125655   5.543   1.256   4.160 -0.5963 -1.1707 -0.0850
 1388TIP3    H225656   5.522   1.294   4.014  0.5206 -0.1989 -0.0056
 1389TIP3   OH225657   1.272   4.330  10.828 -0.6905 -1.1941 -0.4187
 1389TIP3    H125658   1.201   4.379  10.870 -1.9043  0.9131 -4.3688
 1389TIP3    H225659   1.352   4.369  10.862 -1.5487 -0.1216  0.4360
 1390TIP3   OH225660   4.287   2.779   5.393 -0.4546  0.1418 -0.5718
 1390TIP3    H125661   4.225   2.734   5.335  0.5800 -0.0427 -1.5870
 1390TIP3    H225662   4.240   2.857   5.423 -0.8255  0.5912 -2.2038
 1391TIP3   OH225663   0.477   0.760   5.491 -0.3257 -0.9374  0.0539
 1391TIP3    H125664   0.399   0.794   5.447 -0.5802 -0.4229  0.8632
 1391TIP3    H225665   0.545   0.824   5.473  0.2346 -1.9579 -1.5949
 1392TIP3   OH225666   6.608   3.794   2.494 -0.4457 -0.7988 -0.5588
 1392TIP3    H125667   6.519   3.822   2.514 -0.4020 -1.1372  0.1441
 1392TIP3    H225668   6.600   3.744   2.413 -0.9757 -1.2587 -0.2255
 1393TIP3   OH225669   1.224   2.393  15.667  0.2904  1.1090  0.5009
 1393TIP3    H125670   1.175   2.388  15.750 -0.1374 -0.4793  0.1795
 1393TIP3    H225671   1.269   2.309  15.660 -0.6180  0.7279 -1.4370
 1394TIP3   OH225672   4.882   6.545   4.732  0.1415 -0.1561 -0.1582
 1394TIP3    H125673   4.948   6.535   4.663 -0.0909 -0.6744 -0.3035
 1394TIP3    H225674   4.901   6.631   4.769  0.8821 -0.2795 -0.2233
 1395TIP3   OH225675   0.261   5.279   3.954  0.7929  0.0640  0.2658
 1395TIP3    H125676   0.252   5.258   4.047 -1.2887 -0.4691 -0.0064
 1395TIP3    H225677   0.274   5.374   3.951  0.8599  0.0842  1.0947
 1396TIP3   OH225678   5.797   5.946  16.817 -0.0688 -0.4715  1.1319
 1396TIP3    H125679   5.718   5.943  16.762  0.6455  2.4410 -0.2321
 1396TIP3    H225680   5.789   5.869  16.874 -1.6818 -2.7736 -1.8918
 1397TIP3   OH225681   6.387   4.374   1.912 -0.0801  0.5314  0.3512
 1397TIP3    H125682   6.342   4.290   1.912  0.8680 -0.0348 -1.5290
 1397TIP3    H225683   6.454   4.366   1.980  0.2379 -0.3939 -0.0481
 1398TIP3   OH225684   4.086   2.796   6.441  0.4898  0.4032 -0.1148
 1398TIP3    H125685   3.997   2.761   6.449  1.1760 -1.1762  1.3332
 1398TIP3    H225686   4.074   2.883   6.404 -1.4038 -0.9285 -3.0499
 1399TIP3   OH225687   6.162   1.178  10.770 -0.0296 -0.2010 -0.0413
 1399TIP3    H125688   6.247   1.168  10.726  0.7117 -0.7994  1.4515
 1399TIP3    H225689   6.120   1.093  10.762 -0.4370  0.0460 -0.6295
 1400TIP3   OH225690   1.932   0.375  10.083 -0.6322 -0.3406 -0.0933
 1400TIP3    H125691   1.916   0.281  10.078 -0.1529 -0.3998 -0.5904
 1400TIP3    H225692   2.011   0.383  10.136 -0.1942 -0.2720 -0.7482
 1401TIP3   OH225693   2.440   5.799   1.686 -0.3830  0.2800 -0.1970
 1401TIP3    H125694   2.383   5.831   1.617 -0.0968 -0.3683 -0.7455
 1401TIP3    H225695   2.527   5.831   1.662 -0.4425  0.9114  0.4095
 1402TIP3   OH225696   3.642   2.347  16.914  0.4937  0.2615  0.1032
 1402TIP3    H125697   3.605   2.300  16.839 -1.7673 -0.5981  1.6308
 1402TIP3    H225698   3.663   2.278  16.977 -2.5444  1.1324  2.2596
 1403TIP3   OH225699   3.351   5.572  12.058 -0.6537  0.1167 -0.0013
 1403TIP3    H125700   3.371   5.581  12.151  0.4797 -1.5587 -0.0379
 1403TIP3    H225701   3.287   5.501  12.054  1.2318 -1.6637 -0.6099
 1404TIP3   OH225702   2.149   1.381  13.429 -0.1231  0.1389  0.3094
 1404TIP3    H125703   2.225   1.336  13.392  0.6768  1.5957  0.1014
 1404TIP3    H225704   2.076   1.321  13.414  1.0660 -1.6073  1.1047
 1405TIP3   OH225705   3.776   5.686   6.016 -0.7732  0.0869 -0.3179
 1405TIP3    H125706   3.838   5.694   5.944 -1.1030  0.0083 -0.6158
 1405TIP3    H225707   3.733   5.772   6.020 -0.0924  0.4069  0.4079
 1406TIP3   OH225708   5.410   1.840   2.867  0.6739  0.3015 -0.9189
 1406TIP3    H125709   5.441   1.765   2.816  1.2434  1.0871 -1.7586
 1406TIP3    H225710   5.339   1.876   2.813  0.3508  0.3300 -0.4788
 1407TIP3   OH225711   3.619   0.151   3.156  0.2391  0.0341 -0.2188
 1407TIP3    H125712   3.555   0.212   3.119  0.8915 -0.6463 -2.6320
 1407TIP3    H225713   3.566   0.077   3.188 -0.4597  1.3055  1.7485
 1408TIP3   OH225714   3.006   3.678  15.698 -0.2372  0.4050 -0.0373
 1408TIP3    H125715   3.091   3.634  15.692 -1.0100 -1.5038  1.9042
 1408TIP3    H225716   3.016   3.738  15.772 -0.3026  0.8944 -0.4205
 1409TIP3   OH225717   0.474   2.358   4.669 -0.1053  0.3674 -0.4883
 1409TIP3    H125718   0.418   2.305   4.613 -0.2644 -2.1529  1.8461
 1409TIP3    H225719   0.437   2.446   4.663 -0.8031 -0.0059 -3.3082
 1410TIP3   OH225720   4.362   4.195  11.322 -0.5815 -0.5994 -0.4950
 1410TIP3    H125721   4.357   4.115  11.373 -0.8805 -0.7145 -0.7030
 1410TIP3    H225722   4.307   4.258  11.369  1.6844  0.2972  1.1114
 1411TIP3   OH225723   1.669   5.087   4.838 -0.0031 -0.3904 -0.1919
 1411TIP3    H125724   1.764   5.084   4.845 -0.1510 -1.3451  2.7047
 1411TIP3    H225725   1.641   4.997   4.859 -1.5623  0.1216  0.0334
 1412TIP3   OH225726   2.057   3.608   0.379 -0.0298 -0.3198 -0.4629
 1412TIP3    H125727   1.990   3.674   0.361 -0.6261 -1.0174 -0.8519
 1412TIP3    H225728   2.007   3.527   0.392  0.7394 -0.8386 -0.7269
 1413TIP3   OH225729   2.644   1.308  12.749  0.1172  0.2224 -0.6359
 1413TIP3    H125730   2.629   1.222  12.788 -1.2202  0.6091 -0.2650
 1413TIP3    H225731   2.722   1.296  12.694  2.0327 -0.3922  1.9884
 1414TIP3   OH225732   6.392   5.590   3.100  0.0131  0.5752  0.0405
 1414TIP3    H125733   6.443   5.510   3.088  0.9518  1.3172 -1.0371
 1414TIP3    H225734   6.405   5.613   3.192 -1.2571 -1.1375  0.7122
 1415TIP3   OH225735   1.284   2.187   4.529  0.3707  0.0303  0.0188
 1415TIP3    H125736   1.195   2.153   4.521  0.7695 -1.3900  1.0993
 1415TIP3    H225737   1.303   2.225   4.444 -0.2091 -2.3949 -1.2970
 1416TIP3   OH225738   5.591   1.232   4.972 -0.2184  0.1689  0.0082
 1416TIP3    H125739   5.676   1.188   4.976 -0.6779 -0.8229 -0.6810
 1416TIP3    H225740   5.551   1.214   5.057 -1.1598 -2.4353 -0.8569
 1417TIP3   OH225741   1.462   5.128   6.288  0.5536 -0.5068  0.4321
 1417TIP3    H125742   1.493   5.175   6.211  1.1288 -0.8414  0.4552
 1417TIP3    H225743   1.370   5.110   6.269  0.0960  1.3182  0.7661
 1418TIP3   OH225744   6.592   5.720   3.395 -0.0671 -0.4625 -0.2098
 1418TIP3    H125745   6.676   5.721   3.441 -0.3927  1.4517  0.4437
 1418TIP3    H225746   6.532   5.678   3.457  0.5768 -2.8904 -1.1281
 1419TIP3   OH225747   5.257   4.196  16.066 -0.5182 -0.4551 -0.1950
 1419TIP3    H125748   5.269   4.144  15.987  1.3826 -2.1844  1.1276
 1419TIP3    H225749   5.257   4.133  16.137 -2.6784  1.0019  1.2144
 1420TIP3   OH225750   4.651   6.204  17.045 -0.0719  0.0057  0.0364
 1420TIP3    H125751   4.726   6.173  16.994  0.3279  0.4537  0.3452
 1420TIP3    H225752   4.668   6.297  17.059 -1.2977  0.3999 -0.9405
 1421TIP3   OH225753   5.404   5.381  16.781  0.0202 -0.3964  0.0605
 1421TIP3    H125754   5.359   5.355  16.700 -1.4662  0.3831  0.6055
 1421TIP3    H225755   5.348   5.348  16.851  0.7981 -0.2149  0.7728
 1422TIP3   OH225756   6.812   1.957   3.699  0.3944 -0.8842  0.1946
 1422TIP3    H125757   6.774   1.970   3.612  0.8160 -0.0519  0.1247
 1422TIP3    H225758   6.904   1.981   3.689  0.1516  0.6272  1.1918
 1423TIP3   OH225759   4.111   4.896  15.447 -0.6063 -0.0696  0.4231
 1423TIP3    H125760   4.124   4.904  15.541 -0.5088 -0.8185  0.4776
 1423TIP3    H225761   4.050   4.967  15.425 -0.6942  0.0539  1.0569
 1424TIP3   OH225762   2.825   3.959   2.966  0.0504 -0.0413  0.0874
 1424TIP3    H125763   2.849   3.901   3.038  1.0116 -0.2869 -0.4235
 1424TIP3    H225764   2.731   3.974   2.978 -0.6122 -2.9842 -0.6934
 1425TIP3   OH225765   3.879   0.156   3.378  0.3217 -0.6535  0.1211
 1425TIP3    H125766   3.894   0.065   3.404  1.7256 -0.3252  0.5129
 1425TIP3    H225767   3.809   0.151   3.313  1.3477 -2.1773 -0.9287
 1426TIP3   OH225768   2.083   0.588  15.652 -0.4726 -0.4239 -0.0422
 1426TIP3    H125769   2.093   0.666  15.707 -1.0135  0.4391 -1.1319
 1426TIP3    H225770   2.173   0.561  15.632 -0.2782 -0.4157  0.7904
 1427TIP3   OH225771   4.821   6.022   0.330  0.2378 -0.4752 -0.0830
 1427TIP3    H125772   4.917   6.021   0.331  0.2812  0.6884 -0.7771
 1427TIP3    H225773   4.799   6.093   0.269 -1.0674 -0.6544  0.1588
 1428TIP3   OH225774   3.101   6.672   5.408  0.5132  0.1752 -0.1015
 1428TIP3    H125775   3.011   6.658   5.439  0.5559  0.4934  0.1820
 1428TIP3    H225776   3.102   6.637   5.320  0.9167 -2.5523  0.9023
 1429TIP3   OH225777   0.560   5.268   2.744  0.1797  0.0186  0.1450
 1429TIP3    H125778   0.575   5.361   2.724 -0.2218  0.4115  1.5985
 1429TIP3    H225779   0.583   5.223   2.662  2.0775  1.2337 -0.0677
 1430TIP3   OH225780   4.563   1.115  11.507 -0.6533  0.1300 -0.2927
 1430TIP3    H125781   4.520   1.030  11.498  0.5869 -0.4770 -0.6465
 1430TIP3    H225782   4.647   1.105  11.462 -0.1583  1.3052  0.3258
 1431TIP3   OH225783   1.695   6.485  13.925 -0.1113 -0.1650  0.3534
 1431TIP3    H125784   1.614   6.535  13.913  0.0949 -0.0710 -0.7806
 1431TIP3    H225785   1.729   6.473  13.836  2.0342  1.3110  0.8838
 1432TIP3   OH225786   4.891   3.367  14.091 -0.0575 -0.1247 -0.6668
 1432TIP3    H125787   4.802   3.387  14.063 -0.6673 -0.1112  1.1203
 1432TIP3    H225788   4.881   3.340  14.182  1.5272 -2.0570 -0.9975
 1433TIP3   OH225789   1.393   5.651   5.586  0.0392  0.4937  0.1007
 1433TIP3    H125790   1.433   5.685   5.506  1.3577 -2.6881 -0.7180
 1433TIP3    H225791   1.395   5.725   5.647  2.0887  2.0592 -1.7120
 1434TIP3   OH225792   3.369   6.695   0.489  0.1204  0.2880  0.3336
 1434TIP3    H125793   3.450   6.682   0.539 -0.5814  0.1896  1.4779
 1434TIP3    H225794   3.397   6.692   0.397  1.2340 -1.0231  0.6753
 1435TIP3   OH225795   4.289   5.713  11.887 -0.4928 -0.0926 -0.5359
 1435TIP3    H125796   4.381   5.691  11.902 -0.8360 -0.7158  0.7911
 1435TIP3    H225797   4.265   5.666  11.807 -0.1692 -1.5113  0.1712
 1436TIP3   OH225798   6.500   1.399   4.305  0.5617  0.0038 -0.0273
 1436TIP3    H125799   6.417   1.416   4.350 -0.7724 -2.1584 -1.4787
 1436TIP3    H225800   6.567   1.421   4.370 -1.1106  1.4053  1.3566
 1437TIP3   OH225801   1.651   4.337  13.533  0.8062 -0.0821 -0.0635
 1437TIP3    H125802   1.667   4.354  13.440  0.0239 -0.6699 -0.3191
 1437TIP3    H225803   1.737   4.345  13.575  1.2794 -0.4998 -0.9402
 1438TIP3   OH225804   5.974   5.250   6.148  0.4492 -0.9455  0.1074
 1438TIP3    H125805   5.955   5.341   6.124 -1.8051 -1.1372  0.8921
 1438TIP3    H225806   5.962   5.201   6.067  0.3815 -0.6834 -0.0436
 1439TIP3   OH225807   4.061   5.564   4.920 -0.7957  0.0769  0.2986
 1439TIP3    H125808   4.100   5.482   4.888 -0.2870  0.2672  0.4183
 1439TIP3    H225809   3.967   5.552   4.908 -0.8874 -1.2202  1.8683
 1440TIP3   OH225810   3.289   3.458   4.042  0.2249 -0.4725 -0.1363
 1440TIP3    H125811   3.240   3.532   4.006  0.6483  0.4722  1.1707
 1440TIP3    H225812   3.229   3.384   4.035 -1.1519  0.5093  0.7566
 1441TIP3   OH225813   1.818   1.613  15.960 -0.3487 -0.2020  0.2168
 1441TIP3    H125814   1.831   1.525  15.994 -2.0708 -0.1837  1.0158
 1441TIP3    H225815   1.749   1.651  16.015  0.2949  1.6303 -0.1435
 1442TIP3   OH225816   5.201   5.431   0.245  0.0418  0.8696 -0.4289
 1442TIP3    H125817   5.148   5.476   0.311 -0.9123  2.2856 -2.0517
 1442TIP3    H225818   5.282   5.482   0.241  0.3489  0.4263  0.0456
 1443TIP3   OH225819   2.619   2.040  11.465  0.0888 -0.1141 -0.4056
 1443TIP3    H125820   2.559   2.072  11.533 -0.6359 -1.4177 -0.4139
 1443TIP3    H225821   2.686   1.991  11.513  1.1655  1.2873 -0.4014
 1444TIP3   OH225822   3.903   5.174  16.576  0.0833 -0.2207 -0.2175
 1444TIP3    H125823   3.988   5.212  16.599 -0.4824  0.7899  0.2706
 1444TIP3    H225824   3.840   5.220  16.631 -0.8918 -0.2946 -1.2298
 1445TIP3   OH225825   0.067   6.689  15.948 -0.1900  0.2387  0.1914
 1445TIP3    H125826   0.025   6.654  15.870 -1.9863  1.1527  0.6858
 1445TIP3    H225827   0.115   6.766  15.918 -1.2775  0.8721  0.0461
 1446TIP3   OH225828   3.518   3.353   3.080  0.5271 -0.8352  0.2915
 1446TIP3    H125829   3.542   3.333   2.990  0.7224 -2.9386  0.7520
 1446TIP3    H225830   3.576   3.425   3.105 -1.5061  1.8120 -2.0859
 1447TIP3   OH225831   2.611   4.611  15.009  0.1384 -0.0078  0.4845
 1447TIP3    H125832   2.583   4.521  14.990 -0.2877  0.4937 -1.4746
 1447TIP3    H225833   2.657   4.604  15.093 -0.1719 -1.9917  0.5481
 1448TIP3   OH225834   2.126   1.389  15.629  0.6400  0.0879  0.6239
 1448TIP3    H125835   2.141   1.384  15.535  0.6926 -0.6319  0.6655
 1448TIP3    H225836   2.078   1.309  15.650 -0.2417  0.7169  1.0520
 1449TIP3   OH225837   0.708   0.417   0.553  0.0044 -0.1261 -0.0303
 1449TIP3    H125838   0.733   0.338   0.600  1.2369  1.4938  2.2386
 1449TIP3    H225839   0.787   0.471   0.554 -0.8955  1.2939 -1.2021
 1450TIP3   OH225840   0.639   0.769  13.176 -0.4480 -0.5433 -0.4117
 1450TIP3    H125841   0.691   0.695  13.209 -0.6241  0.2631  1.8075
 1450TIP3    H225842   0.693   0.805  13.105  0.3478 -1.8763 -0.5224
 1451TIP3   OH225843   6.792   0.724  14.514  0.2756 -0.2075 -0.1784
 1451TIP3    H125844   6.717   0.690  14.562  0.0644  0.6245  0.0824
 1451TIP3    H225845   6.802   0.814  14.544  1.0960 -0.1608 -0.5501
 1452TIP3   OH225846   4.381   5.509  14.836  0.1839  0.0149 -0.9500
 1452TIP3    H125847   4.301   5.507  14.784  0.7021  2.4075 -1.9756
 1452TIP3    H225848   4.450   5.531  14.773  1.3411 -0.1274  0.2218
 1453TIP3   OH225849   1.965   4.397  14.394 -0.0276  0.0888 -0.0667
 1453TIP3    H125850   1.902   4.363  14.457  1.3498 -0.3753  1.1132
 1453TIP3    H225851   1.916   4.402  14.311 -1.6323 -0.0846  0.8292
 1454TIP3   OH225852   2.794   1.342  16.544 -0.3617  0.0958 -0.6278
 1454TIP3    H125853   2.858   1.281  16.580 -0.3169  0.7052  0.3558
 1454TIP3    H225854   2.709   1.303  16.566 -0.3410 -0.1953 -1.0399
 1455TIP3   OH225855   5.314   2.444   5.264 -0.2977  0.1586  0.5672
 1455TIP3    H125856   5.324   2.535   5.292 -0.4960  0.0226  1.1024
 1455TIP3    H225857   5.383   2.431   5.198 -0.2894  0.7008  0.4641
 1456TIP3   OH225858   6.096   0.719  16.110 -0.4353  0.3924  0.0910
 1456TIP3    H125859   6.100   0.739  16.017  0.2666 -0.3740 -0.0593
 1456TIP3    H225860   6.159   0.648  16.122 -1.3815 -0.3341  0.9459
 1457TIP3   OH225861   5.134   0.507   0.505  0.1705 -0.5894 -0.1832
 1457TIP3    H125862   5.191   0.521   0.429 -0.2610 -0.2969 -0.4562
 1457TIP3    H225863   5.048   0.488   0.467 -0.5866  1.7330  0.1969
 1458TIP3   OH225864   4.927   5.363   2.198  0.0554  0.0140  0.0352
 1458TIP3    H125865   4.857   5.353   2.134  1.0762  0.5872 -1.2174
 1458TIP3    H225866   4.947   5.457   2.197 -0.7243  0.2482  2.1155
 1459TIP3   OH225867   3.935   5.815  11.745  0.0073 -0.1933 -0.0396
 1459TIP3    H125868   3.870   5.885  11.744 -0.7237 -0.8597 -0.1340
 1459TIP3    H225869   4.012   5.854  11.786 -0.4134  0.6378 -0.0219
 1460TIP3   OH225870   2.251   6.316  15.811 -0.2469  0.0803 -0.5006
 1460TIP3    H125871   2.320   6.268  15.857 -0.6604  0.4713  0.5539
 1460TIP3    H225872   2.288   6.403  15.798 -0.1468 -0.0179 -0.8799
 1461TIP3   OH225873   6.824   1.305   0.567  0.4231 -0.2752 -0.0373
 1461TIP3    H125874   6.762   1.357   0.619  2.0435  0.4045  1.3057
 1461TIP3    H225875   6.779   1.222   0.554 -0.7862  0.1870  0.8808
 1462TIP3   OH225876   4.316   6.789  11.933 -0.3195 -0.2474 -0.6835
 1462TIP3    H125877   4.391   6.807  11.876 -0.2054 -1.9617 -1.1521
 1462TIP3    H225878   4.240   6.807  11.878 -0.2525  0.8130 -0.4406
 1463TIP3   OH225879   1.379   5.611  16.548 -0.5104  0.4204 -0.0547
 1463TIP3    H125880   1.400   5.518  16.550 -3.1423 -0.2845 -0.6123
 1463TIP3    H225881   1.360   5.634  16.639  0.3640  0.4869  0.1156
 1464TIP3   OH225882   0.204   6.790  14.640  0.0851  0.7636  0.4275
 1464TIP3    H125883   0.111   6.802  14.658  0.4112  1.3393  1.7921
 1464TIP3    H225884   0.230   6.868  14.591 -0.2463  0.3727 -0.3862
 1465TIP3   OH225885   6.547   0.824   6.480 -0.2396  0.0320 -0.1077
 1465TIP3    H125886   6.505   0.744   6.448 -2.0664 -0.1304  2.3512
 1465TIP3    H225887   6.628   0.795   6.521 -0.6701 -0.5241  0.3620
 1466TIP3   OH225888   2.628   2.205   1.486 -0.1962 -0.2402  0.0619
 1466TIP3    H125889   2.712   2.200   1.531 -0.6873  0.8076  1.1288
 1466TIP3    H225890   2.595   2.115   1.487  0.4826 -0.4886  0.4508
 1467TIP3   OH225891   1.806   4.006   2.284 -0.2150 -0.0774  0.4444
 1467TIP3    H125892   1.710   4.008   2.283 -0.2113  0.7386  0.4983
 1467TIP3    H225893   1.832   4.082   2.232  0.4604 -2.7912 -3.6604
 1468TIP3   OH225894   3.571   1.906  15.928 -0.0733  0.3972 -0.0161
 1468TIP3    H125895   3.525   1.938  16.005  1.4707  0.3458  0.9846
 1468TIP3    H225896   3.571   1.980  15.867 -0.8375  0.6178  0.2373
 1469TIP3   OH225897   5.363   1.335  16.402 -0.1124 -0.0334  0.0155
 1469TIP3    H125898   5.399   1.387  16.330  0.3497  0.7703  0.8078
 1469TIP3    H225899   5.371   1.391  16.479 -1.8025 -0.3824  0.4786
 1470TIP3   OH225900   5.404   2.203   0.559 -0.0430 -0.1524  0.0852
 1470TIP3    H125901   5.322   2.155   0.560  1.2825 -2.6573  1.9628
 1470TIP3    H225902   5.398   2.262   0.635 -0.3834  0.2414 -0.2430
 1471TIP3   OH225903   2.151   1.616  10.937 -0.5261 -0.6687 -0.2377
 1471TIP3    H125904   2.087   1.545  10.940  1.4283 -2.5087  0.4910
 1471TIP3    H225905   2.218   1.585  10.876 -0.3993  1.3257 -1.1909
 1472TIP3   OH225906   6.606   1.694   5.145  0.3730  0.6058 -0.3453
 1472TIP3    H125907   6.551   1.635   5.197  1.4496 -0.0134  0.1382
 1472TIP3    H225908   6.661   1.635   5.092  1.8571  1.1252  0.5410
 1473TIP3   OH225909   0.420   1.234  11.879  0.6503 -0.4046  0.9192
 1473TIP3    H125910   0.448   1.323  11.903 -0.1374  0.0415  0.2296
 1473TIP3    H225911   0.500   1.182  11.883  0.9426  0.1108  2.3453
 1474TIP3   OH225912   2.881   0.025   1.588 -0.4675 -0.1854  0.5011
 1474TIP3    H125913   2.976   0.039   1.589 -0.5074  0.0596  0.6860
 1474TIP3    H225914   2.864  -0.008   1.500 -0.2825  0.2633  0.2942
 1475TIP3   OH225915   4.788   4.506  12.870  0.2124  0.2283 -0.0683
 1475TIP3    H125916   4.768   4.532  12.959 -0.8321  1.3625 -0.6101
 1475TIP3    H225917   4.884   4.497  12.868  0.3387  1.2444  0.8887
 1476TIP3   OH225918   5.640   5.314  14.816 -0.3887 -0.0805 -0.5317
 1476TIP3    H125919   5.551   5.315  14.780 -0.3617 -5.6887 -1.6815
 1476TIP3    H225920   5.694   5.353  14.747 -1.5893 -0.0528 -1.4813
 1477TIP3   OH225921   6.175   0.978   1.526 -0.0862 -1.0782 -0.1197
 1477TIP3    H125922   6.166   1.072   1.541 -2.1408 -0.9033 -2.0243
 1477TIP3    H225923   6.144   0.938   1.608 -2.4055 -0.0809 -0.4153
 1478TIP3   OH225924   4.949   5.678   2.566 -0.2677  0.1504 -0.3134
 1478TIP3    H125925   4.880   5.655   2.504 -1.0400 -0.3955  0.7279
 1478TIP3    H225926   5.007   5.736   2.516 -0.7295 -0.4698 -1.6138
 1479TIP3   OH225927   4.309   1.007   1.713  0.0622  0.3519 -0.4531
 1479TIP3    H125928   4.261   0.925   1.698 -1.6945  1.1761  0.2865
 1479TIP3    H225929   4.397   0.979   1.738 -0.9112 -1.4037  1.3335
 1480TIP3   OH225930   4.709   0.095  13.246 -0.6768  0.1141 -0.4366
 1480TIP3    H125931   4.695   0.178  13.200 -0.6123  0.2916 -0.1401
 1480TIP3    H225932   4.688   0.115  13.338 -0.6940 -0.2060 -0.3703
 1481TIP3   OH225933   3.091   2.194   2.905 -0.0333  0.1745  0.4845
 1481TIP3    H125934   3.149   2.267   2.883  0.4172 -0.9392 -2.3988
 1481TIP3    H225935   3.003   2.228   2.888 -0.0330  0.8183  1.6700
 1482TIP3   OH225936   5.652   3.506  10.705 -0.7517 -0.2475 -0.2716
 1482TIP3    H125937   5.655   3.412  10.684  1.9562 -0.3897  0.2996
 1482TIP3    H225938   5.740   3.537  10.681 -0.8248  1.6414  1.7194
 1483TIP3   OH225939   5.533   4.374  14.641 -0.7519  0.5652 -0.4445
 1483TIP3    H125940   5.454   4.400  14.688 -0.3382 -0.5086  0.9132
 1483TIP3    H225941   5.590   4.337  14.708  1.4844  2.4848 -1.1167
 1484TIP3   OH225942   1.519   3.124  13.089  0.2931  0.2081  0.0640
 1484TIP3    H125943   1.497   3.216  13.073  0.2594  0.0502 -0.8730
 1484TIP3    H225944   1.444   3.075  13.056  0.9904 -0.2198 -0.9422
 1485TIP3   OH225945   6.193   6.160   0.863 -0.2307 -0.0769 -0.1821
 1485TIP3    H125946   6.190   6.065   0.854 -0.3318 -0.0478 -0.4524
 1485TIP3    H225947   6.128   6.193   0.801 -1.3185  0.0987  1.0070
 1486TIP3   OH225948   1.929   3.753   1.065 -0.4211 -0.7348 -0.1825
 1486TIP3    H125949   2.019   3.723   1.055 -0.5560 -1.2909  0.2244
 1486TIP3    H225950   1.918   3.819   0.996  0.3936 -0.4158 -0.0235
 1487TIP3   OH225951   2.236   0.454  15.326 -0.3428 -0.3962 -0.4151
 1487TIP3    H125952   2.180   0.492  15.257 -1.8346  0.4771  1.2068
 1487TIP3    H225953   2.303   0.521  15.341  0.9397 -1.2406 -2.0242
 1488TIP3   OH225954   6.205   5.914  10.310 -0.0451  0.3122  0.1442
 1488TIP3    H125955   6.192   5.964  10.230  1.1156  0.9923  0.3563
 1488TIP3    H225956   6.237   5.978  10.373 -0.8626 -0.2326  1.1315
 1489TIP3   OH225957   2.644   2.382  15.248  0.0990  0.2994  0.1959
 1489TIP3    H125958   2.690   2.363  15.167 -0.6291  2.4610 -0.8103
 1489TIP3    H225959   2.579   2.312  15.257 -0.3818  0.4847 -1.5758
 1490TIP3   OH225960   3.775   5.551  14.084 -0.4126 -0.3824 -0.3943
 1490TIP3    H125961   3.862   5.547  14.044 -0.7404 -2.1458 -1.0574
 1490TIP3    H225962   3.791   5.537  14.177 -0.0710 -2.6829 -0.7377
 1491TIP3   OH225963   5.040   0.073   4.663 -0.2690 -0.3849 -0.0317
 1491TIP3    H125964   4.961   0.109   4.621  0.1409  1.4055  0.6217
 1491TIP3    H225965   5.106   0.142   4.652  1.1346 -1.6993 -0.2569
 1492TIP3   OH225966   2.357   0.703   4.559 -0.5874  0.4567  0.0289
 1492TIP3    H125967   2.334   0.709   4.651  0.6641 -1.3470  0.5064
 1492TIP3    H225968   2.284   0.655   4.519 -0.3781 -0.1893  0.4133
 1493TIP3   OH225969   1.017   0.949   3.309  0.6701  0.1141  0.1219
 1493TIP3    H125970   1.070   0.997   3.373  0.3803 -0.1028  0.5305
 1493TIP3    H225971   1.079   0.890   3.266  0.8866  0.3314  0.1323
 1494TIP3   OH225972   1.496   3.746  11.973  0.1014  0.5103 -0.3213
 1494TIP3    H125973   1.490   3.679  11.905  2.0074  0.1318 -0.1873
 1494TIP3    H225974   1.410   3.747  12.015 -0.1839 -1.3514 -0.7862
 1495TIP3   OH225975   2.139   2.770  11.503 -0.9407  0.5338  1.1465
 1495TIP3    H125976   2.110   2.840  11.443 -0.3278 -1.5461 -1.7943
 1495TIP3    H225977   2.059   2.723  11.525 -0.9330  0.0841  0.2491
 1496TIP3   OH225978   1.854   2.145  15.430 -0.1603  0.1747 -0.1379
 1496TIP3    H125979   1.944   2.116  15.444  0.1116  1.1478  0.2746
 1496TIP3    H225980   1.854   2.237  15.458 -1.1982  0.2914 -0.4635
 1497TIP3   OH225981   1.076   3.469  16.990  0.1652 -0.0290  0.4177
 1497TIP3    H125982   1.151   3.519  16.957 -0.7481  1.2886  0.2373
 1497TIP3    H225983   1.101   3.446  17.080  1.2992 -0.7468 -0.0507
 1498TIP3   OH225984   4.055   3.198  15.353 -0.1966  0.6351  0.8157
 1498TIP3    H125985   4.036   3.219  15.262 -0.6128  0.8402  0.9482
 1498TIP3    H225986   4.032   3.277  15.401  1.7977  1.2145  0.8995
 1499TIP3   OH225987   4.745   3.821  16.863  0.1112  0.0000 -0.2556
 1499TIP3    H125988   4.745   3.726  16.852  2.5496 -0.4393  2.5430
 1499TIP3    H225989   4.829   3.850  16.827 -0.9031  1.2700 -1.7533
 1500TIP3   OH225990   0.999   1.054   1.614 -0.0655 -0.2255 -0.4389
 1500TIP3    H125991   1.080   1.101   1.593  0.5754  0.5324  3.0851
 1500TIP3    H225992   1.028   0.968   1.643 -0.6780 -0.4839 -0.5775
 1501TIP3   OH225993   1.869   5.860  10.746  0.4388  0.1688  0.3420
 1501TIP3    H125994   1.779   5.884  10.767  0.6859 -0.5559  2.4895
 1501TIP3    H225995   1.914   5.945  10.740 -0.5024  0.5842 -1.6342
 1502TIP3   OH225996   4.308   1.030   1.124 -0.2671 -0.3309 -0.1722
 1502TIP3    H125997   4.295   1.014   1.031  1.7839  0.5113 -0.6558
 1502TIP3    H225998   4.402   1.045   1.133 -0.5183  0.3317  1.9280
 1503TIP3   OH225999   4.889   5.907  13.594 -0.3801  0.3262  0.0437
 1503TIP3    H126000   4.923   5.965  13.525  1.8890  1.5902  2.0625
 1503TIP3    H226001   4.943   5.829  13.588 -0.8082  0.0426 -0.1732
 1504TIP3   OH226002   3.414   4.497   1.370  0.3691 -0.0490 -0.8512
 1504TIP3    H126003   3.508   4.513   1.370  0.5903 -1.2689 -0.3471
 1504TIP3    H226004   3.382   4.536   1.451  0.0774  2.1387 -1.9294
 1505TIP3   OH226005   5.496   5.778  12.477 -0.1422 -0.0425 -0.5140
 1505TIP3    H126006   5.562   5.741  12.418 -0.9284 -0.2775 -1.2800
 1505TIP3    H226007   5.482   5.711  12.544 -0.2860 -0.4018 -0.8970
 1506TIP3   OH226008   5.554   3.251  16.280 -0.4475  0.6724  0.0123
 1506TIP3    H126009   5.499   3.324  16.308 -0.4860  0.9879 -0.8540
 1506TIP3    H226010   5.643   3.287  16.280 -0.3287  0.3883  0.6630
 1507TIP3   OH226011   6.113   1.104  12.703 -0.2704  0.1505 -0.6044
 1507TIP3    H126012   6.186   1.090  12.763  0.7162 -1.9403 -2.1534
 1507TIP3    H226013   6.154   1.114  12.617 -1.7694 -0.8203 -1.4827
 1508TIP3   OH226014   4.277   1.763  15.156  0.8738  0.3785 -0.1396
 1508TIP3    H126015   4.308   1.738  15.070 -1.5301 -1.8983 -0.4708
 1508TIP3    H226016   4.311   1.695  15.215  0.3569  0.4375  0.2380
 1509TIP3   OH226017   0.676   0.627   2.822 -0.6328 -0.3334 -0.1808
 1509TIP3    H126018   0.751   0.627   2.763 -0.5207  1.6319 -0.0898
 1509TIP3    H226019   0.675   0.715   2.860 -2.6177 -0.5072  0.2800
 1510TIP3   OH226020   2.137   5.289   3.977 -0.0607  0.6237 -0.2145
 1510TIP3    H126021   2.162   5.237   4.054  0.1177  1.0341  0.0029
 1510TIP3    H226022   2.044   5.270   3.965  0.2047 -0.5010 -0.7148
 1511TIP3   OH226023   1.075   0.830   2.420  0.1412 -0.0879  0.1011
 1511TIP3    H126024   1.043   0.742   2.441 -0.2735  0.2608  0.9607
 1511TIP3    H226025   1.118   0.860   2.500 -2.6186  1.7867  1.0547
 1512TIP3   OH226026   1.222   6.797  16.852  0.3243 -0.6195 -0.0414
 1512TIP3    H126027   1.258   6.885  16.845  0.0561 -0.6151 -2.7437
 1512TIP3    H226028   1.150   6.797  16.789 -1.8976 -1.8010  2.3517
 1513TIP3   OH226029   3.708   0.868  14.589  0.0332  0.3341 -0.2905
 1513TIP3    H126030   3.651   0.887  14.664 -0.8932  1.7599 -1.2919
 1513TIP3    H226031   3.746   0.953  14.566 -0.4212  0.1201 -1.9719
 1514TIP3   OH226032   5.838   6.291   4.274  0.0980 -0.4758  0.3973
 1514TIP3    H126033   5.863   6.220   4.215 -3.0161 -1.0205 -0.4481
 1514TIP3    H226034   5.856   6.258   4.362  1.3250 -1.1463 -0.0941
 1515TIP3   OH226035   4.216   5.501  14.171 -0.0528  0.4786  0.2251
 1515TIP3    H126036   4.150   5.570  14.164 -1.6767 -1.1247 -1.3975
 1515TIP3    H226037   4.297   5.542  14.141 -0.9754  1.7013 -0.6813
 1516TIP3   OH226038   1.508   4.751  14.972 -0.1551  0.2752 -0.3792
 1516TIP3    H126039   1.594   4.793  14.982  0.2724 -0.8799  1.1413
 1516TIP3    H226040   1.465   4.802  14.904  1.7889  0.8122 -1.2946
 1517TIP3   OH226041   1.371   3.512   6.217 -0.2869 -0.0675 -0.2474
 1517TIP3    H126042   1.432   3.477   6.152  0.7925  1.2766  0.0020
 1517TIP3    H226043   1.319   3.436   6.244  0.1701 -0.9232 -1.6479
 1518TIP3   OH226044   6.441   4.023   5.381 -0.0823  0.1335 -0.0696
 1518TIP3    H126045   6.389   4.013   5.301  0.4489  0.3762 -0.4568
 1518TIP3    H226046   6.445   4.118   5.395 -0.5514  0.0727  0.5050
 1519TIP3   OH226047   3.060   1.603   1.912  0.4000  0.3514 -0.1839
 1519TIP3    H126048   3.130   1.565   1.965 -0.0632  0.2123  0.3354
 1519TIP3    H226049   3.016   1.664   1.971 -1.5193 -1.4047  0.3154
 1520TIP3   OH226050   2.215   0.204   1.029 -0.0780 -0.0070 -0.2953
 1520TIP3    H126051   2.256   0.222   1.114 -0.4906  1.2398 -0.3362
 1520TIP3    H226052   2.289   0.193   0.969  0.2168  0.6586 -0.0654
 1521TIP3   OH226053   5.366   2.611   0.480 -0.0784  0.2279 -0.4845
 1521TIP3    H126054   5.384   2.703   0.499 -1.3318  0.8063 -1.9327
 1521TIP3    H226055   5.397   2.564   0.558  0.5210  1.8618  0.3067
 1522TIP3   OH226056   6.713   5.691   1.994 -0.3180 -0.3651  0.2839
 1522TIP3    H126057   6.787   5.684   2.054  0.0561  0.5076 -0.0628
 1522TIP3    H226058   6.686   5.601   1.979  1.8258 -0.8424 -1.0158
 1523TIP3   OH226059   1.829   5.652  15.753 -0.2039  0.1097  0.2560
 1523TIP3    H126060   1.769   5.591  15.710  1.3480 -0.9704 -0.4325
 1523TIP3    H226061   1.910   5.646  15.703  1.9545 -1.6877  3.6054
 1524TIP3   OH226062   2.442   2.588  15.685  0.8379  0.1893 -0.4225
 1524TIP3    H126063   2.483   2.561  15.603  0.7161 -3.3943  0.5308
 1524TIP3    H226064   2.453   2.514  15.743 -0.0735  2.1590  2.4986
 1525TIP3   OH226065   6.140   2.427  11.356 -0.0316 -0.3942 -0.4692
 1525TIP3    H126066   6.055   2.432  11.401 -0.4921 -1.2257 -1.2278
 1525TIP3    H226067   6.188   2.504  11.387 -1.1119  0.1585 -0.1362
 1526TIP3   OH226068   2.411   3.622   5.141  0.0239 -0.1464 -0.0125
 1526TIP3    H126069   2.403   3.624   5.236 -0.3157  0.2489 -0.0439
 1526TIP3    H226070   2.431   3.712   5.116 -0.6233 -0.0882 -0.3668
 1527TIP3   OH226071   2.767   4.282   5.418 -0.3977 -0.2186  0.1659
 1527TIP3    H126072   2.845   4.322   5.380  0.8538 -2.0396  0.6749
 1527TIP3    H226073   2.749   4.206   5.362 -0.1762 -1.3420  1.5539
 1528TIP3   OH226074   0.678   5.019  14.339 -0.1042 -0.6867  0.2339
 1528TIP3    H126075   0.761   4.986  14.304  0.8652  0.0668  1.6992
 1528TIP3    H226076   0.618   4.944  14.333  0.9124 -1.5050 -0.0845
 1529TIP3   OH226077   0.733   3.645  14.936  0.2029  0.3097 -0.5574
 1529TIP3    H126078   0.828   3.649  14.946  0.3305 -0.2913 -1.4665
 1529TIP3    H226079   0.710   3.553  14.950  0.1809 -0.2487 -3.5428
 1530TIP3   OH226080   1.899   5.486  11.357  0.0347 -0.0502  0.6188
 1530TIP3    H126081   1.806   5.507  11.349 -0.0514  0.1614  1.9597
 1530TIP3    H226082   1.905   5.393  11.338 -0.2564  0.1726 -0.6996
 1531TIP3   OH226083   5.471   2.265   2.632 -0.2767  0.4855  0.4329
 1531TIP3    H126084   5.551   2.214   2.646 -0.7024 -0.1909  0.4074
 1531TIP3    H226085   5.433   2.275   2.719 -1.7288 -1.7788  0.1435
 1532TIP3   OH226086   4.465   5.037  16.354 -0.0037 -0.3237  1.0034
 1532TIP3    H126087   4.487   5.071  16.267  0.0798 -2.1197  0.2808
 1532TIP3    H226088   4.550   5.027  16.398 -0.0435  0.5474  1.3059
 1533TIP3   OH226089   1.207   5.999  16.060 -0.0914 -0.2345 -0.2383
 1533TIP3    H126090   1.197   5.914  16.103  1.0454 -0.3628 -0.1889
 1533TIP3    H226091   1.136   6.003  15.997 -1.1165 -0.5331  0.8665
 1534TIP3   OH226092   2.108   5.911  16.151  0.3681 -0.3557 -0.1468
 1534TIP3    H126093   2.094   5.994  16.106  0.5486 -0.2019  0.0791
 1534TIP3    H226094   2.020   5.877  16.168  0.2701  0.2893  0.6864
 1535TIP3   OH226095   1.392   5.364  11.513  0.4746  0.0048  0.0649
 1535TIP3    H126096   1.325   5.347  11.580 -0.7383  0.3559 -1.0066
 1535TIP3    H226097   1.450   5.428  11.553  0.8673 -1.1831  1.4597
 1536TIP3   OH226098   5.883   5.872  14.999  0.3980  0.2578  0.1981
 1536TIP3    H126099   5.846   5.804  15.055 -0.0144 -0.4052 -0.8418
 1536TIP3    H226100   5.834   5.951  15.021 -1.6467 -0.5742 -1.0809
 1537TIP3   OH226101   4.843   0.672   3.241 -0.1349  0.1622  0.1975
 1537TIP3    H126102   4.890   0.591   3.222  0.0865  0.6014 -1.2627
 1537TIP3    H226103   4.752   0.653   3.218 -0.7405 -0.6598  2.9391
 1538TIP3   OH226104   4.018   5.558   4.146 -0.1314  0.6592  0.6033
 1538TIP3    H126105   4.020   5.493   4.076 -2.7414  0.9657  0.1570
 1538TIP3    H226106   4.033   5.642   4.102  0.8577  0.6246  0.8401
 1539TIP3   OH226107   6.085   4.467   5.508 -0.2291 -0.6329  0.2255
 1539TIP3    H126108   6.051   4.464   5.598  1.0379 -0.1047  0.7483
 1539TIP3    H226109   6.157   4.405   5.507  1.5317  1.3120  0.3815
 1540TIP3   OH226110   4.043   1.799  15.844  0.9747 -0.0711 -0.0989
 1540TIP3    H126111   3.979   1.825  15.779 -0.3152  0.7171  1.4230
 1540TIP3    H226112   4.013   1.839  15.925  2.0498 -1.7164  1.1831
 1541TIP3   OH226113   1.083   3.257   3.534 -0.2310 -0.3058 -0.4492
 1541TIP3    H126114   1.144   3.231   3.466  0.1869 -0.3050 -0.0762
 1541TIP3    H226115   1.137   3.296   3.602 -0.4634 -1.7905  0.6209
 1542TIP3   OH226116   5.993   5.689   5.087 -0.0704 -0.4170 -0.1949
 1542TIP3    H126117   5.998   5.657   5.177  1.0790 -2.2073 -0.8473
 1542TIP3    H226118   6.029   5.778   5.091 -0.8128 -0.1550  1.2213
 1543TIP3   OH226119   1.904   5.610  16.075 -0.4554  0.0688  0.4495
 1543TIP3    H126120   1.859   5.650  16.001  0.8853  0.5134 -0.1647
 1543TIP3    H226121   1.922   5.683  16.135  0.1717  0.0491  0.2944
 1544TIP3   OH226122   1.007   4.953  16.506  0.4171 -0.0172 -0.0025
 1544TIP3    H126123   0.979   4.908  16.586 -2.0333 -0.9084 -1.2601
 1544TIP3    H226124   1.020   4.883  16.442 -1.2210  0.8632 -1.3716
 1545TIP3   OH226125   0.499   1.051   1.440 -0.0257  0.0044 -0.5519
 1545TIP3    H126126   0.423   1.108   1.433 -0.6196 -0.8382 -1.2679
 1545TIP3    H226127   0.572   1.103   1.406 -0.5544  0.3379 -1.1953
 1546TIP3   OH226128   4.443   1.452   1.754 -0.0193  0.0024 -0.0558
 1546TIP3    H126129   4.471   1.406   1.675  0.2021  0.2817 -0.1418
 1546TIP3    H226130   4.428   1.542   1.725  0.1364  0.1240  0.2362
 1547TIP3   OH226131   6.258   1.202   3.308  0.5813  0.3006 -0.4166
 1547TIP3    H126132   6.189   1.260   3.341 -0.3828 -1.3086  0.4830
 1547TIP3    H226133   6.307   1.257   3.246 -1.2400  1.6055 -0.7883
 1548TIP3   OH226134   2.238   4.294   1.769  0.0445  0.2568  0.5490
 1548TIP3    H126135   2.196   4.250   1.696 -1.9879  0.1106  1.7334
 1548TIP3    H226136   2.329   4.303   1.742 -0.5694  0.0109 -1.8848
 1549TIP3   OH226137   4.436   3.519   3.114  0.1981 -0.0267  0.2501
 1549TIP3    H126138   4.488   3.515   3.194 -1.3046 -0.4843  1.2394
 1549TIP3    H226139   4.477   3.455   3.055  1.1189  0.0747  0.7708
 1550TIP3   OH226140   0.787   3.073  15.560  0.1532 -0.4951  0.1460
 1550TIP3    H126141   0.726   3.023  15.507 -0.5697  1.3015 -0.7772
 1550TIP3    H226142   0.870   3.024  15.553 -0.3650 -1.2340 -1.1819
 1551TIP3   OH226143   3.165   5.401   1.672 -0.1908 -0.0448  0.0188
 1551TIP3    H126144   3.226   5.358   1.611  0.4458  0.1918  0.4751
 1551TIP3    H226145   3.079   5.368   1.646  0.4486 -4.2767  2.3782
 1552TIP3   OH226146   3.703   3.260  16.247  0.0849 -0.2295 -0.2158
 1552TIP3    H126147   3.704   3.220  16.334  0.7518  0.9206  0.3297
 1552TIP3    H226148   3.665   3.193  16.190 -3.1002 -0.0458  1.4312
 1553TIP3   OH226149   1.832   4.147   2.583 -0.4972  0.0510 -0.6136
 1553TIP3    H126150   1.900   4.123   2.519  0.1499 -1.3957  0.5542
 1553TIP3    H226151   1.824   4.242   2.575  2.0711  0.3456 -0.4075
 1554TIP3   OH226152   3.779   6.852   1.016 -0.1648  0.2016  0.9941
 1554TIP3    H126153   3.830   6.791   1.070  0.4537  0.3541  0.5972
 1554TIP3    H226154   3.689   6.823   1.026  0.2321 -1.6011 -0.2111
 1555TIP3   OH226155   0.979   4.189   1.416  0.4191 -0.1828  0.7083
 1555TIP3    H126156   0.936   4.116   1.461  1.6801 -0.2988  1.7677
 1555TIP3    H226157   1.006   4.153   1.332 -0.6793 -0.3668  0.4093
 1556TIP3   OH226158   4.189   0.074   1.537  0.1096  0.1790 -0.1500
 1556TIP3    H126159   4.267   0.129   1.533  1.1387 -1.2348 -0.2078
 1556TIP3    H226160   4.124   0.121   1.484  0.3991  2.1179  1.1106
 1557TIP3   OH226161   6.189   6.484   4.480 -0.2229 -0.6233  0.2867
 1557TIP3    H126162   6.160   6.526   4.399 -0.7641 -0.8378  0.3601
 1557TIP3    H226163   6.164   6.392   4.470 -0.7780 -0.5549  0.9020
 1558TIP3   OH226164   1.255   6.222   2.131 -0.0879  0.5105  0.4653
 1558TIP3    H126165   1.294   6.141   2.163  0.6224  0.1387 -1.2181
 1558TIP3    H226166   1.323   6.261   2.076 -0.8701  1.6195  0.2495
 1559TIP3   OH226167   3.452   2.196  15.853 -0.5011  0.1999  0.4048
 1559TIP3    H126168   3.381   2.175  15.914 -0.6623 -0.4307  0.0133
 1559TIP3    H226169   3.407   2.221  15.772 -0.2945  1.2587  0.6013
 1560TIP3   OH226170   1.260   1.299   3.901 -0.2840  0.2560 -0.0839
 1560TIP3    H126171   1.351   1.292   3.873 -0.1742 -1.7165  0.6179
 1560TIP3    H226172   1.249   1.391   3.925  2.1823  0.1278  1.8923
 1561TIP3   OH226173   0.878   0.397   4.262  0.0052  0.1484 -0.0532
 1561TIP3    H126174   0.900   0.483   4.227 -0.8049  1.0158  1.4777
 1561TIP3    H226175   0.782   0.394   4.262  0.0015 -1.3799 -1.4888
 1562TIP3   OH226176   4.848   1.281   4.787 -0.0088  0.2177 -0.4472
 1562TIP3    H126177   4.838   1.279   4.882  0.0800  2.8409 -0.2944
 1562TIP3    H226178   4.801   1.203   4.756 -0.3337 -0.5140  1.7052
 1563TIP3   OH226179   3.607   3.253  15.219  0.4582 -0.0717 -0.0585
 1563TIP3    H126180   3.585   3.345  15.236  0.1755  0.6262 -3.6070
 1563TIP3    H226181   3.523   3.208  15.214  0.5133 -0.1632 -0.1652
 1564TIP3   OH226182   0.945   0.547  11.289 -0.2986  0.0856 -0.2611
 1564TIP3    H126183   0.954   0.572  11.197  2.1601  1.3739  0.2386
 1564TIP3    H226184   0.902   0.622  11.330  0.5273  0.4449 -0.0255
 1565TIP3   OH226185   6.125   2.406  12.104 -0.3239  0.3862  0.1635
 1565TIP3    H126186   6.141   2.465  12.177  1.7036  1.9320 -1.4189
 1565TIP3    H226187   6.063   2.454  12.048 -0.2431  0.1307 -0.1461
 1566TIP3   OH226188   4.659   2.376  15.669  0.2671  0.0796 -0.1709
 1566TIP3    H126189   4.644   2.356  15.576 -0.5404  0.8841 -0.2253
 1566TIP3    H226190   4.571   2.389  15.705  0.6291  0.8649  0.4507
 1567TIP3   OH226191   0.048   0.034   3.524  0.1630  0.4495  0.1493
 1567TIP3    H126192  -0.042   0.044   3.493 -0.4403 -0.4227  1.5421
 1567TIP3    H226193   0.075  -0.051   3.490  0.9335  1.2223 -1.2913
 1568TIP3   OH226194   5.581   3.816  11.901  0.3915  0.3636  0.3425
 1568TIP3    H126195   5.520   3.743  11.906 -0.0510  0.8152  3.2802
 1568TIP3    H226196   5.657   3.781  11.854 -0.3122 -1.5845  0.5948
 1569TIP3   OH226197   2.127   2.948   1.971 -0.6729 -0.6067 -0.4322
 1569TIP3    H126198   2.059   3.014   1.988  2.3010  2.2793  1.2997
 1569TIP3    H226199   2.110   2.921   1.880 -1.0929  4.0145 -2.0241
 1570TIP3   OH226200   4.604   4.435  14.596  0.4501  0.3201  0.0454
 1570TIP3    H126201   4.617   4.472  14.683  1.2367  0.1295  0.0227
 1570TIP3    H226202   4.681   4.463  14.547  0.3131 -0.0899 -0.4081
 1571TIP3   OH226203   4.404   0.762  16.388 -0.4851  0.1269  0.5165
 1571TIP3    H126204   4.450   0.736  16.468 -3.4328  0.0472  2.3385
 1571TIP3    H226205   4.440   0.848  16.367  0.6179 -0.0085  1.7024
 1572TIP3   OH226206   5.393   4.583   2.976 -0.1538 -0.0773  0.1162
 1572TIP3    H126207   5.297   4.584   2.976 -0.2839 -2.5459  2.6443
 1572TIP3    H226208   5.417   4.536   2.897 -1.1142 -0.7896  0.2332
 1573TIP3   OH226209   0.304   5.281  14.758 -0.4642 -0.6943  0.0136
 1573TIP3    H126210   0.392   5.281  14.721 -0.9354 -1.2323 -1.1972
 1573TIP3    H226211   0.300   5.202  14.812 -0.4583 -1.1325 -0.6148
 1574TIP3   OH226212   1.911   1.473  13.097  0.4058  0.3870  0.6025
 1574TIP3    H126213   1.901   1.507  13.186  0.9841 -0.2759  0.9287
 1574TIP3    H226214   1.966   1.537  13.053  1.8601 -0.3228  1.3394
 1575TIP3   OH226215   1.229   5.191   5.249  0.0955  0.3132  0.0573
 1575TIP3    H126216   1.294   5.126   5.223 -0.5019 -0.8796  1.4295
 1575TIP3    H226217   1.268   5.236   5.324 -0.5919 -0.3810  0.8618
 1576TIP3   OH226218   3.787   4.755   2.541 -0.4832 -0.0805  0.5042
 1576TIP3    H126219   3.875   4.719   2.531 -0.5290 -0.1656  0.4005
 1576TIP3    H226220   3.763   4.783   2.453  0.2255  1.8002  0.8537
 1577TIP3   OH226221   1.777   6.215  10.459  0.4529  0.4109 -0.5622
 1577TIP3    H126222   1.831   6.188  10.533 -2.2004  0.3001  1.4903
 1577TIP3    H226223   1.792   6.309  10.451  0.4187  0.5063  0.4288
 1578TIP3   OH226224   0.966   1.654  16.585 -0.5106  0.4897 -0.1540
 1578TIP3    H126225   0.911   1.617  16.516  0.4009  0.2437 -0.7800
 1578TIP3    H226226   0.985   1.743  16.554 -1.3935  0.9430  0.5696
 1579TIP3   OH226227   4.865   1.388   3.013  0.3700 -0.1986 -0.4411
 1579TIP3    H126228   4.942   1.345   2.976  1.8890  0.8347  1.3737
 1579TIP3    H226229   4.864   1.360   3.105 -0.6812  0.8385 -0.1145
 1580TIP3   OH226230   2.796   4.921  14.120 -0.3039 -0.3427 -0.0540
 1580TIP3    H126231   2.885   4.905  14.149 -0.0423 -1.0881 -1.1847
 1580TIP3    H226232   2.795   5.013  14.094  0.8142 -0.8475 -2.1550
 1581TIP3   OH226233   6.387   5.693  11.111  0.0406  0.8160  0.2745
 1581TIP3    H126234   6.333   5.651  11.044 -0.2940 -1.6460  1.9715
 1581TIP3    H226235   6.460   5.731  11.062  1.1122 -2.9524 -1.4096
 1582TIP3   OH226236   4.422   0.632   4.657  0.1634  0.0826  0.2978
 1582TIP3    H126237   4.346   0.586   4.621  0.1471 -0.0293  0.4785
 1582TIP3    H226238   4.496   0.602   4.605  0.1588 -0.1749  0.4426
 1583TIP3   OH226239   3.670   4.754  14.190  0.1724  0.0265  0.2391
 1583TIP3    H126240   3.694   4.735  14.281  1.3024 -0.8150 -0.2137
 1583TIP3    H226241   3.723   4.694  14.138  0.2939  1.1947 -1.0384
 1584TIP3   OH226242   1.975   2.835  14.209  0.2867 -0.0587 -0.1093
 1584TIP3    H126243   1.987   2.740  14.198 -1.2815 -0.0922 -2.1991
 1584TIP3    H226244   1.898   2.843  14.264  0.8915  0.0520  0.7504
 1585TIP3   OH226245   6.571   1.045   4.988 -0.1653  0.0632  0.2771
 1585TIP3    H126246   6.645   1.074   4.934 -0.8058  2.1863  0.4775
 1585TIP3    H226247   6.597   1.068   5.077 -1.2606  1.2832  0.2949
 1586TIP3   OH226248   2.820   6.085  14.681 -0.3261  0.3959 -0.2227
 1586TIP3    H126249   2.813   6.042  14.596  0.0880  0.0622 -0.0940
 1586TIP3    H226250   2.796   6.017  14.744  2.5321 -0.4244  0.1509
 1587TIP3   OH226251   0.545   6.575  16.319 -0.6427  0.4043 -0.2329
 1587TIP3    H126252   0.630   6.601  16.284 -1.3144  0.8924 -1.5875
 1587TIP3    H226253   0.485   6.582  16.245 -1.6435 -1.1387  0.3590
 1588TIP3   OH226254   4.148   2.737  16.743  0.2818 -0.3430  0.2812
 1588TIP3    H126255   4.080   2.722  16.808  0.4122 -1.2038  0.2236
 1588TIP3    H226256   4.188   2.819  16.769 -1.8313  1.0790 -0.5954
 1589TIP3   OH226257   2.409   1.155  16.323 -0.4153  0.2143  0.4103
 1589TIP3    H126258   2.378   1.221  16.385  1.0808 -0.5443  2.0731
 1589TIP3    H226259   2.496   1.186  16.297  0.0415 -0.7596  0.7258
 1590TIP3   OH226260   0.579   5.525  11.637 -0.4916  0.1827  0.0906
 1590TIP3    H126261   0.601   5.594  11.574 -0.8392  0.0454 -0.1876
 1590TIP3    H226262   0.556   5.450  11.583 -0.7041  0.0347  0.3850
 1591TIP3   OH226263   3.237   5.248   2.002 -0.4554 -0.5467  0.4589
 1591TIP3    H126264   3.213   5.339   1.982  0.9724 -0.2566 -0.0460
 1591TIP3    H226265   3.278   5.216   1.922 -1.0714 -1.7043  0.5890
 1592TIP3   OH226266   5.265   3.805   3.573 -0.0513 -0.2558  0.2321
 1592TIP3    H126267   5.175   3.836   3.582 -0.7454 -1.7234 -1.1104
 1592TIP3    H226268   5.298   3.849   3.495 -0.4627 -1.5438 -0.6910
 1593TIP3   OH226269   5.190   5.866   1.056 -0.0363 -0.1346  0.8572
 1593TIP3    H126270   5.132   5.865   1.132  1.2486  1.5483  1.9530
 1593TIP3    H226271   5.265   5.919   1.084  0.3192  0.8683 -1.6992
 1594TIP3   OH226272   0.505   5.948  12.202 -0.0482  0.4530 -0.0272
 1594TIP3    H126273   0.506   5.865  12.153 -1.4872  0.3359  0.1068
 1594TIP3    H226274   0.513   6.015  12.134 -1.8571  0.2867 -0.4503
 1595TIP3   OH226275   5.199   4.741   3.861  0.0048 -0.4738 -0.0162
 1595TIP3    H126276   5.109   4.712   3.876 -0.4775  1.1718  0.5718
 1595TIP3    H226277   5.220   4.792   3.940  2.1996 -2.4551  0.7958
 1596TIP3   OH226278   1.729   2.531  11.796  0.1930  0.0246 -0.1663
 1596TIP3    H126279   1.649   2.505  11.750  0.3306  0.4958 -0.6812
 1596TIP3    H226280   1.771   2.449  11.820 -0.1352 -0.2258 -0.4446
 1597TIP3   OH226281   2.500   1.434  11.235 -0.3636  0.3139 -0.2804
 1597TIP3    H126282   2.526   1.348  11.202  1.1808  1.0912 -1.1972
 1597TIP3    H226283   2.404   1.431  11.238 -0.4455 -0.7826 -2.2139
 1598TIP3   OH226284   5.530   5.367  15.067  0.0491  0.5849 -0.1027
 1598TIP3    H126285   5.437   5.377  15.046 -0.1714 -0.9484  0.0409
 1598TIP3    H226286   5.574   5.367  14.982 -0.2813 -0.4314 -0.2814
 1599TIP3   OH226287   2.308   4.425   3.622  0.0881 -0.3378  0.0952
 1599TIP3    H126288   2.368   4.413   3.695  1.6582  1.5548 -0.7827
 1599TIP3    H226289   2.260   4.506   3.643  0.1526 -0.0864 -0.6876
 1600TIP3   OH226290   0.872   4.935  15.139 -0.4534  0.0071  0.1277
 1600TIP3    H126291   0.859   4.979  15.223 -0.9251 -1.5999  0.9340
 1600TIP3    H226292   0.784   4.925  15.103 -0.3380 -0.1535 -0.1123
 1601TIP3   OH226293   6.061   2.876  15.127  0.3955 -0.5627  0.2086
 1601TIP3    H126294   6.045   2.786  15.156  2.3443 -0.2401  2.5929
 1601TIP3    H226295   6.101   2.918  15.202 -1.0708  2.5384 -0.6056
 1602TIP3   OH226296   5.338   1.305  11.185 -0.5352 -0.3002  0.0180
 1602TIP3    H126297   5.245   1.312  11.203 -0.9377 -1.0873 -1.5512
 1602TIP3    H226298   5.381   1.343  11.262 -2.1446  0.8719  0.3874
 1603TIP3   OH226299   1.397   5.898  14.765  0.0729  0.1179 -0.0255
 1603TIP3    H126300   1.332   5.865  14.828  0.5319 -0.3309  0.2141
 1603TIP3    H226301   1.435   5.819  14.727  1.1981  0.3548  0.5655
 1604TIP3   OH226302   0.492   1.815   1.898  0.4911  0.1029  0.2708
 1604TIP3    H126303   0.573   1.772   1.873  0.2503 -0.5867  0.6328
 1604TIP3    H226304   0.458   1.762   1.970 -1.4019 -0.9606 -1.3169
 1605TIP3   OH226305   3.129   0.533  15.513 -0.4587 -0.2245 -1.2701
 1605TIP3    H126306   3.204   0.474  15.526 -0.8306 -0.2879  0.7911
 1605TIP3    H226307   3.091   0.543  15.600 -3.2766 -0.7069 -2.3527
 1606TIP3   OH226308   6.843   5.985   0.677  0.0409  0.0390  0.4575
 1606TIP3    H126309   6.923   6.022   0.640  0.2578 -0.7209  0.1431
 1606TIP3    H226310   6.808   5.930   0.608  0.9055 -2.0875  1.6073
 1607TIP3   OH226311   3.772   1.872   3.440 -0.5601 -0.2285 -0.4565
 1607TIP3    H126312   3.828   1.844   3.368 -0.7758 -0.8856 -0.3737
 1607TIP3    H226313   3.692   1.820   3.431 -1.5854  1.3749 -1.1530
 1608TIP3   OH226314   1.142   4.461  13.682 -0.4085 -0.3426 -0.1812
 1608TIP3    H126315   1.047   4.454  13.687 -0.4996 -1.0642 -2.1614
 1608TIP3    H226316   1.168   4.391  13.623  1.6137 -1.6187  2.0269
 1609TIP3   OH226317   2.432   0.933  15.818  0.5146  0.4676  0.1022
 1609TIP3    H126318   2.363   0.899  15.875  0.7849 -1.4460 -0.6279
 1609TIP3    H226319   2.386   0.971  15.743  0.2141 -1.2517 -0.6225
 1610TIP3   OH226320   5.655   4.119   0.020  0.2495 -0.4528 -0.0439
 1610TIP3    H126321   5.715   4.046   0.009  1.4213  0.2667  1.3395
 1610TIP3    H226322   5.636   4.121   0.114 -1.3909 -0.2056 -0.3404
 1611TIP3   OH226323   2.786   5.394   0.989  0.2332 -0.1416 -0.0592
 1611TIP3    H126324   2.871   5.351   1.004 -0.2104 -0.9411  0.1975
 1611TIP3    H226325   2.743   5.392   1.074 -0.9751 -1.8049 -0.6706
 1612TIP3   OH226326   0.515   1.607  13.833  0.3451 -0.3628 -0.4416
 1612TIP3    H126327   0.592   1.560  13.800 -0.5915 -2.1190 -0.2545
 1612TIP3    H226328   0.473   1.641  13.754  1.6008  1.1646 -0.5048
 1613TIP3   OH226329   1.121   1.607   4.957  0.1450  0.2886  0.4598
 1613TIP3    H126330   1.172   1.686   4.942 -1.2486  0.9902 -0.8288
 1613TIP3    H226331   1.163   1.540   4.902 -0.1732  0.8116 -0.4454
 1614TIP3   OH226332   1.195   3.806   1.363 -0.0191  0.2612  0.1731
 1614TIP3    H126333   1.286   3.793   1.337 -0.2054 -0.3911 -0.1755
 1614TIP3    H226334   1.147   3.812   1.280 -0.5089 -1.0108  0.3481
 1615TIP3   OH226335   3.393   1.459   1.814  0.7064 -0.1816 -0.3478
 1615TIP3    H126336   3.333   1.456   1.740  0.7617 -1.5694 -0.3553
 1615TIP3    H226337   3.472   1.501   1.779  1.9954 -3.6922 -2.0893
 1616TIP3   OH226338   3.254   0.061  14.752  0.0654  0.9413 -0.2526
 1616TIP3    H126339   3.344   0.041  14.777  0.2760  0.7629 -1.1275
 1616TIP3    H226340   3.208  -0.023  14.758  0.6333  0.3901 -2.5784
 1617TIP3   OH226341   4.217   2.012   0.128  0.1202 -0.6128 -0.3592
 1617TIP3    H126342   4.210   2.034   0.035  0.1299  0.4035 -0.1297
 1617TIP3    H226343   4.248   2.092   0.170  2.5568 -1.7609  0.2062
 1618TIP3   OH226344   1.709   1.423   3.708 -0.6147 -0.1043 -1.2051
 1618TIP3    H126345   1.748   1.503   3.673 -1.0293  0.1984 -0.9756
 1618TIP3    H226346   1.736   1.421   3.800 -1.6586  0.4396 -0.8738
 1619TIP3   OH226347   2.820   3.254  14.096 -0.3649 -0.1164 -0.1672
 1619TIP3    H126348   2.899   3.210  14.129  1.5127  1.7528 -1.8589
 1619TIP3    H226349   2.779   3.189  14.039  0.8618 -0.5992 -0.5353
 1620TIP3   OH226350   6.157   3.362  15.083 -0.1106  0.4610 -0.0791
 1620TIP3    H126351   6.158   3.327  15.172  0.1117  0.9271  0.1067
 1620TIP3    H226352   6.189   3.290  15.028 -0.3936  0.1220  0.1966
 1621TIP3   OH226353   6.392   6.833   2.384  0.7035  0.1028 -0.0954
 1621TIP3    H126354   6.404   6.808   2.476 -0.9550  0.0658  0.1513
 1621TIP3    H226355   6.398   6.751   2.336 -2.6681 -0.6226  0.4926
 1622TIP3   OH226356   0.563   6.270  16.139 -0.0375 -0.6760  0.0885
 1622TIP3    H126357   0.533   6.211  16.069 -0.3030  1.5366 -1.7820
 1622TIP3    H226358   0.643   6.308  16.104  0.6305 -0.5691  1.6614
 1623TIP3   OH226359   3.421   3.654   5.061  0.4329  0.0001  0.2961
 1623TIP3    H126360   3.504   3.615   5.035 -0.1531 -0.1208 -1.5504
 1623TIP3    H226361   3.445   3.739   5.098  1.4456 -0.5547  0.9787
 1624TIP3   OH226362   5.730   4.098  11.409 -0.5295 -0.5043  0.0946
 1624TIP3    H126363   5.695   4.174  11.456 -0.5126 -0.6808  0.3951
 1624TIP3    H226364   5.805   4.132  11.361 -0.2719 -0.4180  0.5557
 1625TIP3   OH226365   0.987   0.279   5.586  0.3989  0.3919 -0.1183
 1625TIP3    H126366   1.050   0.275   5.658  1.8838  1.2318 -1.3154
 1625TIP3    H226367   1.017   0.213   5.525 -0.3940  0.2207 -0.3298
 1626TIP3   OH226368   5.654   1.806  16.794  0.7752  0.0533 -0.0384
 1626TIP3    H126369   5.661   1.851  16.710  1.9708  0.7111  0.3878
 1626TIP3    H226370   5.629   1.874  16.856 -1.3049 -0.6535 -0.0195
 1627TIP3   OH226371   3.022   6.228  13.545  0.2747  0.0541 -0.2485
 1627TIP3    H126372   3.015   6.206  13.452  4.7063 -0.6683 -0.6099
 1627TIP3    H226373   3.038   6.323  13.546  1.8754 -0.1761 -0.4682
 1628TIP3   OH226374   2.391   2.765   0.640 -0.1037 -0.3928  0.2804
 1628TIP3    H126375   2.457   2.709   0.600  0.3440  0.1956  0.1727
 1628TIP3    H226376   2.322   2.706   0.667  0.1433 -0.9355 -0.2657
 1629TIP3   OH226377   5.524   6.015  16.974  0.3061  0.2881  0.5015
 1629TIP3    H126378   5.612   6.005  17.010  0.7760  1.9301 -0.1001
 1629TIP3    H226379   5.493   5.925  16.960  1.9814 -0.3102  0.4903
 1630TIP3   OH226380   4.556   4.904   0.507  0.1417  0.0335 -0.2834
 1630TIP3    H126381   4.576   4.895   0.414 -2.2794 -1.7249 -0.7274
 1630TIP3    H226382   4.603   4.832   0.549 -1.5723 -1.3768 -0.6984
 1631TIP3   OH226383   0.921   0.371   6.503  0.1156  0.3275  0.0990
 1631TIP3    H126384   0.873   0.413   6.574 -1.2627  2.2940 -1.8472
 1631TIP3    H226385   0.856   0.315   6.461  0.2602  0.8611 -0.8769
 1632TIP3   OH226386   4.977   2.452  13.350  0.0690 -0.1231 -0.1123
 1632TIP3    H126387   5.067   2.452  13.383  0.3586  0.6055 -0.8600
 1632TIP3    H226388   4.950   2.361  13.354  1.0973 -0.4699 -0.5346
 1633TIP3   OH226389   1.898   4.019  15.172 -0.5321  0.3825  0.2664
 1633TIP3    H126390   1.846   3.964  15.229 -0.0870 -0.5989 -0.2541
 1633TIP3    H226391   1.978   4.038  15.222 -0.3541 -0.0771  0.1568
 1634TIP3   OH226392   0.247   1.696  15.837 -0.0965  0.3302  0.7366
 1634TIP3    H126393   0.332   1.708  15.877 -0.3263 -2.4065  2.2572
 1634TIP3    H226394   0.192   1.661  15.906 -2.3819  1.5553 -0.3287
 1635TIP3   OH226395   1.943   0.823   1.122  0.1331 -0.2921  0.1865
 1635TIP3    H126396   1.891   0.868   1.189  0.9649  1.9015 -0.5290
 1635TIP3    H226397   1.899   0.843   1.039  0.0448 -1.5659 -0.0962
 1636TIP3   OH226398   2.293   5.412   4.337  0.8825 -0.8840  0.0729
 1636TIP3    H126399   2.202   5.392   4.358  0.6812  0.3536  0.4526
 1636TIP3    H226400   2.339   5.409   4.421  1.0263 -0.6640  0.0037
 1637TIP3   OH226401   3.140   0.670  14.342 -0.0231  0.2618 -0.4597
 1637TIP3    H126402   3.063   0.713  14.306 -0.3818  1.5585  1.6829
 1637TIP3    H226403   3.199   0.741  14.366 -0.6965 -0.2419  3.3514
 1638TIP3   OH226404   2.904   0.852  16.060 -0.6017 -0.7541 -0.3441
 1638TIP3    H126405   2.815   0.876  16.034  0.2779  0.2525 -2.7236
 1638TIP3    H226406   2.931   0.920  16.121 -0.1883  1.2660 -2.6019
 1639TIP3   OH226407   3.449   3.160  10.751  0.4860 -0.2301 -0.4263
 1639TIP3    H126408   3.422   3.239  10.798  1.6416 -1.3887  2.4510
 1639TIP3    H226409   3.516   3.190  10.690  1.1953  1.0028  0.8898
 1640TIP3   OH226410   4.512   6.412   6.060 -0.8521 -0.4510 -0.3457
 1640TIP3    H126411   4.447   6.372   6.001 -0.0001  0.3967 -1.9276
 1640TIP3    H226412   4.595   6.371   6.035 -0.4513  0.0534  0.1421
 1641TIP3   OH226413   2.670   5.955  11.580 -0.4467  0.4386 -0.1766
 1641TIP3    H126414   2.681   6.001  11.663  0.2232 -0.4100  0.2219
 1641TIP3    H226415   2.628   5.872  11.604  0.9795 -0.4175 -0.4717
 1642TIP3   OH226416   1.391   5.558  17.077 -0.7249 -0.0043 -0.2347
 1642TIP3    H126417   1.296   5.554  17.079 -0.7673 -0.5206 -2.1057
 1642TIP3    H226418   1.411   5.647  17.048 -0.7275 -0.5524 -2.0519
 1643TIP3   OH226419   6.087   6.267   1.090 -0.5789  0.1879 -0.5299
 1643TIP3    H126420   6.064   6.351   1.050 -0.7756  0.8448  0.9168
 1643TIP3    H226421   6.122   6.215   1.017 -0.3748  1.5408 -1.4406
 1644TIP3   OH226422   4.895   2.886   4.275 -0.1910  0.1890  0.1010
 1644TIP3    H126423   4.986   2.858   4.289 -0.5953 -0.9684  0.6026
 1644TIP3    H226424   4.902   2.966   4.224  1.1083  0.0148 -0.0409
 1645TIP3   OH226425   1.719   5.656  14.664 -0.4397  0.4299 -0.5926
 1645TIP3    H126426   1.753   5.675  14.577 -2.3598 -0.0419 -1.5016
 1645TIP3    H226427   1.631   5.696  14.665 -0.8209 -0.3752  0.7726
 1646TIP3   OH226428   0.447   2.987  11.562 -0.2475  0.3062  0.3279
 1646TIP3    H126429   0.432   2.984  11.468 -2.2741  0.0163  0.6121
 1646TIP3    H226430   0.416   3.074  11.588  1.8961  1.0702  0.5382
 1647TIP3   OH226431   0.120   2.079   0.776  0.1962 -0.7234 -0.3362
 1647TIP3    H126432   0.150   2.065   0.687  1.3221 -0.5037 -0.0029
 1647TIP3    H226433   0.200   2.080   0.829 -0.4093 -0.2911  0.6001
 1648TIP3   OH226434   1.374   5.965   3.677  0.4353  0.3963 -0.1481
 1648TIP3    H126435   1.392   5.970   3.771 -0.0017  0.3268 -0.0557
 1648TIP3    H226436   1.336   5.878   3.665  0.8640  0.2515 -0.4553
 1649TIP3   OH226437   1.906   1.685  12.008 -0.4509  0.1183 -1.1544
 1649TIP3    H126438   1.864   1.708  12.091 -0.6054 -2.2116 -0.5041
 1649TIP3    H226439   1.865   1.742  11.943 -1.4589  0.9053  0.1285
 1650TIP3   OH226440   1.230   5.473   0.763 -0.2189  0.2604  0.2879
 1650TIP3    H126441   1.162   5.405   0.759 -0.6332  0.7044 -0.7132
 1650TIP3    H226442   1.282   5.459   0.684  0.5063  0.2840  0.7585
 1651TIP3   OH226443   1.528   5.175  12.961 -0.0869  0.3263  0.3140
 1651TIP3    H126444   1.476   5.121  12.901  1.0963  1.1203 -1.5311
 1651TIP3    H226445   1.618   5.165  12.929  0.8170 -0.2625  2.8160
 1652TIP3   OH226446   2.918   2.528  11.708  0.1019  0.2149  0.3033
 1652TIP3    H126447   2.838   2.565  11.672 -0.0396 -0.5240 -0.1735
 1652TIP3    H226448   2.941   2.586  11.781 -0.6110  0.6905  0.1610
 1653TIP3   OH226449   5.721   6.355  15.506  0.2046  0.0963  0.5573
 1653TIP3    H126450   5.712   6.310  15.422 -1.8744 -1.0197  1.2831
 1653TIP3    H226451   5.809   6.334  15.535 -0.3136 -2.8247  0.3737
 1654TIP3   OH226452   5.540   4.220  13.950  0.0810 -0.3971 -0.7219
 1654TIP3    H126453   5.524   4.313  13.964  0.6787 -0.4481  0.5355
 1654TIP3    H226454   5.598   4.216  13.874 -0.4380  0.2147 -1.1527
 1655TIP3   OH226455   0.069   1.349  11.468  0.2153  0.2540 -0.0415
 1655TIP3    H126456   0.063   1.423  11.407  2.3248 -0.7295 -1.5991
 1655TIP3    H226457   0.087   1.389  11.553  1.0231  1.5837 -0.7990
 1656TIP3   OH226458   6.011   0.223  11.440  0.2672  0.0006  0.4920
 1656TIP3    H126459   6.095   0.228  11.393  0.5652 -0.6951  0.9355
 1656TIP3    H226460   5.969   0.144  11.406 -0.2861  0.4320  0.1600
 1657TIP3   OH226461   0.227   6.560  11.232 -0.0603  0.4613 -0.2441
 1657TIP3    H126462   0.158   6.531  11.292  0.5573 -0.4968  0.0360
 1657TIP3    H226463   0.296   6.593  11.289 -0.2208  1.2876 -0.5170
 1658TIP3   OH226464   0.107   3.997  16.187  0.2565  0.3384 -0.1486
 1658TIP3    H126465   0.046   3.979  16.259 -2.3474  2.8512 -1.5180
 1658TIP3    H226466   0.194   3.981  16.224 -1.0923 -1.7276  2.4674
 1659TIP3   OH226467   5.100   1.473   2.245 -0.0480 -0.7092  0.0353
 1659TIP3    H126468   5.170   1.538   2.236  1.0704 -1.8275  0.3241
 1659TIP3    H226469   5.088   1.464   2.340  0.9454 -2.0525  0.0669
 1660TIP3   OH226470   2.836   2.967  11.859 -0.5516 -0.1833  0.4906
 1660TIP3    H126471   2.819   2.951  11.952 -1.2989  1.2172  0.6319
 1660TIP3    H226472   2.758   2.934  11.814  0.3610 -2.0698  0.1837
 1661TIP3   OH226473   2.326   6.292  14.951 -0.0933  0.3036 -0.3755
 1661TIP3    H126474   2.234   6.316  14.943 -0.6006 -1.1682  0.6076
 1661TIP3    H226475   2.359   6.347  15.022  0.2226  1.9004 -1.6930
 1662TIP3   OH226476   1.107   1.691   2.634  0.2868  0.4525  0.3974
 1662TIP3    H126477   1.051   1.769   2.630  1.0908  1.0010 -1.0899
 1662TIP3    H226478   1.152   1.690   2.550  1.4054 -0.7990  0.9749
 1663TIP3   OH226479   1.086   0.870   5.653  0.3385 -0.4304  0.3839
 1663TIP3    H126480   1.155   0.910   5.600  0.5398 -2.4444 -0.9904
 1663TIP3    H226481   1.124   0.864   5.741  1.6917 -0.8727 -0.1946
 1664TIP3   OH226482   0.180   4.983  15.332  0.1697 -0.4930  0.0198
 1664TIP3    H126483   0.106   4.953  15.279  1.1713 -1.4969 -0.8485
 1664TIP3    H226484   0.159   4.954  15.421 -0.2004 -1.3144 -0.3221
 1665TIP3   OH226485   4.308   5.075  10.933  0.2509  0.6470 -0.0405
 1665TIP3    H126486   4.387   5.060  10.882 -0.2913 -0.1810 -0.6596
 1665TIP3    H226487   4.262   4.991  10.931 -1.2051  1.4207 -0.6785
 1666TIP3   OH226488   0.906   2.101  14.501  0.4233  0.4491 -0.3932
 1666TIP3    H126489   0.933   2.156  14.575 -1.8423  1.5718 -0.3124
 1666TIP3    H226490   0.895   2.162  14.429  1.3000 -0.4570 -1.3321
 1667TIP3   OH226491   4.095   1.100   5.631 -0.3165 -0.1383  0.0640
 1667TIP3    H126492   4.130   1.163   5.692 -0.9388 -0.8062  1.1469
 1667TIP3    H226493   4.067   1.152   5.555  0.0245  0.7520  0.5395
 1668TIP3   OH226494   0.968   4.052  14.755  0.1210 -0.2507  0.6095
 1668TIP3    H126495   0.938   3.995  14.684  1.5358  0.6387 -0.7856
 1668TIP3    H226496   0.898   4.116  14.766 -0.7390 -1.2363  1.0416
 1669TIP3   OH226497   0.078   5.930  12.025  0.2680  0.0719  0.6031
 1669TIP3    H126498   0.003   5.978  12.060 -0.9483 -0.4839 -1.1043
 1669TIP3    H226499   0.039   5.867  11.964  2.1776  0.4763 -1.1306
 1670TIP3   OH226500   1.052   4.556   2.180 -0.3461 -0.2479  0.1463
 1670TIP3    H126501   1.085   4.466   2.184  1.4182  0.3061 -0.6507
 1670TIP3    H226502   1.129   4.610   2.196 -1.5528  1.1390  1.5189
 1671TIP3   OH226503   6.447   6.194  14.342 -0.2861  0.1558 -0.0223
 1671TIP3    H126504   6.461   6.103  14.368  1.4896  0.8405  1.6507
 1671TIP3    H226505   6.528   6.220  14.297  0.4052  1.6395  1.9285
 1672TIP3   OH226506   2.004   6.581   3.499  0.1103  0.0345  0.0112
 1672TIP3    H126507   2.076   6.521   3.520  0.8659  0.7490 -0.4503
 1672TIP3    H226508   2.047   6.652   3.451 -1.0697 -0.0336 -1.1983
 1673TIP3   OH226509   2.161   0.845  13.358 -0.2971 -0.4994  0.6643
 1673TIP3    H126510   2.129   0.890  13.437  1.8428 -1.5568  2.2510
 1673TIP3    H226511   2.100   0.871  13.289 -2.4846  0.1999  2.7185
 1674TIP3   OH226512   3.526   3.800  10.623 -0.3917 -0.2185  0.1674
 1674TIP3    H126513   3.435   3.829  10.628 -0.1897  0.4798 -0.1223
 1674TIP3    H226514   3.552   3.822  10.534  0.1174 -0.2528  0.3085
 1675TIP3   OH226515   5.212   4.057   2.443  0.2471  0.7470 -0.2308
 1675TIP3    H126516   5.183   4.045   2.352  0.4075  0.0315 -0.1903
 1675TIP3    H226517   5.278   3.989   2.456  1.1616  1.6629  0.0229
 1676TIP3   OH226518   4.513   3.622  12.067 -0.3791 -0.6528 -0.4715
 1676TIP3    H126519   4.580   3.553  12.061  0.0103 -0.6911  2.7441
 1676TIP3    H226520   4.560   3.698  12.100 -1.3596  0.3082 -1.2372
 1677TIP3   OH226521   0.912   1.744   4.119  0.7491 -0.0760 -0.4027
 1677TIP3    H126522   0.948   1.773   4.036  1.4663  0.6216  0.1368
 1677TIP3    H226523   0.987   1.710   4.168  0.4043 -0.1180  0.1088
 1678TIP3   OH226524   3.141   1.958   5.362  0.0848 -0.5046 -1.3358
 1678TIP3    H126525   3.169   2.042   5.327  2.7861 -1.1437 -0.9040
 1678TIP3    H226526   3.207   1.936   5.428 -1.7564 -1.9529  0.1438
 1679TIP3   OH226527   5.132   0.613  11.174 -0.5901  0.9892 -0.0159
 1679TIP3    H126528   5.203   0.599  11.237 -0.0157  1.4179 -0.5542
 1679TIP3    H226529   5.079   0.683  11.213 -0.4413  1.0005  0.1664
 1680TIP3   OH226530   0.065   0.350  14.634 -0.1454  0.1297 -0.0919
 1680TIP3    H126531   0.038   0.420  14.694  0.1221  0.5275 -0.4310
 1680TIP3    H226532   0.141   0.310  14.676  0.0865  0.4562 -0.1938
 1681TIP3   OH226533   3.403   2.377   2.651  0.0349  0.1049 -0.5516
 1681TIP3    H126534   3.392   2.298   2.598  1.0259 -0.5494  0.1835
 1681TIP3    H226535   3.487   2.414   2.623  1.0855 -0.8123  1.2135
 1682TIP3   OH226536   3.101   1.098  10.596 -0.0443 -0.3156  0.1368
 1682TIP3    H126537   3.188   1.111  10.558  0.1599  1.2190  1.0446
 1682TIP3    H226538   3.117   1.045  10.673  0.6238  2.4637  2.0706
 1683TIP3   OH226539   2.266   2.713   5.744  0.2893  0.1262 -0.0224
 1683TIP3    H126540   2.186   2.765   5.747  1.5700  2.1251  0.9639
 1683TIP3    H226541   2.313   2.736   5.824  1.1930 -2.1627  0.1766
 1684TIP3   OH226542   1.825   3.863   2.832  0.0865 -0.0674 -0.5150
 1684TIP3    H126543   1.753   3.874   2.769 -1.2113 -0.1100  0.8891
 1684TIP3    H226544   1.831   3.769   2.846 -0.6838  0.0097  0.5233
 1685TIP3   OH226545   0.942   4.431   5.260  0.0227 -0.2332 -0.5009
 1685TIP3    H126546   0.953   4.522   5.289 -3.7390  0.5003 -0.9143
 1685TIP3    H226547   0.939   4.381   5.341  0.5214  0.2019 -0.2002
 1686TIP3   OH226548   1.315   5.087   1.692  0.0098  0.2255 -0.6560
 1686TIP3    H126549   1.249   5.067   1.759  1.5690  2.1747  1.6411
 1686TIP3    H226550   1.367   5.007   1.685  0.4399  0.2833  1.2987
 1687TIP3   OH226551   4.396   2.121   2.482  0.8966 -0.3449 -0.1157
 1687TIP3    H126552   4.323   2.060   2.491  0.2298  0.4460 -0.1107
 1687TIP3    H226553   4.367   2.201   2.527  2.3422 -0.5038  1.2106
 1688TIP3   OH226554   6.102   3.224  16.925 -0.4833  0.0962 -0.0170
 1688TIP3    H126555   6.152   3.253  16.848  1.6667  0.0538  1.2705
 1688TIP3    H226556   6.049   3.299  16.950  1.0939  1.1892  0.1959
 1689TIP3   OH226557   2.004   4.833   2.834  0.2830  0.6177  0.2415
 1689TIP3    H126558   1.970   4.778   2.905 -1.8661  1.9286  0.2828
 1689TIP3    H226559   1.993   4.922   2.865 -0.5884  1.2155 -1.6665
 1690TIP3   OH226560   1.181   3.887  13.766  0.6145  0.2848 -0.2077
 1690TIP3    H126561   1.129   3.823  13.816  1.7847 -0.8444 -0.3707
 1690TIP3    H226562   1.117   3.932  13.711 -0.3853 -0.0392  0.6423
 1691TIP3   OH226563   1.272   2.296  12.922  0.4195  0.2431 -0.2669
 1691TIP3    H126564   1.258   2.228  12.988  1.9514  1.4411  1.4182
 1691TIP3    H226565   1.186   2.334  12.908 -0.2534 -1.2636 -0.3567
 1692TIP3   OH226566   3.283   1.202  10.421 -0.6952  0.2853 -0.2860
 1692TIP3    H126567   3.242   1.275  10.374  0.3967  1.9860  1.2637
 1692TIP3    H226568   3.310   1.142  10.352  1.8207  3.1571 -2.0794
 1693TIP3   OH226569   0.500   4.665  10.216  0.3825 -0.0749  0.2730
 1693TIP3    H126570   0.553   4.607  10.272  0.0397  0.3299  1.0376
 1693TIP3    H226571   0.412   4.628  10.222  0.3113  0.0745  0.1302
 1694TIP3   OH226572   0.165   6.778   0.992  0.3922 -0.0798  0.3564
 1694TIP3    H126573   0.142   6.776   0.899  1.6074 -0.5544  0.0487
 1694TIP3    H226574   0.080   6.775   1.037 -0.5925  4.5157 -0.6751
 1695TIP3   OH226575   6.413   1.546   5.294 -0.1610 -0.3096 -0.6516
 1695TIP3    H126576   6.386   1.563   5.384  0.0597  2.0764 -0.9872
 1695TIP3    H226577   6.442   1.454   5.295  0.8347 -0.0464  1.9453
 1696TIP3   OH226578   1.704   5.725   5.112 -0.0494 -0.9371  0.7508
 1696TIP3    H126579   1.728   5.788   5.180  2.4864 -0.9334 -0.0664
 1696TIP3    H226580   1.766   5.653   5.123 -0.5999 -1.6446 -0.5836
 1697TIP3   OH226581   5.276   5.582  15.299 -0.2484 -0.0177 -0.1894
 1697TIP3    H126582   5.342   5.639  15.339 -0.8990  0.6038  0.0332
 1697TIP3    H226583   5.238   5.636  15.229 -0.9551 -0.1312  0.1018
 1698TIP3   OH226584   4.583   2.969   4.757  0.1933 -0.7539  0.1309
 1698TIP3    H126585   4.633   3.022   4.694  0.6272 -0.4195  0.7432
 1698TIP3    H226586   4.520   2.921   4.703  0.3118 -0.1995 -0.5190
 1699TIP3   OH226587   3.467   2.541  14.126  0.3983 -0.1151  0.7734
 1699TIP3    H126588   3.453   2.447  14.134 -0.5999 -0.0662 -0.1134
 1699TIP3    H226589   3.483   2.572  14.215 -0.9736 -0.8738  1.2954
 1700TIP3   OH226590   3.626   1.972   5.625  0.2929  0.2126 -0.4015
 1700TIP3    H126591   3.607   1.952   5.717 -0.1621  0.3853 -0.4590
 1700TIP3    H226592   3.703   2.028   5.629  0.2803  0.2135 -0.1273
 1701TIP3   OH226593   6.679   0.854   4.309  0.2794 -0.3132 -0.9044
 1701TIP3    H126594   6.600   0.833   4.259 -1.0780  1.2733  0.4467
 1701TIP3    H226595   6.647   0.890   4.392  2.4179 -2.7682  1.1579
 1702TIP3   OH226596   3.913   5.591   0.263  0.0468  0.3034 -0.2601
 1702TIP3    H126597   3.867   5.609   0.181  2.0347 -0.4245 -1.6154
 1702TIP3    H226598   3.911   5.496   0.272  0.9097  0.2858 -0.1412
 1703TIP3   OH226599   3.901   6.182   5.022 -0.3932  0.0878  0.1928
 1703TIP3    H126600   3.969   6.151   4.961 -1.4545  2.5691 -2.4472
 1703TIP3    H226601   3.941   6.257   5.067 -0.2936 -0.5324  1.1775
 1704TIP3   OH226602   6.246   3.159  11.515  0.4125  0.3824 -0.5705
 1704TIP3    H126603   6.266   3.076  11.560 -0.8048  0.7587  0.7133
 1704TIP3    H226604   6.214   3.132  11.429  0.9829 -0.4293 -0.5472
 1705TIP3   OH226605   4.845   4.748  14.436 -0.5240 -0.4695 -0.1136
 1705TIP3    H126606   4.840   4.655  14.459 -2.0204 -0.4318 -0.1736
 1705TIP3    H226607   4.935   4.761  14.406  0.1742 -1.5366  1.4015
 1706TIP3   OH226608   4.773   3.096   3.714 -0.6056 -0.2131  0.4273
 1706TIP3    H126609   4.807   3.172   3.760  1.4970 -1.9242  1.9255
 1706TIP3    H226610   4.747   3.035   3.783 -1.2906 -1.2603 -0.7002
 1707TIP3   OH226611   1.651   2.664   0.616 -0.4926  0.4046 -0.0832
 1707TIP3    H126612   1.676   2.729   0.682  0.1798  0.0340  0.0388
 1707TIP3    H226613   1.617   2.716   0.543 -0.3880  0.8714  0.1944
 1708TIP3   OH226614   1.214   0.904  16.187  0.0820  0.4875 -0.3964
 1708TIP3    H126615   1.261   0.982  16.159 -1.2742  1.2167 -0.7158
 1708TIP3    H226616   1.181   0.866  16.106 -0.8582  0.6433 -0.0960
 1709TIP3   OH226617   1.741   3.892  12.007 -0.0210 -0.2860  0.1645
 1709TIP3    H126618   1.655   3.850  12.004 -0.7537  0.8857  2.4587
 1709TIP3    H226619   1.780   3.873  11.922 -2.5572 -0.8107 -0.9756
 1710TIP3   OH226620   0.135   0.605   1.724  0.5246 -0.4545 -0.5530
 1710TIP3    H126621   0.060   0.587   1.668  0.2127 -0.1583 -0.2362
 1710TIP3    H226622   0.160   0.695   1.703  1.1271 -0.7370 -1.0441
 1711TIP3   OH226623   3.203   5.073   0.861  0.7882  0.0238 -0.2840
 1711TIP3    H126624   3.185   5.023   0.941  3.0281 -1.2149 -0.4911
 1711TIP3    H226625   3.121   5.068   0.811  0.5745 -2.5109  0.2059
 1712TIP3   OH226626   1.643   4.918  13.382 -0.6621  0.0071  0.2210
 1712TIP3    H126627   1.616   4.826  13.380 -2.8896  0.6029 -0.4806
 1712TIP3    H226628   1.565   4.965  13.412  1.1324  1.4986  3.0836
 1713TIP3   OH226629   3.605   0.226  10.856 -0.1605  0.0801 -0.2304
 1713TIP3    H126630   3.543   0.265  10.918 -1.2189 -0.6839 -0.7696
 1713TIP3    H226631   3.620   0.138  10.891 -0.2898 -0.1391 -0.7253
 1714TIP3   OH226632   6.324   1.680  15.922  0.0807 -0.3024 -0.4631
 1714TIP3    H126633   6.266   1.668  15.847 -0.7112 -1.2089  0.2624
 1714TIP3    H226634   6.316   1.773  15.944  0.1793 -0.0705 -1.3725
 1715TIP3   OH226635   6.690   0.427   2.336  0.4388 -0.8263 -0.0621
 1715TIP3    H126636   6.650   0.360   2.392  0.9342  0.9281  2.6059
 1715TIP3    H226637   6.702   0.502   2.394  3.3411  0.3273 -1.9047
 1716TIP3   OH226638   5.534   1.346   5.427  0.0976 -0.4026 -0.1122
 1716TIP3    H126639   5.543   1.439   5.405  0.5094 -0.9709 -2.6131
 1716TIP3    H226640   5.612   1.325   5.478 -0.9532  1.0156  2.2565
 1717TIP3   OH226641   5.098   2.613   0.371  0.1754  0.0998  0.1577
 1717TIP3    H126642   5.156   2.684   0.347  0.1093 -0.5715 -2.1872
 1717TIP3    H226643   5.147   2.563   0.437  1.8957  0.0627 -1.0987
 1718TIP3   OH226644   4.749   3.144   2.263  0.7397  0.7451  0.0541
 1718TIP3    H126645   4.736   3.126   2.169  1.2909  0.2266  0.0628
 1718TIP3    H226646   4.701   3.224   2.279  1.7070  1.5750 -0.9800
 1719TIP3   OH226647   3.576   6.308  12.614 -0.1547 -0.7938 -0.2358
 1719TIP3    H126648   3.631   6.267  12.547  1.1033  0.5550 -0.0799
 1719TIP3    H226649   3.618   6.393  12.631 -1.7500 -0.1296  0.6057
 1720TIP3   OH226650   2.575   5.061   1.702 -0.1918 -0.6080  0.0271
 1720TIP3    H126651   2.598   4.995   1.767  0.8920 -3.5452 -3.0362
 1720TIP3    H226652   2.479   5.059   1.699 -0.2036 -1.5172  0.5502
 1721TIP3   OH226653   3.846   2.699  14.538 -0.3739  0.1424  0.0700
 1721TIP3    H126654   3.848   2.615  14.491 -0.5152  0.3298 -0.2753
 1721TIP3    H226655   3.806   2.760  14.476  1.4242  0.9039 -0.4033
 1722TIP3   OH226656   6.282   5.110   3.744 -0.2720  0.5676  0.0717
 1722TIP3    H126657   6.259   5.161   3.666 -0.2519  0.1783 -0.1947
 1722TIP3    H226658   6.358   5.059   3.718 -0.1364  0.5918  0.4158
 1723TIP3   OH226659   5.740   4.846   5.573  0.4869 -0.1875  0.1647
 1723TIP3    H126660   5.654   4.823   5.609  0.7443 -0.0813  0.8605
 1723TIP3    H226661   5.800   4.781   5.610  0.7839  0.0192  0.0501
 1724TIP3   OH226662   1.050   1.669   2.082 -0.1929 -0.1043  0.1361
 1724TIP3    H126663   1.042   1.578   2.053 -1.8217  0.6712 -2.2673
 1724TIP3    H226664   1.026   1.720   2.004  0.5655  2.3784  1.4365
 1725TIP3   OH226665   1.566   2.330   3.014  0.4713  0.2083  0.3516
 1725TIP3    H126666   1.549   2.424   3.014  0.8981  0.2889  1.1947
 1725TIP3    H226667   1.530   2.300   2.930 -2.3893  0.5954  1.3469
 1726TIP3   OH226668   3.157   0.123  17.002 -0.1664  0.0425 -0.0835
 1726TIP3    H126669   3.075   0.075  16.998  0.9401 -1.9544 -0.0853
 1726TIP3    H226670   3.194   0.102  17.088  1.5384 -1.2770 -1.0708
 1727TIP3   OH226671   0.929   0.604   1.760  0.2274 -0.7736 -0.2899
 1727TIP3    H126672   0.907   0.535   1.822  0.8191 -3.3517 -2.7559
 1727TIP3    H226673   0.849   0.617   1.709  0.0740  0.5277  0.2455
 1728TIP3   OH226674   1.117   3.876   1.120  0.1369 -0.7789  0.4462
 1728TIP3    H126675   1.178   3.891   1.048 -1.7921  0.7647 -0.9970
 1728TIP3    H226676   1.070   3.959   1.129 -0.9325 -1.5241  2.2791
 1729TIP3   OH226677   5.022   3.150  10.840 -0.6873  0.0982 -0.1796
 1729TIP3    H126678   4.991   3.196  10.918  1.1591 -1.2802  1.4620
 1729TIP3    H226679   5.039   3.061  10.870 -2.2256 -1.2003 -2.7741
 1730TIP3   OH226680   0.672   0.627   0.865 -0.1971  0.0274 -0.2929
 1730TIP3    H126681   0.764   0.645   0.848  0.8398 -1.7757  2.7099
 1730TIP3    H226682   0.631   0.714   0.870  2.2761  1.1968  2.5469
 1731TIP3   OH226683   4.933   2.694  12.274  0.6115  0.0142 -0.0130
 1731TIP3    H126684   4.873   2.638  12.323  1.0430  0.1664  0.6940
 1731TIP3    H226685   5.007   2.638  12.253  0.7784  0.1564  0.1893
 1732TIP3   OH226686   3.439   1.307  13.367 -0.2241 -0.2040  0.1627
 1732TIP3    H126687   3.455   1.376  13.432 -1.8868 -1.1746  1.7166
 1732TIP3    H226688   3.501   1.238  13.390 -2.5267 -1.6759  2.6296
 1733TIP3   OH226689   6.559   0.286   2.521  0.2587 -0.6725  0.3066
 1733TIP3    H126690   6.590   0.198   2.501  0.3328 -0.5505 -0.1367
 1733TIP3    H226691   6.499   0.274   2.594  0.2453 -1.0963  0.2308
 1734TIP3   OH226692   3.497   0.385  13.335  0.4030 -0.2935 -0.1534
 1734TIP3    H126693   3.443   0.408  13.259 -2.2257 -0.6682  1.4838
 1734TIP3    H226694   3.437   0.342  13.395  2.1371  0.8865  2.6092
 1735TIP3   OH226695   3.392   0.485  11.834 -0.2356  0.4584 -0.0455
 1735TIP3    H126696   3.442   0.498  11.754  1.8054  0.6970  1.1839
 1735TIP3    H226697   3.375   0.574  11.866 -1.0383  0.3643 -0.2006
 1736TIP3   OH226698   5.705   3.448   5.191 -0.6715  0.5694 -0.4527
 1736TIP3    H126699   5.632   3.406   5.146  1.1524 -2.6711 -0.6707
 1736TIP3    H226700   5.745   3.505   5.124 -2.1092  1.3094 -0.7221
 1737TIP3   OH226701   3.803   4.738   5.219  0.5301  0.6546  0.1284
 1737TIP3    H126702   3.897   4.724   5.206  0.6962 -2.3415  3.0776
 1737TIP3    H226703   3.764   4.651   5.212 -1.7520  1.5198  0.8624
 1738TIP3   OH226704   0.030   4.090  16.902 -0.4033 -0.5042  0.1970
 1738TIP3    H126705   0.022   4.105  16.808  1.0439  1.3585  0.3081
 1738TIP3    H226706  -0.023   4.158  16.942  0.3156 -0.2448  0.7271
 1739TIP3   OH226707   6.395   2.269  13.712 -0.2251 -0.0443  0.1602
 1739TIP3    H126708   6.479   2.282  13.667  0.3106  0.1121  1.1670
 1739TIP3    H226709   6.397   2.331  13.785 -1.5515  0.4778 -0.2272
 1740TIP3   OH226710   4.215   0.898   2.422  0.4196 -0.6212  0.3166
 1740TIP3    H126711   4.143   0.843   2.452  0.8989 -1.6509 -0.3709
 1740TIP3    H226712   4.293   0.862   2.464  0.5820  0.3390  0.8724
 1741TIP3   OH226713   5.276   3.713   2.725  0.1505 -0.5152 -0.5760
 1741TIP3    H126714   5.365   3.716   2.761  0.3398  1.0650 -1.1327
 1741TIP3    H226715   5.230   3.785   2.768 -1.1418 -1.8332  0.3458
 1742TIP3   OH226716   0.639   0.876   1.638  0.2735  0.1870  0.2757
 1742TIP3    H126717   0.649   0.938   1.565 -1.0351  1.9466  1.5098
 1742TIP3    H226718   0.707   0.902   1.700  0.2243 -0.1351  0.4653
 1743TIP3   OH226719   0.370   5.785  13.466 -0.0261 -0.4536 -0.4510
 1743TIP3    H126720   0.385   5.878  13.481 -1.0155 -0.2836 -0.4928
 1743TIP3    H226721   0.317   5.756  13.540  2.7314 -1.6936  1.2144
 1744TIP3   OH226722   5.414   3.381  16.826 -0.4083  0.2826  0.2010
 1744TIP3    H126723   5.336   3.393  16.880 -2.2389 -1.0902 -1.9802
 1744TIP3    H226724   5.386   3.324  16.755  3.1075 -1.9255  0.3449
 1745TIP3   OH226725   5.497   1.330  11.445 -0.0498  0.1255 -0.0109
 1745TIP3    H126726   5.562   1.303  11.509 -0.1185  0.0408  0.0234
 1745TIP3    H226727   5.526   1.417  11.416 -0.6848  0.7165  1.0392
 1746TIP3   OH226728   4.378   6.158  12.927 -0.4054  0.7977  0.5468
 1746TIP3    H126729   4.456   6.202  12.961 -0.1227 -0.1765  1.1995
 1746TIP3    H226730   4.371   6.078  12.979 -1.5233  0.5979  0.1133
 1747TIP3   OH226731   5.636   2.991  16.345 -0.1380  0.2499 -0.5622
 1747TIP3    H126732   5.705   3.011  16.409  0.4212 -0.8475 -0.8129
 1747TIP3    H226733   5.598   3.077  16.324  2.0070  1.0601 -1.3997
 1748TIP3   OH226734   1.973   3.451  13.850  0.3232 -0.0236 -0.3300
 1748TIP3    H126735   1.900   3.404  13.891 -0.1268 -0.1714 -1.2736
 1748TIP3    H226736   1.980   3.411  13.763  1.2569  0.2830 -0.3970
 1749TIP3   OH226737   2.149   6.776   0.154 -0.1277  0.2554 -0.7242
 1749TIP3    H126738   2.208   6.706   0.182  0.7851  0.2386 -2.5263
 1749TIP3    H226739   2.205   6.853   0.147 -0.9583  1.0031  0.4223
 1750TIP3   OH226740   1.141   1.082   4.183  0.8039  0.5415 -0.5771
 1750TIP3    H126741   1.108   1.083   4.093 -1.0348  1.3485  0.0705
 1750TIP3    H226742   1.211   1.016   4.182  0.2543 -0.0661 -2.3995
 1751TIP3   OH226743   6.553   5.169   5.864 -0.6588 -0.0836  0.4101
 1751TIP3    H126744   6.506   5.118   5.798 -2.3693  0.6173  1.0161
 1751TIP3    H226745   6.516   5.138   5.947  1.0674 -0.5716  1.0289
 1752TIP3   OH226746   0.080   2.040  15.070 -0.0055 -0.0689  0.1969
 1752TIP3    H126747   0.054   2.029  15.161  1.5931 -0.8615  0.5997
 1752TIP3    H226748   0.085   1.951  15.036  2.0497 -0.0008  0.1653
 1753TIP3   OH226749   1.574   0.425  13.813 -0.2916  0.1488 -0.0897
 1753TIP3    H126750   1.537   0.342  13.783 -0.0734 -1.2882  3.1677
 1753TIP3    H226751   1.669   0.409  13.816 -0.0192  1.3128 -1.4627
 1754TIP3   OH226752   1.371   4.547   0.812 -0.0074  0.2885  0.2586
 1754TIP3    H126753   1.446   4.555   0.870 -0.7763 -0.1283  1.3405
 1754TIP3    H226754   1.345   4.637   0.793  1.9129  0.5229 -1.7284
 1755TIP3   OH226755   3.750   6.598  12.087  0.1564 -0.1852  0.4292
 1755TIP3    H126756   3.658   6.598  12.114  0.0742  0.2322  0.1684
 1755TIP3    H226757   3.783   6.684  12.112 -0.1947  0.6115 -1.6304
 1756TIP3   OH226758   2.108   1.924   4.287 -0.0990 -0.3747 -0.1474
 1756TIP3    H126759   2.110   1.943   4.193  0.9504 -0.0274 -0.0617
 1756TIP3    H226760   2.055   1.994   4.324 -1.4840 -1.1307 -0.5956
 1757TIP3   OH226761   4.687   4.361   0.358 -0.2559  0.2864 -0.3541
 1757TIP3    H126762   4.721   4.443   0.323 -1.1615  0.1758 -1.5705
 1757TIP3    H226763   4.657   4.383   0.446 -0.2086  1.1821 -0.5509
 1758TIP3   OH226764   2.766   0.668   1.998  0.0858  0.2135 -0.2692
 1758TIP3    H126765   2.825   0.615   1.945  0.1902 -1.1473  1.1310
 1758TIP3    H226766   2.706   0.707   1.935  1.6914  0.6320 -1.6028
 1759TIP3   OH226767   3.191   5.631   2.846 -0.0625 -0.4190 -0.5357
 1759TIP3    H126768   3.218   5.589   2.765 -0.6310 -1.4440 -0.2088
 1759TIP3    H226769   3.100   5.605   2.858 -0.0566 -0.0884  0.3108
 1760TIP3   OH226770   3.537   5.800  11.527 -0.3698 -0.0086 -0.4685
 1760TIP3    H126771   3.454   5.752  11.524 -1.6533  1.9942  0.4464
 1760TIP3    H226772   3.586   5.760  11.599 -1.1804 -0.2790 -0.0571
 1761TIP3   OH226773   5.025   3.291   0.385  0.3362  0.5406 -0.1180
 1761TIP3    H126774   4.986   3.258   0.466 -0.8010 -0.2935 -0.9826
 1761TIP3    H226775   4.974   3.370   0.364  1.9116  1.9391  0.9960
 1762TIP3   OH226776   3.169   1.243  13.337  0.3267 -0.3499 -0.1551
 1762TIP3    H126777   3.128   1.276  13.258 -0.7181 -0.2493  0.4094
 1762TIP3    H226778   3.262   1.258  13.324 -0.0191  2.3262 -0.1846
 1763TIP3   OH226779   5.693   3.059   5.140  0.2136  0.6059 -0.8615
 1763TIP3    H126780   5.728   3.009   5.213  2.1778 -1.0275 -2.7969
 1763TIP3    H226781   5.769   3.096   5.097 -1.0086  2.8770 -1.2291
 1764TIP3   OH226782   6.727   2.106  15.382 -0.0927  0.2810 -0.1313
 1764TIP3    H126783   6.816   2.069  15.380  0.3838  1.4399 -1.3866
 1764TIP3    H226784   6.677   2.052  15.321 -0.2605 -0.3324  0.5288
 1765TIP3   OH226785   5.265   5.208   0.115 -0.2592 -0.2995 -0.5799
 1765TIP3    H126786   5.343   5.182   0.164 -0.0732 -0.4593 -0.9644
 1765TIP3    H226787   5.238   5.291   0.156  0.9121  0.4794 -1.3226
 1766TIP3   OH226788   5.465   2.623   4.112 -0.4744  0.4037  0.6110
 1766TIP3    H126789   5.443   2.665   4.196  0.5002  1.3372  0.4345
 1766TIP3    H226790   5.546   2.575   4.131  0.6159  1.8757 -0.1311
 1767TIP3   OH226791   1.635   2.085  11.724  0.3526 -0.2632  0.2086
 1767TIP3    H126792   1.682   2.037  11.656 -0.4395  1.0748 -1.3995
 1767TIP3    H226793   1.552   2.108  11.682 -0.7994 -0.6558  2.1846
 1768TIP3   OH226794   1.683   5.902   5.324 -0.1364 -0.3485 -0.2232
 1768TIP3    H126795   1.744   5.875   5.393  0.9665  1.2921 -0.4972
 1768TIP3    H226796   1.635   5.976   5.362  2.0376  2.0620 -1.8442
 1769TIP3   OH226797   5.063   1.594  11.636  0.1100  0.0104 -0.1526
 1769TIP3    H126798   5.063   1.532  11.563 -0.0766 -0.6910  0.4274
 1769TIP3    H226799   5.142   1.647  11.623 -0.3452  0.4500 -1.3069
 1770TIP3   OH226800   3.378   0.761  13.294  0.0449 -0.1607  0.0762
 1770TIP3    H126801   3.351   0.839  13.246  0.0898  0.4059  0.9709
 1770TIP3    H226802   3.445   0.791  13.355  2.8859 -1.5102 -2.1093
 1771TIP3   OH226803   1.600   0.911  16.017 -0.7183 -0.0846 -0.5309
 1771TIP3    H126804   1.576   0.822  15.992 -1.3143 -0.3639  0.9060
 1771TIP3    H226805   1.654   0.944  15.945  0.0464 -1.8292 -0.7823
 1772TIP3   OH226806   5.790   0.545  10.831 -0.1465  0.6918  0.0909
 1772TIP3    H126807   5.790   0.626  10.883 -0.2773 -0.2316  1.6016
 1772TIP3    H226808   5.877   0.544  10.789  0.9816  0.2885  2.2869
 1773TIP3   OH226809   3.198   1.695  15.418  0.1474  0.0850  0.2857
 1773TIP3    H126810   3.165   1.770  15.368  2.0474  0.0076 -1.2224
 1773TIP3    H226811   3.139   1.688  15.493 -0.7727  2.3651 -0.1354
 1774TIP3   OH226812   6.596   5.843  15.515  0.4045 -0.5733 -0.2424
 1774TIP3    H126813   6.585   5.818  15.607 -0.9808  1.1843  0.1343
 1774TIP3    H226814   6.672   5.901  15.514 -0.5432  0.7133  0.1141
 1775TIP3   OH226815   1.115   1.603   4.412  0.6496  0.1817 -0.5579
 1775TIP3    H126816   1.041   1.647   4.455 -0.1807 -0.6201 -1.1479
 1775TIP3    H226817   1.192   1.652   4.442  0.0941 -0.2159  1.6976
 1776TIP3   OH226818   0.455   5.813  12.439  0.1871 -0.2843 -0.1728
 1776TIP3    H126819   0.537   5.827  12.485  0.3761 -0.1769 -0.5334
 1776TIP3    H226820   0.467   5.858  12.355 -0.3878  0.0759 -0.0666
 1777TIP3   OH226821   2.339   4.125  12.451 -0.0950  0.2510 -0.2790
 1777TIP3    H126822   2.396   4.062  12.406 -0.9278  1.3085 -3.0155
 1777TIP3    H226823   2.254   4.082  12.455 -0.9477  1.4234 -3.1191
 1778TIP3   OH226824   4.293   5.993   0.277  0.5045 -0.1081  0.2407
 1778TIP3    H126825   4.377   6.009   0.235  0.4155 -1.9237 -0.7521
 1778TIP3    H226826   4.228   6.025   0.215  0.4457  0.2804  0.5044
 1779TIP3   OH226827   1.857   2.423  16.902  0.4276  0.2144 -0.1010
 1779TIP3    H126828   1.861   2.328  16.893 -0.8807  0.1859 -0.5516
 1779TIP3    H226829   1.946   2.453  16.880  0.7654 -0.8796 -0.2538
 1780TIP3   OH226830   3.976   4.418  12.322 -0.0560 -0.6023  0.3693
 1780TIP3    H126831   3.981   4.349  12.388 -1.1185 -1.0325  0.0161
 1780TIP3    H226832   4.061   4.463  12.328 -0.5880  0.1969  2.9242
 1781TIP3   OH226833   2.532   0.851  13.417  0.4752 -0.3882 -0.5421
 1781TIP3    H126834   2.602   0.902  13.376  0.3639  0.0229 -0.2352
 1781TIP3    H226835   2.526   0.887  13.506  1.5014 -2.0418  0.2325
 1782TIP3   OH226836   1.136   4.525   6.158 -0.6521 -0.4449 -0.2701
 1782TIP3    H126837   1.148   4.578   6.079 -0.4092  0.0893  0.1166
 1782TIP3    H226838   1.042   4.530   6.176 -1.1353 -2.4409 -1.7923
 1783TIP3   OH226839   1.380   0.319   0.422 -0.0978  0.2402 -0.0402
 1783TIP3    H126840   1.406   0.393   0.478 -1.8416  1.4332 -0.7397
 1783TIP3    H226841   1.390   0.352   0.333  0.1308 -0.7531 -0.3934
 1784TIP3   OH226842   3.564   6.255  16.119 -0.5053  0.6126 -0.0385
 1784TIP3    H126843   3.539   6.343  16.147  1.8231  0.8266  1.7004
 1784TIP3    H226844   3.524   6.197  16.184 -0.3530  0.5525  0.0016
 1785TIP3   OH226845   5.571   3.375   1.262 -0.1070  0.3753 -0.2031
 1785TIP3    H126846   5.570   3.359   1.356 -0.0512 -0.7419 -0.3858
 1785TIP3    H226847   5.579   3.471   1.254  2.9660  0.3119  0.9271
 1786TIP3   OH226848   3.832   2.039   0.816 -0.2636 -0.0315  0.5944
 1786TIP3    H126849   3.759   1.981   0.840 -0.9395  1.0205  1.1761
 1786TIP3    H226850   3.845   2.094   0.894 -0.6577  1.6246 -0.4778
 1787TIP3   OH226851   4.129   5.820  13.769  0.0485  0.2380  0.2170
 1787TIP3    H126852   4.042   5.801  13.803  0.8210 -1.2943  1.4212
 1787TIP3    H226853   4.113   5.884  13.699 -2.3272 -1.9230 -1.4266
 1788TIP3   OH226854   4.871   4.691   3.209  0.1954 -0.2514 -0.1654
 1788TIP3    H126855   4.859   4.598   3.190 -1.5296 -0.8011  2.9707
 1788TIP3    H226856   4.961   4.698   3.239  0.2059 -0.9965 -0.0159
 1789TIP3   OH226857   6.808   1.789   1.899  0.4624 -0.0723 -0.8739
 1789TIP3    H126858   6.730   1.843   1.914  1.3595  1.3490 -1.1435
 1789TIP3    H226859   6.868   1.846   1.852  1.1869 -1.5577 -1.8351
 1790TIP3   OH226860   1.503   1.451   3.522 -0.2860  0.3677 -0.1571
 1790TIP3    H126861   1.567   1.422   3.586 -0.2126 -1.8888 -1.1541
 1790TIP3    H226862   1.464   1.529   3.560 -0.5873 -1.1179  2.8585
 1791TIP3   OH226863   2.118   4.465   2.621  0.3517  0.1333 -0.0224
 1791TIP3    H126864   2.106   4.419   2.704 -0.4796  0.9121  0.3006
 1791TIP3    H226865   2.189   4.527   2.637  1.2278 -0.7493 -0.3543
 1792TIP3   OH226866   5.180   6.217   5.740  0.4263 -0.4292 -0.0247
 1792TIP3    H126867   5.147   6.141   5.692 -1.9359  0.8413 -0.6066
 1792TIP3    H226868   5.238   6.262   5.679  0.3775 -0.8038 -0.3471
 1793TIP3   OH226869   6.641   1.449  13.891  0.6018  0.5690  0.6891
 1793TIP3    H126870   6.594   1.426  13.811  1.0056 -0.5602  0.7514
 1793TIP3    H226871   6.584   1.511  13.937  0.6451  1.7327 -0.7604
 1794TIP3   OH226872   1.204   5.634   3.161  0.2579  0.5651 -0.0682
 1794TIP3    H126873   1.261   5.558   3.170 -1.9688 -1.1240  0.5335
 1794TIP3    H226874   1.137   5.607   3.098 -0.7734  1.9209  0.3906
 1795TIP3   OH226875   1.720   2.837   5.079  0.0189 -0.4278  1.6322
 1795TIP3    H126876   1.696   2.890   5.003  2.1466 -1.4667  0.1096
 1795TIP3    H226877   1.683   2.750   5.060  1.0013 -0.8318  1.4514
 1796TIP3   OH226878   2.906   1.868  11.958  0.5452 -0.5245  1.0920
 1796TIP3    H126879   2.828   1.917  11.932  0.6427 -0.4243  0.9866
 1796TIP3    H226880   2.925   1.812  11.882  0.6280 -0.4853  1.0844
 1797TIP3   OH226881   1.035   3.809   2.166  0.6026  0.1882 -0.4332
 1797TIP3    H126882   0.992   3.855   2.239  0.2992 -0.4879 -0.1793
 1797TIP3    H226883   0.985   3.728   2.156 -0.4151  1.0008 -2.4896
 1798TIP3   OH226884   0.699   4.949   1.924 -0.1872 -0.3257  0.1682
 1798TIP3    H126885   0.772   4.951   1.862  0.1349 -1.6429  0.4518
 1798TIP3    H226886   0.629   4.902   1.878 -0.8671  0.9300 -0.1007
 1799TIP3   OH226887   3.768   0.310  13.277 -0.5958 -0.3396 -0.2597
 1799TIP3    H126888   3.677   0.335  13.293 -0.9013 -0.6503 -1.4323
 1799TIP3    H226889   3.775   0.220  13.310  0.2051  0.7612  2.9062
 1800TIP3   OH226890   1.947   4.117   0.667 -0.7082  0.7365 -0.5799
 1800TIP3    H126891   2.029   4.137   0.713 -0.7497 -1.5990  0.6368
 1800TIP3    H226892   1.909   4.203   0.648 -0.8206  1.9932  4.0824
 1801TIP3   OH226893   3.025   1.323   0.913 -0.2550 -0.1262  0.0607
 1801TIP3    H126894   3.035   1.379   0.990  1.8743 -1.2799  0.6793
 1801TIP3    H226895   2.939   1.282   0.925 -0.6296  0.8799  1.0021
 1802TIP3   OH226896   0.980   5.936   3.268 -0.0148 -0.1542 -0.2883
 1802TIP3    H126897   1.069   5.918   3.296 -0.0152  1.1247  0.6197
 1802TIP3    H226898   0.948   6.002   3.329 -1.6645 -0.7276 -0.4554
 1803TIP3   OH226899   0.719   5.372  15.333 -0.0164 -0.0045 -0.0274
 1803TIP3    H126900   0.712   5.366  15.429  1.3561 -0.9035  0.0567
 1803TIP3    H226901   0.797   5.426  15.319 -1.0223  1.3261 -0.6832
 1804TIP3   OH226902   5.414   3.373  13.060 -0.1541 -0.1985 -0.0756
 1804TIP3    H126903   5.399   3.372  13.154 -0.0696 -1.1995 -0.0627
 1804TIP3    H226904   5.337   3.418  13.024  0.0361  0.5947  0.4984
 1805TIP3   OH226905   0.684   1.904  12.447  0.0082  0.5162  0.4439
 1805TIP3    H126906   0.604   1.854  12.464 -0.2570  1.0830  0.8708
 1805TIP3    H226907   0.682   1.920  12.352 -0.0741  0.0158  0.3555
 1806TIP3   OH226908   4.072   2.381  11.196 -0.1078 -0.3487  0.3534
 1806TIP3    H126909   4.068   2.298  11.245 -3.7257 -0.4715  0.1510
 1806TIP3    H226910   4.074   2.354  11.104 -0.1573 -0.2041  0.3100
 1807TIP3   OH226911   5.418   6.794  11.818 -0.2661 -0.1778  0.2172
 1807TIP3    H126912   5.475   6.719  11.799  0.7637  0.7059 -0.2773
 1807TIP3    H226913   5.471   6.871  11.796 -0.9421  0.7447  1.6779
 1808TIP3   OH226914   6.298   2.696  10.973 -0.2687 -0.3013 -0.7889
 1808TIP3    H126915   6.279   2.780  10.933  0.6483  0.5264  0.4080
 1808TIP3    H226916   6.308   2.636  10.900 -0.4457  0.7384 -1.6955
 1809TIP3   OH226917   5.766   1.414  12.871  0.3954  0.2681 -0.4337
 1809TIP3    H126918   5.737   1.452  12.954  1.2957  0.5337 -0.2346
 1809TIP3    H226919   5.686   1.377  12.833  0.1663 -0.9796  1.1311
 1810TIP3   OH226920   2.221   1.971   6.386  0.0367 -0.4696  0.0001
 1810TIP3    H126921   2.219   2.005   6.475 -0.3190 -0.2474 -0.0889
 1810TIP3    H226922   2.149   1.908   6.382 -0.4354  0.0776 -0.3429
 1811TIP3   OH226923   4.568   4.041  10.449 -0.6179  0.4684 -0.2785
 1811TIP3    H126924   4.633   4.046  10.519 -1.1179 -1.1044  0.3573
 1811TIP3    H226925   4.497   3.988  10.486 -0.9089 -0.3905 -1.9556
 1812TIP3   OH226926   6.347   4.054   2.328 -0.1034  0.6798 -0.0839
 1812TIP3    H126927   6.258   4.089   2.336 -0.2821  0.5629 -1.3243
 1812TIP3    H226928   6.364   4.053   2.234  1.3979  1.1420  0.1568
 1813TIP3   OH226929   6.220   1.044   3.029 -0.5568  0.2534  0.1476
 1813TIP3    H126930   6.233   0.962   3.077 -0.5382  0.3678  0.3379
 1813TIP3    H226931   6.269   1.109   3.079  0.6231  0.1185 -0.7906
 1814TIP3   OH226932   0.654   1.873  10.553  0.0283 -0.0120  0.1061
 1814TIP3    H126933   0.575   1.823  10.574  0.9937 -0.9255  1.7948
 1814TIP3    H226934   0.675   1.921  10.633  0.2316  1.6044 -0.8746
 1815TIP3   OH226935   3.921   1.514  14.895  0.0786 -0.2995  0.2326
 1815TIP3    H126936   3.988   1.453  14.926  0.2988 -0.4007 -0.4346
 1815TIP3    H226937   3.857   1.518  14.967  0.1928 -1.1141  0.3854
 1816TIP3   OH226938   1.894   5.975   3.590  0.3913 -0.3032 -0.4669
 1816TIP3    H126939   1.942   6.046   3.633  0.9160  0.1822 -1.7922
 1816TIP3    H226940   1.833   5.943   3.657  2.5386 -0.9731  1.2831
 1817TIP3   OH226941   2.804   5.743   5.680  0.6228  0.0613  0.4547
 1817TIP3    H126942   2.775   5.825   5.721  2.1095  0.9366 -0.1865
 1817TIP3    H226943   2.886   5.722   5.724  1.1708 -0.1118 -0.6238
 1818TIP3   OH226944   0.252   1.738   5.209  0.5270  0.0259  0.1242
 1818TIP3    H126945   0.279   1.663   5.262 -1.8299 -0.7439  0.3505
 1818TIP3    H226946   0.213   1.799   5.271  1.1137  0.8178 -0.2596
 1819TIP3   OH226947   4.610   4.819  15.631 -0.1088  0.1651  0.1827
 1819TIP3    H126948   4.520   4.845  15.652 -0.3049 -0.6628  0.3956
 1819TIP3    H226949   4.604   4.780  15.544 -0.4785 -2.4306  1.2932
 1820TIP3   OH226950   0.313   5.662  14.328 -0.3917 -0.3470 -0.2285
 1820TIP3    H126951   0.292   5.570  14.343 -2.8376  0.1436 -0.2273
 1820TIP3    H226952   0.270   5.709  14.399  1.3828  0.7915  0.1638
 1821TIP3   OH226953   4.727   3.823  13.991 -0.1322 -0.0140 -0.5642
 1821TIP3    H126954   4.737   3.917  13.979  0.3673  0.1684  1.0808
 1821TIP3    H226955   4.703   3.813  14.083 -1.3201 -1.4280 -0.9933
 1822TIP3   OH226956   0.304   2.968   1.339  0.1856  0.5236 -0.8841
 1822TIP3    H126957   0.370   3.006   1.281  0.2544 -1.7260 -2.4032
 1822TIP3    H226958   0.224   3.017   1.319  1.0518  2.4929  0.1442
 1823TIP3   OH226959   3.156   5.518   0.642  0.0495 -0.2053 -0.5409
 1823TIP3    H126960   3.101   5.442   0.663 -1.9911  0.9665 -1.4163
 1823TIP3    H226961   3.155   5.570   0.722 -3.1373  1.5284 -1.5656
 1824TIP3   OH226962   5.470   3.209  12.586  0.3479 -0.0697 -0.6004
 1824TIP3    H126963   5.472   3.163  12.670  0.6279 -1.3897 -1.2992
 1824TIP3    H226964   5.389   3.260  12.589  0.6309  0.3419  0.6761
 1825TIP3   OH226965   0.231   2.892   3.209 -0.2136 -0.3343 -0.5173
 1825TIP3    H126966   0.265   2.929   3.291  0.8794 -0.1069 -1.0678
 1825TIP3    H226967   0.144   2.858   3.233 -0.8847  1.7438  0.2367
 1826TIP3   OH226968   1.700   1.122  13.045 -0.4816  0.2823 -0.3861
 1826TIP3    H126969   1.654   1.071  13.111  0.7994 -2.0658 -1.1846
 1826TIP3    H226970   1.774   1.067  13.020  0.7294  2.3795 -1.6684
 1827TIP3   OH226971   2.245   6.248  16.749 -0.1453 -0.8151 -0.0398
 1827TIP3    H126972   2.190   6.318  16.784 -0.2157 -0.2322 -1.2730
 1827TIP3    H226973   2.276   6.201  16.826  0.3201  0.8765  0.8362
 1828TIP3   OH226974   5.924   3.036   1.636  0.5724  0.3728  0.4918
 1828TIP3    H126975   5.938   2.968   1.703  1.0340 -0.1204 -0.0877
 1828TIP3    H226976   5.975   3.111   1.668  0.4992  0.2636  0.8730
 1829TIP3   OH226977   5.215   1.461  14.610 -0.3803  0.0601  0.2847
 1829TIP3    H126978   5.237   1.550  14.635 -1.2677  0.7809 -1.3332
 1829TIP3    H226979   5.120   1.457  14.616 -0.5037 -0.1910 -1.3404
 1830TIP3   OH226980   2.805   3.628   5.444 -0.0907 -0.3631  0.2326
 1830TIP3    H126981   2.750   3.664   5.514  0.9309 -0.0219  0.8847
 1830TIP3    H226982   2.794   3.689   5.371 -1.0151 -0.6128  0.1592
 1831TIP3   OH226983   0.950   4.647   0.708  0.6944  0.0431  0.2633
 1831TIP3    H126984   0.935   4.739   0.726 -1.1044 -0.2219  0.3545
 1831TIP3    H226985   0.991   4.646   0.621 -2.2145  0.8899 -1.2781
 1832TIP3   OH226986   6.555   1.823   4.457  0.5896 -1.1443 -0.0972
 1832TIP3    H126987   6.546   1.778   4.373  0.4988 -2.1215  0.4221
 1832TIP3    H226988   6.499   1.901   4.449 -1.2278 -2.3908 -0.1671
 1833TIP3   OH226989   6.018   6.779  11.263 -0.2727  0.0746  0.2128
 1833TIP3    H126990   6.034   6.846  11.197 -0.8299 -0.5189 -0.5422
 1833TIP3    H226991   5.924   6.786  11.281 -0.1874  0.0014  0.6952
 1834TIP3   OH226992   5.428   0.904  16.704  0.1417  0.0130  0.3454
 1834TIP3    H126993   5.478   0.979  16.738 -0.3588 -0.1008  1.3855
 1834TIP3    H226994   5.454   0.897  16.613  0.0136  1.6208  0.1493
 1835TIP3   OH226995   4.701   1.692  15.368  0.1374  0.1924  0.4942
 1835TIP3    H126996   4.684   1.748  15.444 -0.8072 -0.3971  0.7438
 1835TIP3    H226997   4.715   1.605  15.406 -2.3066 -0.5209 -0.0606
 1836TIP3   OH226998   3.335   1.984  13.767  0.1938 -0.6948  0.1060
 1836TIP3    H126999   3.393   2.060  13.775  0.6126 -1.0967  1.0258
 1836TIP3    H227000   3.250   2.021  13.742  0.6563 -0.0356 -0.5346
 1837TIP3   OH227001   5.754   5.289   1.645 -0.0609 -0.4382  0.5496
 1837TIP3    H127002   5.775   5.322   1.557  1.3316 -1.4069  0.4766
 1837TIP3    H227003   5.661   5.309   1.657  0.1715  1.4080 -0.3750
 1838TIP3   OH227004   0.045   3.240   2.722 -0.0243 -0.4588  0.1877
 1838TIP3    H127005   0.019   3.235   2.631 -1.0341 -1.1319  0.4942
 1838TIP3    H227006  -0.038   3.239   2.771  0.5289 -1.3684  1.1512
 1839TIP3   OH227007   3.167   6.514  12.042  0.4131 -0.5025 -0.1702
 1839TIP3    H127008   3.214   6.527  11.960  0.0989  0.7978 -0.1705
 1839TIP3    H227009   3.198   6.430  12.075  1.8036 -0.2464 -0.7731
 1840TIP3   OH227010   1.004   4.903   2.249 -0.1224  0.3026 -0.0044
 1840TIP3    H127011   1.059   4.866   2.318 -1.0779 -0.7873  0.2001
 1840TIP3    H227012   1.010   4.998   2.262 -0.5166  0.1337  1.7999
 1841TIP3   OH227013   0.798   6.548  16.183 -0.2050  0.5830  0.0131
 1841TIP3    H127014   0.892   6.530  16.193 -0.5372 -1.6355 -0.4647
 1841TIP3    H227015   0.794   6.621  16.121  1.2035  0.6148 -0.0651
 1842TIP3   OH227016   4.513   1.821  11.793  0.4388  0.3555  0.4440
 1842TIP3    H127017   4.431   1.870  11.800  0.9040  1.0243  1.2977
 1842TIP3    H227018   4.549   1.846  11.708 -0.0598  0.3413  0.2278
 1843TIP3   OH227019   4.152   1.168  12.192 -0.2717 -0.4107  0.5921
 1843TIP3    H127020   4.221   1.130  12.247  0.5977 -2.1025 -1.5348
 1843TIP3    H227021   4.112   1.093  12.147  0.0302  0.9266 -2.1306
 1844TIP3   OH227022   4.156   2.614  16.483  0.1634  0.1161 -0.0092
 1844TIP3    H127023   4.151   2.677  16.554 -0.9666  0.7223 -0.5951
 1844TIP3    H227024   4.248   2.590  16.479  0.0312 -1.2642  2.7641
 1845TIP3   OH227025   2.037   4.604  15.045 -0.4947 -0.1964 -0.4054
 1845TIP3    H127026   2.071   4.516  15.031  2.2260  0.1022  2.9695
 1845TIP3    H227027   1.954   4.592  15.091  0.2972 -1.0320  0.8406
 1846TIP3   OH227028   3.325   6.092   0.246 -0.4846 -0.4907 -0.7860
 1846TIP3    H127029   3.239   6.124   0.271  0.2425  0.9146  0.0308
 1846TIP3    H227030   3.324   5.999   0.271 -1.2056 -0.1073  0.7332
 1847TIP3   OH227031   2.111   1.820  13.854  0.2710  0.2424  0.1870
 1847TIP3    H127032   2.197   1.858  13.872  0.1911  0.8141 -0.5866
 1847TIP3    H227033   2.070   1.811  13.940  0.7835  0.7282  0.4872
 1848TIP3   OH227034   5.803   5.440  11.932 -0.3429 -0.3709 -0.2323
 1848TIP3    H127035   5.778   5.411  12.019  0.4591  3.2672  1.4143
 1848TIP3    H227036   5.880   5.496  11.947  1.5308 -1.7510 -3.6409
 1849TIP3   OH227037   1.267   2.221   3.964  0.2273  0.0598  0.1403
 1849TIP3    H127038   1.296   2.311   3.955 -1.9709  0.7959 -0.2789
 1849TIP3    H227039   1.248   2.192   3.874  0.0928 -0.5287  0.3496
 1850TIP3   OH227040   3.195   5.323   3.176 -0.5363 -0.3217  0.2704
 1850TIP3    H127041   3.153   5.321   3.090  0.0056  1.4453 -0.0793
 1850TIP3    H227042   3.289   5.323   3.157 -0.3920 -0.9915  0.9240
 1851TIP3   OH227043   2.139   5.230  16.826  0.3385  0.4478 -0.0217
 1851TIP3    H127044   2.188   5.259  16.903 -1.0732  0.3825  0.9397
 1851TIP3    H227045   2.122   5.310  16.777  0.9230  0.5393 -0.0802
 1852TIP3   OH227046   3.936   2.416  17.074  0.1803 -0.2231 -0.3737
 1852TIP3    H127047   3.951   2.383  16.985  3.4030 -0.3776  0.1153
 1852TIP3    H227048   3.943   2.339  17.130 -1.0730 -0.0096  0.0940
 1853TIP3   OH227049   5.934   4.669  14.041 -0.3761 -0.2166 -0.7213
 1853TIP3    H127050   5.941   4.677  14.136 -0.1534  0.9825 -0.8238
 1853TIP3    H227051   5.840   4.658  14.025 -0.4580 -0.0544 -0.3762
 1854TIP3   OH227052   0.274   6.112  13.239 -0.0977 -0.5857 -0.7029
 1854TIP3    H127053   0.271   6.167  13.160  0.3593  0.3040 -0.1222
 1854TIP3    H227054   0.217   6.157  13.301 -2.0361 -2.3223 -1.1321
 1855TIP3   OH227055   4.121   4.423   5.146  0.0013 -0.1265  0.6803
 1855TIP3    H127056   4.056   4.452   5.210  1.1885  0.7957  1.5247
 1855TIP3    H227057   4.071   4.374   5.081 -1.3634 -0.4478  1.9117
 1856TIP3   OH227058   4.010   0.065  14.719 -0.0155 -0.2052  0.1229
 1856TIP3    H127059   4.088   0.026  14.681 -0.8754 -0.3648 -1.5833
 1856TIP3    H227060   3.957   0.091  14.644 -1.5884 -0.0655  1.2269
 1857TIP3   OH227061   6.387   2.747  16.142 -0.0236  0.2308 -0.6807
 1857TIP3    H127062   6.416   2.774  16.055  1.3636  0.1238 -0.2646
 1857TIP3    H227063   6.415   2.818  16.199 -2.5391  1.2008 -0.5264
 1858TIP3   OH227064   4.382   6.614   6.463  0.0639  0.0622  0.3580
 1858TIP3    H127065   4.456   6.643   6.411 -0.7747  0.0370 -0.8921
 1858TIP3    H227066   4.343   6.695   6.497 -0.2146  0.1805 -0.2338
 1859TIP3   OH227067   3.027   4.066   3.352  0.2540  0.2596 -0.0738
 1859TIP3    H127068   3.086   4.131   3.389  0.3799 -0.0696  0.3119
 1859TIP3    H227069   3.007   4.007   3.425 -0.8758  0.6019 -0.0920
 1860TIP3   OH227070   0.350   5.983  15.110  0.3751 -0.3852 -0.3832
 1860TIP3    H127071   0.319   6.025  15.030  1.5870  0.1595 -0.5873
 1860TIP3    H227072   0.316   5.893  15.104 -0.6115  0.0054 -0.8761
 1861TIP3   OH227073   5.479   5.413   1.680 -0.5228 -0.1207 -0.4606
 1861TIP3    H127074   5.430   5.491   1.706 -1.1055 -1.2062  2.1039
 1861TIP3    H227075   5.525   5.438   1.601 -0.1425  3.0336  0.6221
 1862TIP3   OH227076   0.472   2.940   1.906 -0.3428 -0.3587  0.5356
 1862TIP3    H127077   0.538   2.974   1.845 -0.3756 -1.8749 -0.4120
 1862TIP3    H227078   0.522   2.906   1.980  0.0251 -1.8679 -0.3594
 1863TIP3   OH227079   5.969   0.534   3.705 -0.4384  0.4347  1.0614
 1863TIP3    H127080   5.949   0.601   3.639  0.1774  0.7112  1.1389
 1863TIP3    H227081   6.058   0.505   3.682 -0.5052  0.0066  1.3348
 1864TIP3   OH227082   3.009   0.547  15.763 -0.7010 -0.3062 -0.5149
 1864TIP3    H127083   2.921   0.518  15.738 -0.7486  0.6607 -1.5213
 1864TIP3    H227084   2.997   0.588  15.849 -1.2012 -0.3136 -0.5794
 1865TIP3   OH227085   2.211   4.605  12.282  0.3983  0.0436 -0.0491
 1865TIP3    H127086   2.119   4.583  12.266  0.7505  0.0776 -2.6559
 1865TIP3    H227087   2.231   4.673  12.217  1.8562  1.2342  1.5651
 1866TIP3   OH227088   1.189   6.196  15.514  0.7619  0.0066  0.3715
 1866TIP3    H127089   1.201   6.104  15.490  0.8358  0.2835 -0.6753
 1866TIP3    H227090   1.097   6.202  15.541  0.4502 -0.1494 -0.6224
 1867TIP3   OH227091   5.656   3.064  16.726 -0.0807  0.2222 -0.0992
 1867TIP3    H127092   5.723   3.025  16.670 -0.5035  0.4158 -0.7489
 1867TIP3    H227093   5.705   3.106  16.796  0.4735  0.3042 -0.5290
 1868TIP3   OH227094   3.219   4.672  15.559 -0.5719  0.5829  0.5889
 1868TIP3    H127095   3.201   4.765  15.547 -0.0467  0.7891  1.3290
 1868TIP3    H227096   3.286   4.669  15.627 -2.0786 -0.4376  2.1063
 1869TIP3   OH227097   6.671   2.753   5.819  0.3605 -0.4621  0.2403
 1869TIP3    H127098   6.670   2.664   5.854 -1.1690 -0.0997  1.2498
 1869TIP3    H227099   6.753   2.790   5.850  0.5639 -1.2174  0.6395
 1870TIP3   OH227100   4.365   6.059  13.690 -0.1926 -0.5949 -0.6435
 1870TIP3    H127101   4.274   6.088  13.691  0.2181  0.7547 -0.4384
 1870TIP3    H227102   4.383   6.032  13.780 -0.4059 -0.9123 -0.6971
 1871TIP3   OH227103   4.413   2.370  16.126  0.1217  0.3458 -0.2008
 1871TIP3    H127104   4.478   2.397  16.192 -0.4886  0.8749  0.1973
 1871TIP3    H227105   4.329   2.389  16.167 -0.2813 -0.0459 -0.8400
 1872TIP3   OH227106   0.819   2.060  16.112 -0.5304 -0.5051  0.3077
 1872TIP3    H127107   0.787   2.044  16.023  1.0371 -1.4186 -0.1183
 1872TIP3    H227108   0.780   1.990  16.164  0.1050 -1.1398 -0.0541
 1873TIP3   OH227109   6.439   4.264   4.812  0.1486  0.7981  0.4521
 1873TIP3    H127110   6.521   4.260   4.862  0.8874  0.4125 -0.7432
 1873TIP3    H227111   6.434   4.355   4.783  0.4191  0.7048  0.1073
 1874TIP3   OH227112   4.928   6.064   3.037 -0.1108 -0.1215  0.3358
 1874TIP3    H127113   4.928   6.023   2.951 -1.8007  0.4189  0.0279
 1874TIP3    H227114   5.019   6.061   3.066  0.6034  0.2890 -1.7453
 1875TIP3   OH227115   0.429   6.483  13.977  0.1160 -0.7582 -0.3704
 1875TIP3    H127116   0.519   6.454  13.986  0.2758 -1.2398 -2.8784
 1875TIP3    H227117   0.436   6.574  13.948 -0.1879 -0.8125 -0.6215
 1876TIP3   OH227118   5.504   2.659   1.907  0.8167  0.0713  0.6232
 1876TIP3    H127119   5.568   2.719   1.946  1.6658  0.2870 -0.9957
 1876TIP3    H227120   5.467   2.708   1.833 -0.7497 -0.3062  1.1136
 1877TIP3   OH227121   6.458   3.332   0.339  0.4204  0.2954 -0.5694
 1877TIP3    H127122   6.407   3.413   0.338  1.7945  1.2041  0.2075
 1877TIP3    H227123   6.403   3.270   0.387  0.1414  1.3259  0.4709
 1878TIP3   OH227124   3.023   3.725  15.199 -0.3806  0.5553  0.2145
 1878TIP3    H127125   2.969   3.647  15.190 -0.2090  0.4601  0.0172
 1878TIP3    H227126   2.992   3.766  15.280  0.4719 -0.4503  1.0762
 1879TIP3   OH227127   3.580   0.831   4.286 -0.3859 -0.3396 -0.1036
 1879TIP3    H127128   3.516   0.830   4.358 -0.5103  0.7190 -0.1812
 1879TIP3    H227129   3.642   0.899   4.311  0.0356 -0.5343 -0.6144
 1880TIP3   OH227130   2.314   1.020  16.109  0.7709 -0.2712  0.6017
 1880TIP3    H127131   2.316   0.927  16.128 -0.2950 -0.2959  0.6474
 1880TIP3    H227132   2.325   1.063  16.194  0.3518 -0.3676  0.7088
 1881TIP3   OH227133   2.779   5.457  12.435 -0.1162 -0.3877 -0.1511
 1881TIP3    H127134   2.780   5.520  12.363  0.6416 -0.7741 -0.4913
 1881TIP3    H227135   2.765   5.510  12.513  1.5294  0.3488 -0.3210
 1882TIP3   OH227136   1.859   0.099  14.037 -0.0607 -0.0840 -0.0790
 1882TIP3    H127137   1.875   0.145  14.119 -1.0942 -1.2424  0.8223
 1882TIP3    H227138   1.944   0.063  14.013  0.7965  2.3211 -0.8810
 1883TIP3   OH227139   0.487   1.613   1.317 -0.2172  0.6457  0.7672
 1883TIP3    H127140   0.520   1.695   1.354  0.0527  1.3300 -0.8786
 1883TIP3    H227141   0.395   1.630   1.299 -0.3678  0.2930  1.2122
 1884TIP3   OH227142   6.853   4.056  16.618 -0.2668 -0.1233  0.2721
 1884TIP3    H127143   6.913   4.004  16.565 -2.7969 -2.9708 -0.0842
 1884TIP3    H227144   6.785   4.084  16.557 -1.7810 -1.0893  1.4389
 1885TIP3   OH227145   1.245   1.076   6.462  0.4089  0.1616 -0.0509
 1885TIP3    H127146   1.238   1.172   6.460  1.9351  0.3143  0.5905
 1885TIP3    H227147   1.154   1.046   6.464 -0.1160  1.5772 -0.7110
 1886TIP3   OH227148   5.338   2.774   0.143  0.2495  0.4966 -0.7253
 1886TIP3    H127149   5.319   2.839   0.075  2.5130  1.1938 -0.7828
 1886TIP3    H227150   5.328   2.690   0.099 -0.3241  0.8708 -1.3349
 1887TIP3   OH227151   6.315   4.290  16.092 -0.0466  0.1862  0.1364
 1887TIP3    H127152   6.244   4.260  16.035 -0.2399 -1.5719  1.2346
 1887TIP3    H227153   6.273   4.307  16.176  0.2601  2.6382 -0.1374
 1888TIP3   OH227154   0.505   3.228  15.467  0.8177 -0.2958 -0.2325
 1888TIP3    H127155   0.507   3.135  15.491 -0.1493 -0.5180 -0.9875
 1888TIP3    H227156   0.580   3.266  15.513  0.3359 -1.1488  1.3118
 1889TIP3   OH227157   3.156   5.848   3.016  0.6853  0.4156  0.4493
 1889TIP3    H127158   3.149   5.768   2.963 -1.4319  0.4552  0.5943
 1889TIP3    H227159   3.239   5.839   3.063  1.1502 -1.0306 -0.5951
 1890TIP3   OH227160   2.103   5.775  16.741  0.1714 -0.1271  0.0846
 1890TIP3    H127161   2.012   5.798  16.760  0.1251 -0.8075  0.7331
 1890TIP3    H227162   2.138   5.852  16.695 -0.9997 -0.2389 -1.0662
 1891TIP3   OH227163   1.324   3.162   0.548 -0.3387  0.4158 -0.3886
 1891TIP3    H127164   1.363   3.199   0.627  0.3583  0.2068 -0.6325
 1891TIP3    H227165   1.245   3.214   0.534 -0.3215  0.6288  0.2917
 1892TIP3   OH227166   6.318   4.700  14.097  0.7812  0.0762 -0.1476
 1892TIP3    H127167   6.231   4.692  14.059  0.3879 -1.8925  1.0047
 1892TIP3    H227168   6.318   4.787  14.138 -1.2620 -0.5046  1.2368
 1893TIP3   OH227169   0.388   4.215   2.848  0.2628 -0.2205 -0.3387
 1893TIP3    H127170   0.391   4.158   2.771 -2.9558 -0.9247 -0.0519
 1893TIP3    H227171   0.445   4.289   2.824 -0.9870 -0.1471 -3.6345
 1894TIP3   OH227172   2.648   0.754  11.156 -0.1087 -0.0590 -0.0617
 1894TIP3    H127173   2.584   0.815  11.118  0.0397 -0.2782 -0.6675
 1894TIP3    H227174   2.724   0.808  11.175 -0.7785  0.3946  1.5208
 1895TIP3   OH227175   3.083   2.848   5.618  0.1069  0.5933  0.4395
 1895TIP3    H127176   3.114   2.881   5.703  0.9087 -2.3851  1.4294
 1895TIP3    H227177   3.150   2.785   5.591 -1.2861 -0.2347 -1.2701
 1896TIP3   OH227178   4.166   6.783   6.142 -0.4722  0.3628 -0.0059
 1896TIP3    H127179   4.209   6.698   6.152 -1.3794 -0.3071 -1.4758
 1896TIP3    H227180   4.225   6.833   6.085 -0.0948  0.6108  0.5970
 1897TIP3   OH227181   2.493   2.312  15.716  0.0168 -0.4375  0.1983
 1897TIP3    H127182   2.558   2.269  15.771  0.7495  0.8579  0.3776
 1897TIP3    H227183   2.410   2.304  15.764  0.6698  0.8227  1.6151
 1898TIP3   OH227184   0.050   4.120   0.640  0.0804  0.6296 -0.1813
 1898TIP3    H127185   0.054   4.032   0.602  0.5903  0.7413 -0.3936
 1898TIP3    H227186   0.033   4.178   0.566 -0.8877  0.6561  0.0468
 1899TIP3   OH227187   1.613   6.446  12.867  0.5310 -0.2049 -0.1270
 1899TIP3    H127188   1.582   6.402  12.788 -0.9956  0.5227  0.0356
 1899TIP3    H227189   1.635   6.375  12.927  2.0041 -0.7743 -1.2821
 1900TIP3   OH227190   3.999   6.365   4.550 -0.0274  0.4931  0.4216
 1900TIP3    H127191   3.925   6.427   4.547 -0.9661 -0.6191 -0.1154
 1900TIP3    H227192   3.964   6.285   4.512  1.4426 -0.1020  0.2821
 1901TIP3   OH227193   3.756   1.578  16.694  0.0170  0.4849  0.2414
 1901TIP3    H127194   3.773   1.484  16.707 -1.5002  0.1537  0.0549
 1901TIP3    H227195   3.779   1.594  16.602  1.9894  0.7347  0.7392
 1902TIP3   OH227196   2.723   3.645   1.878  0.3037 -0.1140  0.1872
 1902TIP3    H127197   2.655   3.582   1.902 -0.5997 -0.2357 -2.3847
 1902TIP3    H227198   2.724   3.709   1.950  0.6243 -2.4899  2.4219
 1903TIP3   OH227199   3.276   5.977   0.538  0.4225  0.1196 -0.2853
 1903TIP3    H127200   3.346   5.913   0.549 -0.1466 -0.3540  0.7873
 1903TIP3    H227201   3.204   5.926   0.500  0.4784  0.4823 -0.8868
 1904TIP3   OH227202   4.502   4.366   5.747  0.1407 -0.2640  0.1132
 1904TIP3    H127203   4.517   4.389   5.839 -0.8775 -1.0937  0.5055
 1904TIP3    H227204   4.409   4.382   5.733  0.2451 -0.3387 -0.7281
 1905TIP3   OH227205   4.335   5.073   3.134 -0.2333  0.1607 -1.0960
 1905TIP3    H127206   4.406   5.078   3.069 -0.8994  0.3554 -1.8241
 1905TIP3    H227207   4.350   5.148   3.192 -2.3403  2.9697 -3.8682
 1906TIP3   OH227208   2.467   6.070  11.438 -0.0809 -0.0042  0.1544
 1906TIP3    H127209   2.529   6.014  11.484  0.2534  2.7816  3.4790
 1906TIP3    H227210   2.521   6.126  11.382  0.3914  1.2885  1.7978
 1907TIP3   OH227211   6.054   1.584  15.332  0.0900 -0.0286 -0.6620
 1907TIP3    H127212   6.064   1.613  15.242  0.4257  0.5121 -0.4584
 1907TIP3    H227213   6.141   1.554  15.358  0.3132  1.0663 -0.1015
 1908TIP3   OH227214   2.620   1.940  14.690  0.5641  0.0645  0.3237
 1908TIP3    H127215   2.551   1.905  14.746 -0.8948 -0.8580 -1.9170
 1908TIP3    H227216   2.700   1.899  14.724 -0.1394  0.0591  2.1061
 1909TIP3   OH227217   6.398   0.863  16.325  0.1687 -0.3449 -0.3447
 1909TIP3    H127218   6.336   0.828  16.389 -0.2577 -0.6883 -0.9318
 1909TIP3    H227219   6.474   0.805  16.332  0.6309  0.3647  0.7139
 1910TIP3   OH227220   2.738   2.251   0.833  0.2082 -0.9498 -0.3048
 1910TIP3    H127221   2.693   2.168   0.852  0.9856 -1.3041  0.0082
 1910TIP3    H227222   2.778   2.238   0.748 -0.6114 -0.4854 -0.7738
 1911TIP3   OH227223   1.900   1.304  13.680  0.0936  0.1362  0.8516
 1911TIP3    H127224   1.821   1.318  13.628  0.4815  0.6071  0.3805
 1911TIP3    H227225   1.949   1.386  13.673  1.1296 -0.5041  0.2617
 1912TIP3   OH227226   6.330   4.101   1.814 -0.0247  0.3252 -0.0009
 1912TIP3    H127227   6.409   4.048   1.805 -0.4317 -0.1369 -0.9014
 1912TIP3    H227228   6.339   4.169   1.747 -0.8846 -0.3627 -0.8275
 1913TIP3   OH227229   6.417   1.176  16.359  0.0417 -0.4175 -0.0676
 1913TIP3    H127230   6.446   1.219  16.439 -1.1744 -0.9385  0.6696
 1913TIP3    H227231   6.382   1.092  16.387 -1.0691 -0.3144 -1.0492
 1914TIP3   OH227232   5.874   0.250   1.515  0.3001  0.1784  0.0200
 1914TIP3    H127233   5.881   0.329   1.462  0.7082  0.5797  0.6653
 1914TIP3    H227234   5.962   0.236   1.549 -0.0446  0.1638  0.9369
 1915TIP3   OH227235   6.183   0.698  13.874 -0.2089 -0.0504  0.0614
 1915TIP3    H127236   6.228   0.766  13.925 -0.1752  1.6184 -2.0300
 1915TIP3    H227237   6.252   0.658  13.821 -0.4205 -0.9256  0.4391
 1916TIP3   OH227238   2.566   3.810   2.439 -0.3115 -0.9685  0.7295
 1916TIP3    H127239   2.577   3.891   2.388  2.7562 -0.1846  2.3513
 1916TIP3    H227240   2.516   3.836   2.516 -1.9165 -1.3571 -0.1485
 1917TIP3   OH227241   4.010   2.337  13.138 -0.0445  0.4709  0.1820
 1917TIP3    H127242   3.926   2.339  13.184 -0.3877  0.0768 -0.4242
 1917TIP3    H227243   4.073   2.367  13.204 -0.7107  1.2134  0.5095
 1918TIP3   OH227244   4.109   2.327  15.403  0.0401 -0.3669  0.0452
 1918TIP3    H127245   4.061   2.260  15.354 -2.8418  1.7869 -0.2958
 1918TIP3    H227246   4.073   2.323  15.491 -1.5881  1.8689 -0.4320
 1919TIP3   OH227247   2.486   4.237  11.419  0.2956 -0.3564  0.2903
 1919TIP3    H127248   2.404   4.193  11.442  1.1866 -1.7301  1.0167
 1919TIP3    H227249   2.466   4.285  11.339 -1.1702 -0.8172  0.3562
 1920TIP3   OH227250   4.517   3.474   2.426 -0.1597 -1.0131 -0.0148
 1920TIP3    H127251   4.519   3.570   2.429  1.5976 -1.0101 -0.3509
 1920TIP3    H227252   4.424   3.453   2.421 -0.5431  0.7185 -1.1626
 1921TIP3   OH227253   3.341   4.144  15.897 -0.2977 -0.0684 -0.3986
 1921TIP3    H127254   3.263   4.100  15.863 -1.4984 -0.2394  2.3561
 1921TIP3    H227255   3.313   4.234  15.911 -0.0600 -0.1700  0.7696
 1922TIP3   OH227256   1.249   2.909   4.607 -0.6923 -0.0338 -0.0489
 1922TIP3    H127257   1.335   2.896   4.566 -1.3651  1.7943 -2.2221
 1922TIP3    H227258   1.267   2.966   4.682  0.0041  0.3272 -0.4749
 1923TIP3   OH227259   0.182   5.919  10.831  0.2190  0.2426 -0.1120
 1923TIP3    H127260   0.178   5.841  10.777  2.0624 -0.0310  0.0778
 1923TIP3    H227261   0.195   5.887  10.920 -0.4478  0.7396  0.1739
 1924TIP3   OH227262   3.865   5.926   2.777 -0.4954  0.5557 -0.4870
 1924TIP3    H127263   3.843   5.884   2.694  0.0953  0.3955 -0.5652
 1924TIP3    H227264   3.807   6.002   2.781 -1.5248 -0.2123 -0.3792
 1925TIP3   OH227265   6.848   5.501  14.021  0.3109  0.3875  0.0856
 1925TIP3    H127266   6.932   5.546  14.017  0.7589 -0.3963  0.5503
 1925TIP3    H227267   6.805   5.538  14.098  0.1259  0.9530 -0.2828
 1926TIP3   OH227268   2.003   2.538  14.696  0.9793 -0.1303 -0.3069
 1926TIP3    H127269   1.948   2.478  14.747  0.3192  0.2226 -0.5962
 1926TIP3    H227270   1.950   2.617  14.686  1.3460  0.0356 -1.0179
 1927TIP3   OH227271   1.800   5.383   1.247  0.1423  0.1042  0.3982
 1927TIP3    H127272   1.876   5.381   1.305  0.4193 -2.6115  0.0649
 1927TIP3    H227273   1.793   5.294   1.214 -1.8599  0.8387 -1.3598
 1928TIP3   OH227274   3.260   0.448  14.627 -0.2804  0.2048 -0.3158
 1928TIP3    H127275   3.349   0.413  14.628 -0.3835 -0.6557  4.2823
 1928TIP3    H227276   3.264   0.526  14.683 -2.1902  0.8553 -1.0144
 1929TIP3   OH227277   3.596   3.909   1.082  0.1001  0.0937  0.0709
 1929TIP3    H127278   3.606   3.962   1.161 -0.4678 -1.1265  0.9827
 1929TIP3    H227279   3.526   3.847   1.102  0.1527 -0.4483 -1.2817
 1930TIP3   OH227280   5.803   1.186  16.980 -0.2538  0.2235 -0.0068
 1930TIP3    H127281   5.880   1.151  17.023 -1.3102  0.0447  1.8264
 1930TIP3    H227282   5.748   1.110  16.963 -0.8792  0.5516  0.4983
 1931TIP3   OH227283   2.623   2.454  12.953  0.1187  0.5117 -0.7674
 1931TIP3    H127284   2.535   2.482  12.929  0.6112  0.3016 -3.0539
 1931TIP3    H227285   2.675   2.535  12.953 -0.1973  0.7992  1.5960
 1932TIP3   OH227286   4.787   2.136   6.003  0.1554 -0.3875 -0.3300
 1932TIP3    H127287   4.819   2.114   6.090 -1.8859  0.9751  0.8677
 1932TIP3    H227288   4.705   2.087   5.995 -0.6461  0.9343 -0.6406
 1933TIP3   OH227289   1.367   2.994   0.017  0.1406 -0.4954  0.4541
 1933TIP3    H127290   1.373   2.942  -0.063 -1.5760 -0.0609 -0.0020
 1933TIP3    H227291   1.395   3.081  -0.009  1.3416 -0.7646  0.7966
 1934TIP3   OH227292   1.832   5.497   0.794  0.0454  0.2403 -0.2202
 1934TIP3    H127293   1.779   5.503   0.874  1.1619  0.9137  0.4988
 1934TIP3    H227294   1.920   5.523   0.822  0.4626  0.4618 -1.6724
 1935TIP3   OH227295   0.374   6.069   3.091  0.8126 -0.0329 -0.3446
 1935TIP3    H127296   0.416   6.007   3.151  0.0691  0.9842  1.2936
 1935TIP3    H227297   0.436   6.142   3.085  0.8598 -0.1067 -0.7964
 1936TIP3   OH227298   5.406   2.286  11.801  0.6031 -0.7421  0.1048
 1936TIP3    H127299   5.501   2.298  11.803  0.6488 -1.2439  0.9133
 1936TIP3    H227300   5.394   2.196  11.771  0.4856 -1.7485  2.8917
 1937TIP3   OH227301   2.454   0.993   3.751 -0.2619 -0.1902 -0.1304
 1937TIP3    H127302   2.436   0.951   3.667 -0.7146 -0.9552  0.3477
 1937TIP3    H227303   2.536   0.953   3.780 -0.4651 -0.4237  0.1183
 1938TIP3   OH227304   3.621   5.152  14.356  0.0400  0.0056 -0.6483
 1938TIP3    H127305   3.689   5.132  14.292 -0.0540 -1.4052 -0.3463
 1938TIP3    H227306   3.580   5.068  14.374 -0.3638  0.4823  0.7851
 1939TIP3   OH227307   4.853   3.589   5.804 -0.0164  0.5368  0.1730
 1939TIP3    H127308   4.916   3.630   5.863 -1.2021  0.8809  1.2541
 1939TIP3    H227309   4.881   3.615   5.716  1.8479 -0.0668  0.5458
 1940TIP3   OH227310   0.537   3.168   3.791 -0.1475  0.6238  0.4931
 1940TIP3    H127311   0.446   3.194   3.802 -0.1451  0.1213  2.0362
 1940TIP3    H227312   0.537   3.074   3.813  0.4972  0.2635 -0.9583
 1941TIP3   OH227313   5.043   3.434   3.114  0.1583  0.1130 -0.1855
 1941TIP3    H127314   5.082   3.466   3.033 -0.3471 -0.6353 -0.7325
 1941TIP3    H227315   4.986   3.506   3.142  0.7206  0.5794 -0.2081
 1942TIP3   OH227316   4.389   2.864   3.781  0.2213 -0.5339  0.4105
 1942TIP3    H127317   4.470   2.814   3.789  0.5407  0.0749  1.1085
 1942TIP3    H227318   4.391   2.898   3.692  1.4030  0.5693  0.8189
 1943TIP3   OH227319   5.269   1.556   3.856 -0.9228  0.3195  0.2810
 1943TIP3    H127320   5.302   1.509   3.779 -0.7204  0.1163  0.4914
 1943TIP3    H227321   5.344   1.607   3.887 -1.6297  2.2916 -1.0661
 1944TIP3   OH227322   4.399   3.652  16.591  0.2842  0.2009  0.0336
 1944TIP3    H127323   4.348   3.650  16.672 -1.7452  0.5717 -1.1636
 1944TIP3    H227324   4.452   3.573  16.593 -0.1614 -0.0759  1.4523
 1945TIP3   OH227325   2.879   5.672  16.139  0.0124  0.0115 -0.3202
 1945TIP3    H127326   2.786   5.673  16.116 -0.2364 -0.7355  0.6038
 1945TIP3    H227327   2.881   5.680  16.234  0.9252  0.5130 -0.3648
 1946TIP3   OH227328   3.107   0.669  16.037 -0.5982  0.7578  0.1145
 1946TIP3    H127329   3.151   0.702  16.116 -0.2371  1.1249 -0.2392
 1946TIP3    H227330   3.067   0.746  15.997  0.5044  0.8439 -0.8745
 1947TIP3   OH227331   6.571   4.356  11.578  0.3645  0.4723  0.3053
 1947TIP3    H127332   6.607   4.395  11.498  0.5394  0.5606  0.4242
 1947TIP3    H227333   6.542   4.431  11.631 -2.6309  0.3243 -0.9642
 1948TIP3   OH227334   1.626   1.626   1.796 -0.6138  0.3278 -0.1470
 1948TIP3    H127335   1.600   1.535   1.802  0.1329  0.0324 -1.2194
 1948TIP3    H227336   1.703   1.626   1.741  1.5447  1.2104  2.6277
 1949TIP3   OH227337   2.636   1.319  16.240 -0.7915  0.2659  0.2438
 1949TIP3    H127338   2.726   1.319  16.271 -0.9632 -0.3738  0.7643
 1949TIP3    H227339   2.633   1.389  16.175 -0.5593  2.0019  2.0255
 1950TIP3   OH227340   3.886   0.237  10.949  0.6367  0.2169 -0.2036
 1950TIP3    H127341   3.805   0.238  10.897  0.2144  0.2506  0.4458
 1950TIP3    H227342   3.931   0.157  10.921  1.0212  0.8641 -1.5217
 1951TIP3   OH227343   4.288   1.117  17.072  0.1457 -0.5640  0.1805
 1951TIP3    H127344   4.343   1.039  17.075  1.6658  0.4912  1.7073
 1951TIP3    H227345   4.333   1.176  17.012 -0.9744 -0.8143 -0.9393
 1952TIP3   OH227346   1.898   4.432  13.024 -0.2039 -0.3895  0.7973
 1952TIP3    H127347   1.847   4.477  13.092 -0.1479  0.1927  0.4496
 1952TIP3    H227348   1.962   4.380  13.073 -0.2642 -0.0904  1.1956
 1953TIP3   OH227349   0.820   1.677   3.252  0.2038  0.2210 -0.0785
 1953TIP3    H127350   0.797   1.638   3.168 -0.2144  0.9898 -0.3359
 1953TIP3    H227351   0.832   1.603   3.311  1.5049 -0.3743 -1.0551
 1954TIP3   OH227352   0.202   2.527   5.250  0.4184 -0.0855  0.4160
 1954TIP3    H127353   0.245   2.594   5.197 -0.2485 -0.8982 -1.1966
 1954TIP3    H227354   0.136   2.575   5.301  1.2766  0.7440  0.7719
 1955TIP3   OH227355   3.390   0.893   0.925 -0.5406  0.0052 -0.2225
 1955TIP3    H127356   3.348   0.808   0.908  2.0942 -1.0429 -2.1879
 1955TIP3    H227357   3.377   0.942   0.844  0.2794  0.4116 -0.1148
 1956TIP3   OH227358   5.914   0.827  14.162  0.4778  0.2661  0.3164
 1956TIP3    H127359   5.950   0.785  14.084  2.4471  1.2996  0.6203
 1956TIP3    H227360   5.875   0.908  14.130 -0.7504 -0.3627  0.1374
 1957TIP3   OH227361   3.767   5.642  13.352 -1.0060  0.5217 -0.3204
 1957TIP3    H127362   3.748   5.608  13.264 -1.5382  2.3068 -0.9410
 1957TIP3    H227363   3.835   5.584  13.386 -0.5387 -0.0068 -2.0586
 1958TIP3   OH227364   2.404   0.490  12.338  0.4084  0.1859 -0.1624
 1958TIP3    H127365   2.472   0.549  12.307 -0.1466  0.6591 -0.4931
 1958TIP3    H227366   2.322   0.532  12.312 -0.0321 -0.0539  0.7878
 1959TIP3   OH227367   6.331   0.932  11.005  0.4637  0.1007  0.1586
 1959TIP3    H127368   6.394   1.003  11.008  0.3918  0.1364  0.9206
 1959TIP3    H227369   6.314   0.910  11.097  2.2956 -2.5160 -0.0263
 1960TIP3   OH227370   2.937   4.430   0.486  0.3286 -0.0149 -0.3084
 1960TIP3    H127371   2.852   4.457   0.520  0.0857 -0.6635 -0.3819
 1960TIP3    H227372   2.981   4.388   0.561  0.3768 -0.1310 -0.4006
 1961TIP3   OH227373   6.263   6.157  13.869  0.2611 -0.5761  0.6201
 1961TIP3    H127374   6.180   6.205  13.863  0.5443 -0.1206  0.2264
 1961TIP3    H227375   6.330   6.225  13.875  0.9665 -0.6872 -3.2153
 1962TIP3   OH227376   4.899   1.993   4.898 -0.6649  0.5551  0.0625
 1962TIP3    H127377   4.976   1.969   4.949 -0.5031 -0.5929 -0.6765
 1962TIP3    H227378   4.865   1.910   4.865 -1.6996  1.1223 -0.3668
 1963TIP3   OH227379   5.001   1.206   2.201  0.3387  0.0418 -0.3398
 1963TIP3    H127380   5.016   1.300   2.195 -0.0404  0.1355  0.1144
 1963TIP3    H227381   5.089   1.168   2.201  0.6605  0.5737  2.3301
 1964TIP3   OH227382   6.793   6.446  16.036  0.0279  0.1241 -0.6556
 1964TIP3    H127383   6.706   6.486  16.034  0.7932  1.9380 -3.1831
 1964TIP3    H227384   6.853   6.519  16.051  1.1617 -1.2321  2.1861
 1965TIP3   OH227385   6.502   1.845   2.583 -0.5739 -0.7350  0.0150
 1965TIP3    H127386   6.541   1.866   2.498 -0.6644  2.1783  0.5711
 1965TIP3    H227387   6.408   1.855   2.568 -0.5615  0.3356  0.5206
 1966TIP3   OH227388   0.588   4.408   2.820  0.3273 -0.2177  0.1893
 1966TIP3    H127389   0.614   4.474   2.884  0.4053 -0.8780  0.8665
 1966TIP3    H227390   0.668   4.384   2.775  0.1843  0.6300 -0.5433
 1967TIP3   OH227391   6.068   6.716  15.684 -0.7333 -0.1798 -0.2564
 1967TIP3    H127392   6.039   6.670  15.606 -0.6184 -2.6406  1.0572
 1967TIP3    H227393   6.002   6.695  15.750 -0.6165  1.5208  0.4426
 1968TIP3   OH227394   5.273   0.611   0.281 -0.4913 -0.1668  0.0050
 1968TIP3    H127395   5.260   0.706   0.284 -0.7658 -0.1693 -0.8003
 1968TIP3    H227396   5.235   0.585   0.197  1.5072 -0.6962 -0.7842
 1969TIP3   OH227397   2.915   1.929   5.734  0.2515 -0.4244  0.3461
 1969TIP3    H127398   2.854   1.887   5.794 -0.5042  1.1727  0.7507
 1969TIP3    H227399   2.860   1.960   5.662  0.9996 -1.3624 -0.6684
 1970TIP3   OH227400   4.365   1.235   2.448  0.1748 -0.2163  0.0565
 1970TIP3    H127401   4.420   1.159   2.464 -0.1820 -0.2783  1.0726
 1970TIP3    H227402   4.363   1.282   2.532 -1.4399 -0.3135  0.1020
 1971TIP3   OH227403   3.562   2.820   5.447  0.1275  0.2067 -0.3653
 1971TIP3    H127404   3.548   2.759   5.520  0.5350 -0.2275 -0.6413
 1971TIP3    H227405   3.557   2.907   5.487  0.1009 -0.0199  0.1361
 1972TIP3   OH227406   6.127   3.761   2.044 -0.2405 -0.0491 -0.6170
 1972TIP3    H127407   6.159   3.683   2.089 -0.1022  0.7661  0.7902
 1972TIP3    H227408   6.040   3.776   2.082  0.2451  1.1637  0.0901
 1973TIP3   OH227409   0.864   3.174   4.621  0.1537  0.1543  0.2420
 1973TIP3    H127410   0.920   3.130   4.557 -1.3323  0.1961 -1.1527
 1973TIP3    H227411   0.793   3.212   4.569 -2.1642 -1.4107  2.0582
 1974TIP3   OH227412   4.667   1.568  14.217 -0.4427 -0.3258 -0.0507
 1974TIP3    H127413   4.575   1.588  14.235 -0.7433 -2.7182  1.5753
 1974TIP3    H227414   4.680   1.593  14.126 -2.0122  2.2412  0.3223
 1975TIP3   OH227415   5.191   4.225  14.097 -0.1442 -0.1476 -0.0559
 1975TIP3    H127416   5.273   4.210  14.144  0.4754  0.2345 -0.9974
 1975TIP3    H227417   5.144   4.288  14.152 -0.1013 -0.8447  0.8126
 1976TIP3   OH227418   0.082   2.958   5.280  0.3841  0.0084  0.5440
 1976TIP3    H127419   0.113   2.951   5.371  0.2993 -0.8505  0.5211
 1976TIP3    H227420   0.024   2.883   5.269 -0.1849  0.5250 -0.0057
 1977TIP3   OH227421   3.616   2.974  11.469 -0.2618 -0.0633  0.0060
 1977TIP3    H127422   3.699   3.013  11.498 -1.1721  2.1059 -0.0933
 1977TIP3    H227423   3.622   2.974  11.374 -0.4095  0.2411 -0.0073
 1978TIP3   OH227424   4.707   1.828   4.009  0.0516 -0.6405  0.5456
 1978TIP3    H127425   4.668   1.877   3.937  0.9950  0.7235  0.9143
 1978TIP3    H227426   4.737   1.895   4.070  0.9121 -1.7076  1.3366
 1979TIP3   OH227427   5.186   6.461   2.219  0.1934  0.7455  0.9195
 1979TIP3    H127428   5.266   6.502   2.186  0.0283  0.9481  0.7727
 1979TIP3    H227429   5.120   6.529   2.214  0.2346  0.8838  1.9692
 1980TIP3   OH227430   2.623   4.650   0.019  0.8290 -0.2856  0.0664
 1980TIP3    H127431   2.650   4.589  -0.050  0.8305 -1.9627  1.4655
 1980TIP3    H227432   2.697   4.654   0.078 -0.0098 -0.7438  1.1820
 1981TIP3   OH227433   2.912   0.243   6.433 -0.7748 -0.0873  0.2374
 1981TIP3    H127434   2.938   0.161   6.475 -0.1902  0.2998  0.6584
 1981TIP3    H227435   2.922   0.227   6.340 -1.4843 -0.7627  0.2676
 1982TIP3   OH227436   1.486   1.745  11.835  0.0258  0.3153 -0.1030
 1982TIP3    H127437   1.416   1.805  11.808  2.4257  2.4263 -2.1606
 1982TIP3    H227438   1.542   1.798  11.891 -1.0176 -1.9895  3.4269
 1983TIP3   OH227439   3.476   2.080   4.437 -0.1102 -0.0221  0.3063
 1983TIP3    H127440   3.463   2.103   4.345 -0.1127  0.4874  0.4278
 1983TIP3    H227441   3.408   2.016   4.456 -0.8877  0.7646  0.2736
 1984TIP3   OH227442   4.829   3.783  12.567 -0.0973 -0.1104  0.1634
 1984TIP3    H127443   4.924   3.791  12.562 -0.0272 -1.1722 -0.5359
 1984TIP3    H227444   4.812   3.689  12.553 -1.3525  0.3206 -1.5731
 1985TIP3   OH227445   2.051   4.463   3.883 -0.0263  0.5001  0.0282
 1985TIP3    H127446   2.064   4.428   3.971 -0.9720  0.2698  0.0853
 1985TIP3    H227447   2.005   4.393   3.836  0.8801  0.4339 -0.7930
 1986TIP3   OH227448   4.269   6.552   6.190 -0.3507  0.0060  0.8831
 1986TIP3    H127449   4.264   6.560   6.285  0.5465 -0.2000  0.9516
 1986TIP3    H227450   4.353   6.510   6.173 -0.6220 -0.2156  0.0104
 1987TIP3   OH227451   4.760   5.965   4.037 -0.4388 -0.0879  0.1518
 1987TIP3    H127452   4.785   5.918   4.116 -0.4648  0.8761  0.7414
 1987TIP3    H227453   4.828   5.943   3.973 -1.7235 -2.9405 -0.4348
 1988TIP3   OH227454   5.009   4.379   4.519 -0.1879  0.0121  0.3257
 1988TIP3    H127455   5.097   4.396   4.553  0.3741  0.8831 -1.4049
 1988TIP3    H227456   4.996   4.285   4.530  0.6458 -0.0041  1.2853
 1989TIP3   OH227457   0.157   1.480   0.700  0.3590  0.4320 -0.2422
 1989TIP3    H127458   0.221   1.473   0.628 -1.2109  0.0411 -1.6711
 1989TIP3    H227459   0.093   1.412   0.681  0.2363 -0.1094  1.9351
 1990TIP3   OH227460   5.735   1.132   2.674  0.0026  0.3071 -0.1541
 1990TIP3    H127461   5.665   1.189   2.644  1.0317  1.4295 -0.4721
 1990TIP3    H227462   5.785   1.185   2.736  0.4918 -0.5253  0.1792
 1991TIP3   OH227463   5.514   6.215   3.203  0.2834  0.1529  0.2716
 1991TIP3    H127464   5.517   6.195   3.297 -1.1062 -1.0370  0.0898
 1991TIP3    H227465   5.454   6.289   3.196  0.5936  0.4131  0.3406
 1992TIP3   OH227466   1.869   5.455  11.868  0.8647  0.9797 -0.2592
 1992TIP3    H127467   1.909   5.385  11.920  0.7537  0.9456 -0.2188
 1992TIP3    H227468   1.782   5.466  11.906 -0.0765 -0.5549 -1.8368
 1993TIP3   OH227469   5.290   5.452   1.221  0.1700  0.2153 -0.3267
 1993TIP3    H127470   5.341   5.371   1.216 -0.5439 -0.1758 -1.7938
 1993TIP3    H227471   5.235   5.440   1.299 -0.0968 -0.8269 -0.6565
 1994TIP3   OH227472   6.562   3.489   3.637  0.2180  0.4746 -0.1906
 1994TIP3    H127473   6.575   3.399   3.606  0.3536  0.3636  0.1814
 1994TIP3    H227474   6.470   3.492   3.664  0.2527  0.3987 -0.0585
 1995TIP3   OH227475   5.919   2.353  10.481  0.2993  0.0781 -0.2972
 1995TIP3    H127476   6.014   2.342  10.492  0.0654  0.2911  2.5901
 1995TIP3    H227477   5.911   2.412  10.406  2.3858 -0.4283 -1.0124
 1996TIP3   OH227478   3.018   1.690  15.619  0.0257 -0.7496  0.1955
 1996TIP3    H127479   3.034   1.760  15.682 -1.5329  0.3498 -0.5503
 1996TIP3    H227480   2.945   1.640  15.657 -0.3962 -0.5537 -0.3303
 1997TIP3   OH227481   6.193   6.473   3.299  0.6506  0.4598  0.2005
 1997TIP3    H127482   6.243   6.483   3.381  0.9861 -0.0106  0.0592
 1997TIP3    H227483   6.240   6.404   3.251  1.3330  1.7458 -1.0509
 1998TIP3   OH227484   0.148   4.667   6.190  0.0607 -0.1704 -0.1578
 1998TIP3    H127485   0.081   4.734   6.200  0.6161  0.5521 -1.1898
 1998TIP3    H227486   0.160   4.658   6.096  0.9080 -0.7961 -0.0029
 1999TIP3   OH227487   3.082   3.988  11.206  0.0110 -1.1028 -0.1097
 1999TIP3    H127488   3.151   4.048  11.236 -1.2068 -0.0547  0.7129
 1999TIP3    H227489   3.122   3.940  11.135  1.6517 -0.6330  0.4382
 2000TIP3   OH227490   3.557   5.761   4.896  0.5207  0.4139  0.1463
 2000TIP3    H127491   3.582   5.716   4.978  1.8125  1.1884  0.2088
 2000TIP3    H227492   3.629   5.821   4.880  0.1415  0.4719 -1.4337
 2001TIP3   OH227493   0.575   1.375  15.442 -0.4989 -0.7995 -0.3317
 2001TIP3    H127494   0.489   1.366  15.484 -0.7834  2.1079 -0.0792
 2001TIP3    H227495   0.636   1.385  15.515 -0.5525  1.0200 -0.4782
 2002TIP3   OH227496   1.406   5.826  11.171 -0.2955  0.5636 -0.0425
 2002TIP3    H127497   1.324   5.778  11.162  0.0744  0.0450 -0.7809
 2002TIP3    H227498   1.465   5.766  11.217 -0.1908  0.7542  0.0725
 2003TIP3   OH227499   5.890   0.937  16.024  0.3788  0.3750  0.0847
 2003TIP3    H127500   5.864   0.982  15.944  0.6591  1.3241  0.5190
 2003TIP3    H227501   5.942   0.862  15.994 -0.2923  0.1961 -0.6489
 2004TIP3   OH227502   1.891   3.216  14.699 -0.1212 -0.0044  1.2826
 2004TIP3    H127503   1.830   3.287  14.718  0.5299  0.8435  0.3264
 2004TIP3    H227504   1.978   3.256  14.710  0.3287  0.3504 -2.3206
 2005TIP3   OH227505   5.973   0.562   1.045 -0.3412 -0.9739  0.0267
 2005TIP3    H127506   5.966   0.505   1.122  0.2084  1.1046  1.7459
 2005TIP3    H227507   6.065   0.555   1.019 -0.0156 -0.1903  0.8753
 2006TIP3   OH227508   1.865   4.236  15.768 -0.2863 -0.1572  0.6557
 2006TIP3    H127509   1.943   4.191  15.736 -0.1140  0.0122  0.8300
 2006TIP3    H227510   1.802   4.231  15.696 -0.4574 -1.1267  0.8687
 2007TIP3   OH227511   3.544   3.559  13.970  0.5160  0.4464 -0.4750
 2007TIP3    H127512   3.515   3.559  13.879  1.0061 -0.5310 -0.6450
 2007TIP3    H227513   3.606   3.631  13.975  0.8269  0.2253 -1.0360
 2008TIP3   OH227514   1.617   3.517  12.582  0.0691 -0.7528  0.4936
 2008TIP3    H127515   1.595   3.607  12.556  0.6293  0.3694  3.5011
 2008TIP3    H227516   1.555   3.463  12.534  1.2870  0.8999 -3.3820
 2009TIP3   OH227517   4.373   4.279   2.619  0.1853  0.3933  0.3125
 2009TIP3    H127518   4.363   4.184   2.617  0.0379  0.4202 -0.7118
 2009TIP3    H227519   4.441   4.297   2.554 -1.4279  1.1639 -1.2514
 2010TIP3   OH227520   1.865   1.927  13.397  0.2522 -0.2574  0.5698
 2010TIP3    H127521   1.909   1.868  13.458  0.1843 -0.5230  0.3670
 2010TIP3    H227522   1.791   1.962  13.445 -0.2796 -1.0982  0.3842
 2011TIP3   OH227523   2.131   6.238  15.594 -0.8306  0.0915  0.2786
 2011TIP3    H127524   2.186   6.269  15.666  0.9427 -1.0350 -0.5285
 2011TIP3    H227525   2.068   6.179  15.636 -1.1674  1.0536  1.1658
 2012TIP3   OH227526   4.324   6.791  15.494 -0.3665 -0.1392 -0.2098
 2012TIP3    H127527   4.285   6.736  15.426 -1.3737  0.7230 -0.3635
 2012TIP3    H227528   4.380   6.732  15.544 -1.4398 -1.3226 -0.3524
 2013TIP3   OH227529   0.477   2.943  15.130  0.4102 -0.2612  0.3143
 2013TIP3    H127530   0.403   2.943  15.068  0.1900  0.0799  0.5721
 2013TIP3    H227531   0.500   3.035  15.139  1.1037 -0.3973 -0.0376
 2014TIP3   OH227532   0.287   1.393  15.506 -0.1155  0.5585  0.1382
 2014TIP3    H127533   0.231   1.434  15.572 -0.3726  0.1507  0.1852
 2014TIP3    H227534   0.239   1.313  15.481 -0.1495  0.8352 -0.7279
 2015TIP3   OH227535   3.600   5.518   0.619 -0.1110  0.5936  0.6904
 2015TIP3    H127536   3.691   5.491   0.621 -0.4447 -0.6210  0.3591
 2015TIP3    H227537   3.559   5.473   0.693 -0.8793 -0.6084 -0.4264
 2016TIP3   OH227538   0.575   3.037  10.546  0.1638  0.1170 -0.2999
 2016TIP3    H127539   0.552   3.090  10.622  0.5900 -0.1065 -0.0113
 2016TIP3    H227540   0.618   3.098  10.486  0.8423  0.0561  0.1197
 2017TIP3   OH227541   4.194   4.162  16.576 -0.4073  0.0498  0.5253
 2017TIP3    H127542   4.231   4.082  16.613 -2.0908 -0.6153  0.8991
 2017TIP3    H227543   4.238   4.174  16.492  0.0936 -1.0872  0.6197
 2018TIP3   OH227544   0.149   1.794  12.773  0.2178 -0.0819 -0.0734
 2018TIP3    H127545   0.235   1.753  12.766 -1.2731 -3.7185  0.6879
 2018TIP3    H227546   0.122   1.778  12.864 -1.1643  1.2311 -0.2106
 2019TIP3   OH227547   1.930   1.567   0.936 -0.1770  0.2520 -0.6093
 2019TIP3    H127548   1.881   1.600   1.011  0.2382  0.2096 -0.3138
 2019TIP3    H227549   1.873   1.582   0.861 -0.5075  0.4912 -0.3113
 2020TIP3   OH227550   5.790   3.964  12.709 -0.2858 -0.2294  0.2868
 2020TIP3    H127551   5.801   3.942  12.617 -1.0001 -1.3265  0.4413
 2020TIP3    H227552   5.717   3.910  12.738 -0.6628  0.7690  1.2830
 2021TIP3   OH227553   5.595   0.335  16.506  0.3571  0.5137  0.1699
 2021TIP3    H127554   5.682   0.346  16.467  0.4445  2.4989  0.7813
 2021TIP3    H227555   5.536   0.381  16.447 -0.7203 -2.6594 -1.4190
 2022TIP3   OH227556   2.758   0.450  14.349 -0.2249 -0.8100  0.6978
 2022TIP3    H127557   2.850   0.461  14.375  0.0900  1.6373 -1.0698
 2022TIP3    H227558   2.711   0.516  14.400 -0.2409  1.0437 -1.5709
 2023TIP3   OH227559   5.458   3.641  12.101  0.2833 -0.1151 -0.2257
 2023TIP3    H127560   5.441   3.572  12.166  0.9315 -0.0917 -0.0223
 2023TIP3    H227561   5.373   3.657  12.060  0.5100 -2.7827 -2.0061
 2024TIP3   OH227562   3.232   4.324   1.278 -0.0427 -0.1633 -0.2799
 2024TIP3    H127563   3.171   4.339   1.205  1.0015  1.6223 -0.8448
 2024TIP3    H227564   3.297   4.393   1.269  1.2348 -1.1171  1.2040
 2025TIP3   OH227565   5.329   1.252  13.008  0.2861 -0.7437 -0.4654
 2025TIP3    H127566   5.305   1.183  12.946 -3.4921 -0.7217  0.7128
 2025TIP3    H227567   5.352   1.204  13.088  2.4329 -0.6809 -0.9878
 2026TIP3   OH227568   5.831   2.251  13.929 -0.0415  0.3607 -0.6564
 2026TIP3    H127569   5.860   2.159  13.921  0.4992  0.5887 -1.4336
 2026TIP3    H227570   5.809   2.277  13.840 -3.1762  0.0720 -0.0591
 2027TIP3   OH227571   2.029   3.799  13.100 -0.1969  0.4469 -0.1748
 2027TIP3    H127572   2.011   3.886  13.065  0.2070 -0.5628 -3.2775
 2027TIP3    H227573   2.102   3.811  13.160  1.3934  2.0394 -2.2641
 2028TIP3   OH227574   6.807   4.781  12.668 -0.2473  0.0337  0.7279
 2028TIP3    H127575   6.900   4.800  12.656 -0.4509 -0.1469 -1.5062
 2028TIP3    H227576   6.803   4.731  12.750  1.6942 -0.4281  0.5865
 2029TIP3   OH227577   6.392   0.993   5.676  0.4826 -0.0962  0.6227
 2029TIP3    H127578   6.318   0.945   5.638 -0.4249 -0.0517  2.2437
 2029TIP3    H227579   6.468   0.940   5.655 -0.4114 -1.9916  1.8108
 2030TIP3   OH227580   4.567   5.026  16.097 -0.1997  0.3517 -0.9662
 2030TIP3    H127581   4.572   4.931  16.113  0.1210  0.3458 -1.0809
 2030TIP3    H227582   4.504   5.035  16.025 -3.5296  0.5635  1.7377
 2031TIP3   OH227583   3.262   1.740   5.891  0.4827 -0.0930 -0.5727
 2031TIP3    H127584   3.198   1.713   5.956  1.6296 -0.8677  0.2897
 2031TIP3    H227585   3.213   1.749   5.809 -0.8529  0.1984  0.2438
 2032TIP3   OH227586   0.238   0.311  15.726 -0.6270 -0.3282  0.0396
 2032TIP3    H127587   0.237   0.366  15.648 -1.4089 -1.8685 -1.1083
 2032TIP3    H227588   0.204   0.366  15.796  3.1831  2.1875  0.1945
 2033TIP3   OH227589   4.247   1.983   0.847  0.0398  0.1685  0.5281
 2033TIP3    H127590   4.309   2.010   0.780  0.3752  0.2630  0.8735
 2033TIP3    H227591   4.266   2.040   0.922 -0.6202  0.3627  0.5567
 2034TIP3   OH227592   4.720   2.132   2.053 -0.1354  0.1733 -0.9507
 2034TIP3    H127593   4.649   2.077   2.086  0.2737  0.2891  0.1601
 2034TIP3    H227594   4.719   2.118   1.958 -0.0524 -1.7256 -0.7054
 2035TIP3   OH227595   6.434   3.282  12.058  0.4400  0.3261  0.2827
 2035TIP3    H127596   6.339   3.284  12.049  0.5782 -0.9951 -2.4662
 2035TIP3    H227597   6.454   3.358  12.112 -2.0661  1.6980 -0.5419
 2036TIP3   OH227598   1.652   4.919   3.938  0.0944  0.4106 -0.0219
 2036TIP3    H127599   1.629   4.997   3.988  0.4759  0.4358  0.1208
 2036TIP3    H227600   1.697   4.953   3.861  0.8057  0.3074  0.3419
 2037TIP3   OH227601   2.320   1.098   6.266 -0.3709 -0.3374  0.1304
 2037TIP3    H127602   2.253   1.041   6.229 -0.2518 -0.3622 -0.0487
 2037TIP3    H227603   2.281   1.186   6.266 -0.4923 -0.3923  0.2511
 2038TIP3   OH227604   4.967   5.364  14.914  0.1019  0.0184 -0.1166
 2038TIP3    H127605   5.049   5.381  14.960 -0.9788  0.3015  1.8060
 2038TIP3    H227606   4.957   5.269  14.917 -0.6647  0.1102  1.6300
 2039TIP3   OH227607   4.868   1.286  16.447  0.4407  0.3379 -0.8758
 2039TIP3    H127608   4.958   1.264  16.472  0.4631  0.7893 -0.5465
 2039TIP3    H227609   4.839   1.346  16.516 -0.9538 -1.6983  0.4270
 2040TIP3   OH227610   3.756   4.429   0.892  0.2876 -0.3510 -0.2632
 2040TIP3    H127611   3.678   4.396   0.936  0.7185  1.2031  1.8397
 2040TIP3    H227612   3.819   4.357   0.899  0.4097 -0.1081  2.0045
 2041TIP3   OH227613   0.028   1.989  16.634 -0.1657  0.2420  0.5538
 2041TIP3    H127614  -0.067   1.977  16.641 -0.0792 -0.2058  0.9455
 2041TIP3    H227615   0.045   1.987  16.540 -0.2979 -1.5991  0.5433
 2042TIP3   OH227616   6.569   0.705   0.853 -0.2072 -0.2199  0.1573
 2042TIP3    H127617   6.527   0.725   0.770 -1.0275 -1.1500  0.3380
 2042TIP3    H227618   6.506   0.734   0.919  0.0551 -0.3182  0.4503
 2043TIP3   OH227619   3.513   1.663  14.042 -0.0888 -0.1224  0.0647
 2043TIP3    H127620   3.517   1.706  14.128 -0.4855 -0.7660  0.4134
 2043TIP3    H227621   3.430   1.693  14.005 -0.0255 -0.0220  0.0045
 2044TIP3   OH227622   3.194   2.968  16.840  0.4939 -0.2376 -0.5404
 2044TIP3    H127623   3.152   2.901  16.786  1.5287 -1.8568  0.5886
 2044TIP3    H227624   3.135   2.979  16.914 -0.2682  1.0354 -1.2845
 2045TIP3   OH227625   0.597   0.813   5.156  0.3385  0.0061 -0.8867
 2045TIP3    H127626   0.588   0.828   5.062 -0.5630  0.3179 -0.7602
 2045TIP3    H227627   0.508   0.822   5.190  0.6101 -0.4082 -0.0459
 2046TIP3   OH227628   5.739   5.243   0.072 -0.3458  0.3600  0.0062
 2046TIP3    H127629   5.714   5.259   0.163 -1.3054 -1.1317  0.0354
 2046TIP3    H227630   5.665   5.275   0.021 -1.1120 -1.4219 -0.0652
 2047TIP3   OH227631   3.094   3.095   1.858 -0.3542 -0.0434  0.3829
 2047TIP3    H127632   3.056   3.175   1.893 -0.7382 -0.1542  0.2212
 2047TIP3    H227633   3.119   3.117   1.769 -1.5391 -0.4298 -0.0658
 2048TIP3   OH227634   6.698   5.776   1.072 -0.6078 -0.4924 -0.0973
 2048TIP3    H127635   6.724   5.722   1.147 -0.2882 -1.7668 -1.0893
 2048TIP3    H227636   6.703   5.865   1.105  2.4752 -0.7987  0.5837
 2049TIP3   OH227637   2.206   6.033  11.569  0.4696 -0.0474 -0.0265
 2049TIP3    H127638   2.267   5.994  11.507 -0.7267 -0.1226 -1.1983
 2049TIP3    H227639   2.148   5.961  11.595  0.1441  0.2695  0.1452
 2050TIP3   OH227640   4.713   5.213   1.662  0.6000  0.3900 -0.5910
 2050TIP3    H127641   4.722   5.155   1.737  0.8145 -0.3022 -1.1513
 2050TIP3    H227642   4.769   5.288   1.682  1.1503 -0.0858 -0.3447
 2051TIP3   OH227643   4.825   0.064  12.482 -0.1330 -0.0893  0.5344
 2051TIP3    H127644   4.849   0.128  12.414 -2.2989  0.2025 -0.0115
 2051TIP3    H227645   4.859   0.102  12.563  2.9037 -0.6510 -0.3168
 2052TIP3   OH227646   3.835   1.863  16.030  0.1779  0.0541  0.5749
 2052TIP3    H127647   3.819   1.951  16.065 -0.1658  0.4379 -0.5053
 2052TIP3    H227648   3.750   1.835  15.996  0.3677 -0.5432  0.5901
 2053TIP3   OH227649   0.615   6.106  14.439  0.2616  0.3217 -0.5034
 2053TIP3    H127650   0.559   6.070  14.371 -1.8366  0.3886  1.0900
 2053TIP3    H227651   0.671   6.169  14.393 -2.5237  1.9527 -1.8909
 2054TIP3   OH227652   2.602   4.741  14.273 -0.2341 -0.1500 -0.1463
 2054TIP3    H127653   2.655   4.809  14.231 -0.1533  0.6311  1.1649
 2054TIP3    H227654   2.653   4.661  14.263 -0.2191  0.0037 -1.5082
 2055TIP3   OH227655   6.358   0.403  14.353  0.0827  0.4730 -0.3659
 2055TIP3    H127656   6.312   0.397  14.437  0.2640  1.0395 -0.2206
 2055TIP3    H227657   6.354   0.496  14.330  1.3775  0.5831 -0.2216
 2056TIP3   OH227658   5.801   0.875   2.130  0.0432  0.1095 -0.3945
 2056TIP3    H127659   5.776   0.887   2.039 -0.7124 -1.1692 -0.3820
 2056TIP3    H227660   5.734   0.922   2.180  0.5960  1.0175 -0.4921
 2057TIP3   OH227661   5.735   3.530   3.717  0.0305 -0.4479  0.0414
 2057TIP3    H127662   5.663   3.592   3.711  2.3617  2.3790 -0.7165
 2057TIP3    H227663   5.802   3.574   3.770  1.4611 -2.7292  0.3032
 2058TIP3   OH227664   3.474   5.209   5.958 -0.0051 -0.4288 -0.1651
 2058TIP3    H127665   3.433   5.168   6.034 -0.9844  1.5084  0.4218
 2058TIP3    H227666   3.427   5.171   5.883 -0.6503 -0.6316  0.3259
 2059TIP3   OH227667   2.683   5.467   5.971 -0.5746  0.1246  0.5358
 2059TIP3    H127668   2.776   5.468   5.993 -0.3686  1.1548 -0.3098
 2059TIP3    H227669   2.652   5.553   5.998 -1.0789  0.1199 -0.0260
 2060TIP3   OH227670   3.571   0.991   3.939 -0.0250  0.3113 -0.0493
 2060TIP3    H127671   3.648   1.015   3.887 -0.3811  0.5058 -0.4959
 2060TIP3    H227672   3.556   0.899   3.918 -0.9058  0.7078 -1.2717
 2061TIP3   OH227673   3.708   6.095  13.025  0.4650 -0.8572 -0.2811
 2061TIP3    H127674   3.652   6.131  12.956 -1.9539 -0.6051  1.6596
 2061TIP3    H227675   3.779   6.159  13.034 -0.3327  0.1907 -1.1205
 2062TIP3   OH227676   2.664   6.596  11.783 -0.0205 -0.3649 -0.0622
 2062TIP3    H127677   2.622   6.518  11.747 -1.7802  0.4707  0.0948
 2062TIP3    H227678   2.746   6.564  11.820  0.0908 -1.8502 -1.4934
 2063TIP3   OH227679   1.592   4.456   3.678 -0.3963 -0.1185 -0.2588
 2063TIP3    H127680   1.609   4.536   3.727  0.3360 -0.4436  0.0276
 2063TIP3    H227681   1.655   4.458   3.606  0.4183 -0.9870  0.4042
 2064TIP3   OH227682   3.621   3.332  15.887  0.6671  0.7353  0.1914
 2064TIP3    H127683   3.639   3.245  15.923  0.4416 -0.0290 -1.4852
 2064TIP3    H227684   3.658   3.392  15.952  0.1058 -0.5681  1.7855
 2065TIP3   OH227685   6.008   1.872   3.156  0.1191 -0.1229  0.4450
 2065TIP3    H127686   6.066   1.797   3.142  0.4402  0.3057 -0.5978
 2065TIP3    H227687   5.927   1.834   3.190  0.0169 -1.0362 -0.7721
 2066TIP3   OH227688   5.528   1.038  14.546 -0.4268  0.1340  0.1422
 2066TIP3    H127689   5.535   0.999  14.633 -0.5480  1.3932  0.7356
 2066TIP3    H227690   5.617   1.063  14.523 -0.2251 -1.1330 -0.5737
 2067TIP3   OH227691   1.094   6.029   4.096 -0.3427 -0.4896  0.3402
 2067TIP3    H127692   1.081   5.935   4.110  1.6829 -0.7435  0.9388
 2067TIP3    H227693   1.109   6.065   4.183  0.3460  0.1132 -0.0156
 2068TIP3   OH227694   1.271   0.994  11.177  0.3411 -0.0394 -0.2233
 2068TIP3    H127695   1.225   0.979  11.260 -0.6599 -0.4211 -0.8199
 2068TIP3    H227696   1.216   1.058  11.131  0.8377  0.0963 -0.6395
 2069TIP3   OH227697   1.562   3.724  16.224 -0.3647 -0.2227  0.2661
 2069TIP3    H127698   1.514   3.774  16.159 -1.4850  0.4218  1.5496
 2069TIP3    H227699   1.537   3.763  16.308 -0.1182 -1.9743  1.1995
 2070TIP3   OH227700   1.140   2.885  11.255 -0.4105  0.2116  0.4819
 2070TIP3    H127701   1.088   2.806  11.236 -0.0479  0.1558 -0.3340
 2070TIP3    H227702   1.160   2.921  11.168 -0.8271  1.3773  0.8512
 2071TIP3   OH227703   5.722   6.003  10.942 -0.2319 -0.1584  0.4083
 2071TIP3    H127704   5.768   5.922  10.925 -0.9045 -0.1839 -1.5350
 2071TIP3    H227705   5.653   6.006  10.875  0.2024  2.3073 -0.0279
 2072TIP3   OH227706   2.684   1.025   4.890  0.2881  0.3751  0.0544
 2072TIP3    H127707   2.663   1.058   4.977  0.4952 -0.3089  0.3713
 2072TIP3    H227708   2.671   0.931   4.896  1.4807  0.1708 -0.3018
 2073TIP3   OH227709   6.233   5.300   3.550 -0.8545 -0.5542  0.1778
 2073TIP3    H127710   6.174   5.294   3.475 -1.4986  0.0311  0.6248
 2073TIP3    H227711   6.248   5.394   3.562  0.4163 -0.6945 -0.1038
 2074TIP3   OH227712   6.199   3.622  11.566 -0.1457 -0.2186 -0.1062
 2074TIP3    H127713   6.196   3.711  11.531 -1.6192 -0.4616 -0.7197
 2074TIP3    H227714   6.108   3.591  11.560  0.0106 -1.1722  1.6776
 2075TIP3   OH227715   4.572   2.109  11.861  0.1516 -0.2031 -0.0173
 2075TIP3    H127716   4.645   2.101  11.799 -0.4255  1.4838 -0.9566
 2075TIP3    H227717   4.527   2.024  11.856  1.0221 -0.6391 -0.7201
 2076TIP3   OH227718   0.895   4.184  12.610  0.2535  0.0646 -0.1810
 2076TIP3    H127719   0.921   4.124  12.540  0.9231 -1.4133  1.2987
 2076TIP3    H227720   0.964   4.250  12.612  0.4054 -0.0758 -0.6753
 2077TIP3   OH227721   3.552   6.771   5.453 -0.1212  0.1319 -0.2797
 2077TIP3    H127722   3.522   6.824   5.380 -1.4169 -2.6778 -1.9739
 2077TIP3    H227723   3.472   6.748   5.501 -0.1096 -2.5340 -1.3281
 2078TIP3   OH227724   4.482   4.164   5.496  0.2574  0.1267 -0.0309
 2078TIP3    H127725   4.467   4.157   5.590  1.5750  1.7116  0.3417
 2078TIP3    H227726   4.513   4.077   5.471 -1.7077 -0.8371  0.6232
 2079TIP3   OH227727   3.824   0.996  16.178 -0.3938  0.2325  0.0782
 2079TIP3    H127728   3.909   1.033  16.205 -0.8542  0.7337  0.8813
 2079TIP3    H227729   3.778   1.069  16.137 -1.2652  0.5710  1.5711
 2080TIP3   OH227730   2.288   4.604  14.304 -0.1255  0.0427  0.4762
 2080TIP3    H127731   2.210   4.628  14.256  0.0145 -0.0474  0.2032
 2080TIP3    H227732   2.357   4.600  14.238  0.2543  0.7942  0.8147
 2081TIP3   OH227733   5.243   1.016  12.438  0.3497 -0.1359  0.3242
 2081TIP3    H127734   5.178   1.042  12.373  0.9935 -0.4575 -0.4625
 2081TIP3    H227735   5.200   0.947  12.489  0.4702 -1.1647 -0.9352
 2082TIP3   OH227736   1.773   2.703  13.572 -0.2034 -0.5958  0.6403
 2082TIP3    H127737   1.747   2.648  13.498 -1.1090 -0.7237  1.0515
 2082TIP3    H227738   1.700   2.763  13.586  0.6665  0.5830  0.3532
 2083TIP3   OH227739   6.504   6.246   0.169 -0.1155 -0.3342  1.1483
 2083TIP3    H127740   6.595   6.218   0.162 -0.5993 -1.4715 -1.6480
 2083TIP3    H227741   6.509   6.339   0.194  1.8249 -0.1571  0.2628
 2084TIP3   OH227742   1.497   4.229   2.119 -0.7799 -0.0823 -0.2072
 2084TIP3    H127743   1.560   4.163   2.148 -0.7599 -0.4298 -1.0334
 2084TIP3    H227744   1.537   4.268   2.041 -1.1094  0.4187 -0.1315
 2085TIP3   OH227745   4.201   0.986   1.389 -0.3363 -0.1316  0.1021
 2085TIP3    H127746   4.209   1.033   1.306 -1.5414  1.1987  0.6801
 2085TIP3    H227747   4.247   1.041   1.452 -0.6860 -0.3665  0.5667
 2086TIP3   OH227748   2.313   4.948  11.883 -0.6125 -0.6779  0.2010
 2086TIP3    H127749   2.266   5.031  11.871  1.4953  0.3893 -1.2838
 2086TIP3    H227750   2.285   4.893  11.810 -2.8048 -1.7881  1.7456
 2087TIP3   OH227751   4.315   6.563  12.559  0.0853  0.3369 -0.0225
 2087TIP3    H127752   4.285   6.653  12.561 -1.9694 -0.2936  0.8736
 2087TIP3    H227753   4.257   6.519  12.497 -0.1647 -0.7234  0.9178
 2088TIP3   OH227754   2.087   6.362   2.717  0.0162  0.5065  1.0361
 2088TIP3    H127755   2.156   6.360   2.650  0.1053  0.2700  1.1353
 2088TIP3    H227756   2.064   6.270   2.731 -2.7629  0.6731 -1.4919
 2089TIP3   OH227757   4.393   0.073  14.322  0.1576  0.2768  0.3029
 2089TIP3    H127758   4.424  -0.001  14.269 -0.7913  0.2574 -0.2408
 2089TIP3    H227759   4.427   0.054  14.410 -1.7253 -1.9098  0.6685
 2090TIP3   OH227760   3.779   1.121   2.958  0.2816 -0.0155  0.1543
 2090TIP3    H127761   3.772   1.156   2.869 -0.6847 -0.3920  0.0701
 2090TIP3    H227762   3.860   1.070   2.957  1.2135  1.4219  0.0179
 2091TIP3   OH227763   6.582   0.000   0.820 -0.2185 -0.2400  0.1232
 2091TIP3    H127764   6.616  -0.089   0.826 -1.2179 -0.5829  0.9095
 2091TIP3    H227765   6.517  -0.004   0.750  0.3940  0.1050 -0.4797
 2092TIP3   OH227766   0.113   2.587  13.672 -0.5852  0.2522 -0.2410
 2092TIP3    H127767   0.029   2.617  13.636 -1.1855  1.3665  1.9278
 2092TIP3    H227768   0.171   2.663  13.666 -1.0195  0.8331  1.9666
 2093TIP3   OH227769   0.446   5.606  14.609  0.0519 -0.7730  0.4112
 2093TIP3    H127770   0.439   5.589  14.703  0.0146  2.3908  1.0819
 2093TIP3    H227771   0.364   5.648  14.586  1.3732  1.6890 -0.1816
 2094TIP3   OH227772   0.197   6.309  16.046  0.6906 -0.2311  0.3937
 2094TIP3    H127773   0.235   6.346  15.966 -0.6258 -3.1391 -1.7888
 2094TIP3    H227774   0.103   6.328  16.038  0.6826  0.4268  1.8760
 2095TIP3   OH227775   0.166   1.869  10.990  0.3082 -0.1078 -0.1454
 2095TIP3    H127776   0.180   1.951  10.943  0.6821  0.4158  0.8462
 2095TIP3    H227777   0.230   1.808  10.952 -1.6365 -0.7637 -2.6615
 2096TIP3   OH227778   1.064   2.447  11.485  0.5432  0.1905 -0.6642
 2096TIP3    H127779   1.002   2.484  11.547  0.1423  0.4008 -1.1808
 2096TIP3    H227780   1.149   2.480  11.513  0.3143  0.6300 -0.4859
 2097TIP3   OH227781   3.794   4.399   4.405  0.4462 -0.1436  0.5431
 2097TIP3    H127782   3.855   4.463   4.444 -0.5746  0.2169  1.5988
 2097TIP3    H227783   3.745   4.450   4.340  1.1951 -0.4211 -0.2660
 2098TIP3   OH227784   4.471   1.380  13.945 -0.5145 -0.0837 -0.4761
 2098TIP3    H127785   4.376   1.379  13.944 -0.5562 -1.8327  0.4663
 2098TIP3    H227786   4.495   1.325  14.021  1.2394  2.5462  1.0564
 2099TIP3   OH227787   3.542   2.639   0.852 -0.1475 -0.0889 -0.3830
 2099TIP3    H127788   3.517   2.723   0.890 -1.0006 -0.0561 -0.9750
 2099TIP3    H227789   3.622   2.658   0.803  0.7081 -0.0425  0.9993
 2100TIP3   OH227790   3.583   1.892  10.373 -0.4601  0.0890 -0.1852
 2100TIP3    H127791   3.563   1.832  10.301  1.0373 -0.4125 -0.2069
 2100TIP3    H227792   3.594   1.836  10.449  0.9856  0.2874 -0.2123
 2101TIP3   OH227793   6.113   6.787  14.457 -0.0474 -0.9543  0.7864
 2101TIP3    H127794   6.136   6.839  14.380 -0.6082  0.7377  1.7113
 2101TIP3    H227795   6.149   6.700  14.439 -1.2832 -0.9880 -1.9297
 2102TIP3   OH227796   1.355   5.399  15.662 -0.2286  0.0568  0.5154
 2102TIP3    H127797   1.371   5.334  15.594  1.6839 -0.8696  1.7583
 2102TIP3    H227798   1.265   5.383  15.691  0.3845 -2.5536  1.2526
 2103TIP3   OH227799   3.839   4.019  13.780 -0.7595  0.5474  0.0266
 2103TIP3    H127800   3.892   3.951  13.739  0.4967  0.6356  1.4234
 2103TIP3    H227801   3.893   4.052  13.852 -1.8324  2.1745  0.1538
 2104TIP3   OH227802   1.049   1.216   5.787 -0.2464  0.4036 -0.6512
 2104TIP3    H127803   0.960   1.210   5.821 -0.2557 -0.4783 -0.8214
 2104TIP3    H227804   1.086   1.293   5.831  0.0147 -1.1186  1.9492
 2105TIP3   OH227805   6.754   4.513  15.113  0.1586 -0.3398  0.2407
 2105TIP3    H127806   6.667   4.526  15.151  0.6677  0.6681  1.1560
 2105TIP3    H227807   6.765   4.587  15.053  1.7816  1.8469  2.9553
 2106TIP3   OH227808   4.651   0.137   2.291  0.1222  1.1010 -0.0844
 2106TIP3    H127809   4.632   0.121   2.199  0.0289  0.1001  0.0962
 2106TIP3    H227810   4.729   0.191   2.291 -0.7382  2.4047 -0.7732
 2107TIP3   OH227811   6.340   3.043  14.206  0.5968 -0.4211 -0.6092
 2107TIP3    H127812   6.288   2.962  14.209  1.1885 -0.7849  0.6338
 2107TIP3    H227813   6.413   3.027  14.266 -0.0002  1.5228  0.7414
 2108TIP3   OH227814   1.935   3.890  12.190  0.4705 -0.4065  0.3780
 2108TIP3    H127815   1.863   3.872  12.129  1.1072  0.9655 -0.8241
 2108TIP3    H227816   1.893   3.933  12.265 -0.0622 -0.4208  0.0893
 2109TIP3   OH227817   0.126   3.447  11.718  0.7299  0.1309  0.0182
 2109TIP3    H127818   0.198   3.415  11.772  0.4226 -1.2753 -0.3603
 2109TIP3    H227819   0.068   3.493  11.779  1.9526  1.3395  0.3107
 2110TIP3   OH227820   6.087   1.685  12.992  0.2795 -0.5039  0.8319
 2110TIP3    H127821   6.169   1.651  12.955  0.9811  1.6256  0.3053
 2110TIP3    H227822   6.111   1.713  13.080 -0.2672 -1.2138  1.2183
 2111TIP3   OH227823   1.187   3.502   3.644  0.2138  0.4800  0.1019
 2111TIP3    H127824   1.255   3.563   3.673 -1.4601  1.4317  2.3856
 2111TIP3    H227825   1.122   3.504   3.715 -0.7751 -2.6501 -0.5891
 2112TIP3   OH227826   1.159   3.698  10.678  0.2592  0.1547 -0.0391
 2112TIP3    H127827   1.122   3.654  10.602  0.8370 -0.7825  0.2068
 2112TIP3    H227828   1.240   3.651  10.697  0.0485  0.2546  1.2542
 2113TIP3   OH227829   2.473   0.288  13.362 -0.0721  0.2813  0.1800
 2113TIP3    H127830   2.506   0.251  13.280  0.3122  1.8956 -0.4314
 2113TIP3    H227831   2.380   0.267  13.361  0.0850 -0.4457 -0.2502
 2114TIP3   OH227832   4.712   6.475  16.938  0.4805  0.1383 -0.5654
 2114TIP3    H127833   4.632   6.528  16.936  0.7717  0.5760 -0.7228
 2114TIP3    H227834   4.739   6.469  16.846  1.1730  0.8229 -0.4051
 2115TIP3   OH227835   0.342   2.807  16.091 -0.2430  0.3807  0.5058
 2115TIP3    H127836   0.416   2.855  16.130  0.2065 -1.0857  1.5235
 2115TIP3    H227837   0.302   2.761  16.165 -1.3277  0.0502 -0.2724
 2116TIP3   OH227838   3.079   0.015  13.683 -0.3161 -0.2737  0.2620
 2116TIP3    H127839   3.173   0.008  13.701 -0.3873  0.5291  1.0115
 2116TIP3    H227840   3.046   0.076  13.749 -1.1916  0.2123 -0.5882
 2117TIP3   OH227841   6.495   3.120   0.683 -0.3312 -0.3280  0.0056
 2117TIP3    H127842   6.525   3.049   0.740 -1.1920  0.9390  2.1728
 2117TIP3    H227843   6.571   3.178   0.676 -0.7727  0.5366  1.6561
 2118TIP3   OH227844   1.585   2.857  15.117  0.2530 -0.3836 -0.0797
 2118TIP3    H127845   1.544   2.870  15.202  2.2724  1.2504  0.7506
 2118TIP3    H227846   1.513   2.838  15.058 -1.5745  1.2719  1.4693
 2119TIP3   OH227847   4.258   6.670   2.458  0.4985 -0.0102  0.4554
 2119TIP3    H127848   4.336   6.636   2.503  1.2572 -0.1548 -0.9109
 2119TIP3    H227849   4.227   6.741   2.514  0.8956 -0.7387  1.6315
 2120TIP3   OH227850   1.898   2.994  16.740  0.0343 -0.1019  0.1937
 2120TIP3    H127851   1.917   3.077  16.782  1.0351  0.1834 -0.7754
 2120TIP3    H227852   1.947   2.996  16.658  0.1952 -1.7017  0.2044
 2121TIP3   OH227853   1.859   2.334   5.474 -0.0942  0.5640 -0.1758
 2121TIP3    H127854   1.939   2.383   5.455 -1.1200  1.7391 -1.8486
 2121TIP3    H227855   1.847   2.277   5.398 -0.2637 -0.4090  0.5709
 2122TIP3   OH227856   6.215   5.440  11.431 -0.3517  0.6517  0.6546
 2122TIP3    H127857   6.306   5.425  11.457  0.1789  1.6246 -0.5241
 2122TIP3    H227858   6.176   5.485  11.506 -0.5269 -1.6983  2.0754
 2123TIP3   OH227859   0.243   1.003   0.277 -0.1695 -0.0061 -0.1890
 2123TIP3    H127860   0.254   1.061   0.353 -0.5981 -0.8759  0.5554
 2123TIP3    H227861   0.271   1.056   0.202  1.3694  0.4809  0.6998
 2124TIP3   OH227862   1.067   4.748   1.085  0.3095 -0.3190  0.1635
 2124TIP3    H127863   0.985   4.704   1.105  0.4744 -1.2679 -1.1009
 2124TIP3    H227864   1.128   4.677   1.063  1.2332  0.4136  0.2573
 2125TIP3   OH227865   4.434   1.836  14.533 -0.2026 -0.2481  0.0342
 2125TIP3    H127866   4.427   1.862  14.625 -1.1275 -0.7249  0.1150
 2125TIP3    H227867   4.427   1.918  14.485 -2.2815 -0.2048  0.3202
 2126TIP3   OH227868   5.379   3.777  17.085  0.1753  0.0445 -0.8479
 2126TIP3    H127869   5.389   3.713  17.015 -0.4466 -0.2109 -0.7105
 2126TIP3    H227870   5.382   3.726  17.166  0.0394  0.2322 -0.7224
 2127TIP3   OH227871   5.818   0.237   2.698 -0.2324 -0.6614  0.2201
 2127TIP3    H127872   5.811   0.177   2.624  0.7380 -1.1714  0.5216
 2127TIP3    H227873   5.844   0.181   2.772 -0.9382 -0.1254  0.8878
 2128TIP3   OH227874   2.391   6.610  15.451  0.3463 -0.4229  0.1368
 2128TIP3    H127875   2.419   6.551  15.381  0.7732 -1.2115  0.9490
 2128TIP3    H227876   2.428   6.695  15.427  2.0980 -1.0845  0.3425
 2129TIP3   OH227877   6.464   2.777  13.337  0.0390 -0.1192  0.1858
 2129TIP3    H127878   6.419   2.840  13.394 -0.5245  0.6224 -1.0521
 2129TIP3    H227879   6.394   2.720  13.305  0.2757 -0.1764 -0.2304
 2130TIP3   OH227880   0.411   4.159   0.107 -0.1928 -0.3534  0.7199
 2130TIP3    H127881   0.370   4.096   0.166 -0.0196 -0.5436  0.6364
 2130TIP3    H227882   0.464   4.106   0.047 -0.4723 -0.1771  0.3068
 2131TIP3   OH227883   0.566   2.059  15.113 -0.0702  0.0222 -0.5220
 2131TIP3    H127884   0.549   1.986  15.172  0.0833 -1.4070 -2.1524
 2131TIP3    H227885   0.481   2.101  15.101  0.1082  1.0717  1.5829
 2132TIP3   OH227886   0.894   5.748  11.663 -0.7920 -0.3278 -0.9042
 2132TIP3    H127887   0.974   5.788  11.697 -1.4515 -0.1932  0.5593
 2132TIP3    H227888   0.884   5.667  11.713 -1.1753 -0.7173 -1.5995
 2133TIP3   OH227889   5.582   3.596  13.136 -0.2609 -0.1774 -0.1216
 2133TIP3    H127890   5.529   3.544  13.076 -1.1965  1.3017 -0.6270
 2133TIP3    H227891   5.606   3.536  13.206  2.1623 -2.4217 -2.6443
 2134TIP3   OH227892   4.857   1.549  12.205  0.0712  0.0108  1.2081
 2134TIP3    H127893   4.946   1.548  12.241  0.0246  1.5703  1.4379
 2134TIP3    H227894   4.833   1.641  12.204 -1.2874 -0.3289  0.4779
 2135TIP3   OH227895   0.941   6.380  15.226 -0.2093  0.4487  0.1225
 2135TIP3    H127896   0.976   6.425  15.150  0.2783  1.6182  1.0077
 2135TIP3    H227897   0.986   6.420  15.301 -0.9823 -0.3652  1.0594
 2136TIP3   OH227898   5.709   1.734  14.973 -0.3850 -0.0728  0.0274
 2136TIP3    H127899   5.663   1.795  15.030 -0.6626  0.2605 -0.5345
 2136TIP3    H227900   5.686   1.647  15.006  1.5221  0.1137  2.0041
 2137TIP3   OH227901   5.500   6.850   2.722  0.0191 -0.0302 -0.1257
 2137TIP3    H127902   5.501   6.758   2.747 -1.6426  0.4519  2.0564
 2137TIP3    H227903   5.535   6.851   2.633  1.7590 -2.5180  0.4319
 2138TIP3   OH227904   1.909   2.242  14.146  0.2533  0.5816 -0.1158
 2138TIP3    H127905   1.848   2.223  14.217  1.5183 -2.7223  0.2248
 2138TIP3    H227906   1.853   2.249  14.068 -0.6757 -2.9370  0.0881
 2139TIP3   OH227907   1.632   6.334  16.156  0.2303  0.1227 -0.2198
 2139TIP3    H127908   1.639   6.429  16.157 -1.1326  0.2595  1.0789
 2139TIP3    H227909   1.568   6.315  16.086  1.1191  0.0775 -1.0389
 2140TIP3   OH227910   4.968   1.893  13.277  0.2625 -0.0679  0.0695
 2140TIP3    H127911   4.946   1.908  13.369  1.9218  2.2863  0.1713
 2140TIP3    H227912   5.058   1.860  13.280 -0.3116 -1.7976 -0.6731
 2141TIP3   OH227913   3.929   6.043   5.274 -0.0334 -0.1457 -0.1309
 2141TIP3    H127914   3.942   6.096   5.196  0.3560  1.0118  0.6927
 2141TIP3    H227915   3.864   6.091   5.325 -1.8594 -1.9326 -0.6468
 2142TIP3   OH227916   5.164   6.502   3.607  0.2135 -0.4579  0.1349
 2142TIP3    H127917   5.081   6.505   3.655 -0.1136 -1.0101 -0.3781
 2142TIP3    H227918   5.141   6.530   3.518  0.3911 -1.5246 -0.2520
 2143TIP3   OH227919   2.454   5.053   5.135 -0.2040 -0.3180  0.1478
 2143TIP3    H127920   2.404   5.006   5.203 -0.7143  0.5753  0.4095
 2143TIP3    H227921   2.433   5.008   5.054 -1.5593  0.1153  0.2391
 2144TIP3   OH227922   4.896   5.011   1.429  0.3760  0.0208  0.2009
 2144TIP3    H127923   4.939   5.088   1.467 -0.9930  0.8158  0.2055
 2144TIP3    H227924   4.947   4.992   1.351  0.2806  1.4549 -0.2473
 2145TIP3   OH227925   3.459   3.873  16.479 -0.2086  0.3116  0.5708
 2145TIP3    H127926   3.370   3.861  16.510  0.7408 -2.0850  2.8268
 2145TIP3    H227927   3.476   3.796  16.424  0.4973  0.5951  0.3757
 2146TIP3   OH227928   4.907   4.809   0.475  0.7441 -0.1374  0.2383
 2146TIP3    H127929   4.877   4.781   0.562  2.0989  0.2428  0.8610
 2146TIP3    H227930   4.932   4.900   0.486 -1.5143  0.7421 -1.2386
 2147TIP3   OH227931   4.825   1.768  11.598  0.3044 -0.5778  0.1898
 2147TIP3    H127932   4.897   1.706  11.611  1.1760  0.3233 -0.1796
 2147TIP3    H227933   4.838   1.835  11.665  1.0945  0.7190 -1.1997
 2148TIP3   OH227934   2.069   1.038   2.741 -0.5869 -0.5163  0.3943
 2148TIP3    H127935   1.975   1.044   2.753 -0.4386 -0.7136  1.8960
 2148TIP3    H227936   2.081   0.967   2.678 -1.4428 -0.3463  0.0353
 2149TIP3   OH227937   2.942   6.769   2.533  0.9048 -0.3949  0.2541
 2149TIP3    H127938   2.933   6.732   2.445 -0.1013  0.3374  0.0356
 2149TIP3    H227939   2.853   6.793   2.558  1.2302 -0.2827  1.3392
 2150TIP3   OH227940   1.818   6.813   5.431  0.4323 -0.3818 -0.0308
 2150TIP3    H127941   1.882   6.806   5.502  0.1491  0.0559  0.2765
 2150TIP3    H227942   1.853   6.758   5.361 -0.0080 -2.0413  0.9829
 2151TIP3   OH227943   2.340   0.258  15.167  0.4012 -0.6494  0.3673
 2151TIP3    H127944   2.260   0.208  15.149 -0.2118 -0.9456  3.3785
 2151TIP3    H227945   2.310   0.329  15.225  2.3475 -1.0318  1.9436
 2152TIP3   OH227946   5.816   3.461   1.027  0.1415 -0.4346  0.2242
 2152TIP3    H127947   5.796   3.431   1.116 -0.6129  2.5926  1.1906
 2152TIP3    H227948   5.732   3.493   0.993  0.7881  0.1443 -0.8756
 2153TIP3   OH227949   0.689   6.079   5.304 -0.5071  0.2368  0.5383
 2153TIP3    H127950   0.627   6.146   5.331 -1.8969 -1.1471  0.9008
 2153TIP3    H227951   0.656   5.998   5.342  0.5374 -0.8513 -0.7485
 2154TIP3   OH227952   4.431   3.394  12.264 -0.5385 -0.0321 -0.1120
 2154TIP3    H127953   4.445   3.437  12.180  0.7588 -0.6877 -0.2504
 2154TIP3    H227954   4.356   3.336  12.249 -1.8929  1.6227 -0.1009
 2155TIP3   OH227955   2.194   2.208  13.523  0.0875  0.3221  0.0658
 2155TIP3    H127956   2.133   2.168  13.461  1.6255 -0.7088 -0.8454
 2155TIP3    H227957   2.207   2.297  13.490  0.2855  0.0307 -0.6632
 2156TIP3   OH227958   0.578   1.847  15.812 -0.0930  0.2008 -0.5087
 2156TIP3    H127959   0.567   1.793  15.890  1.1535  0.4238 -0.1598
 2156TIP3    H227960   0.625   1.925  15.842 -0.8111  0.9354 -1.2303
 2157TIP3   OH227961   6.476   5.550  14.550  0.5790 -0.4195  0.5151
 2157TIP3    H127962   6.548   5.576  14.607  1.5754  0.1030 -0.9304
 2157TIP3    H227963   6.513   5.554  14.461 -0.9449 -1.1110 -0.1842
 2158TIP3   OH227964   3.349   5.361  12.504 -0.4644  0.4386 -0.9161
 2158TIP3    H127965   3.263   5.358  12.546  0.0816 -1.7411  0.1772
 2158TIP3    H227966   3.359   5.276  12.462  0.9943  0.8197 -1.4084
 2159TIP3   OH227967   4.395   0.586   4.926 -0.5805 -0.2490  0.6109
 2159TIP3    H127968   4.428   0.593   4.836 -0.4455 -0.5950  0.6328
 2159TIP3    H227969   4.449   0.648   4.976  0.5045 -1.2801  0.7706
 2160TIP3   OH227970   3.386   0.144  16.713  0.2259  0.3119 -0.2036
 2160TIP3    H127971   3.459   0.091  16.682 -2.2720 -2.8680 -1.2479
 2160TIP3    H227972   3.381   0.218  16.653  1.5305 -0.3235 -1.1263
 2161TIP3   OH227973   1.616   2.472   5.527  0.1082  0.5159  0.4884
 2161TIP3    H127974   1.703   2.438   5.508 -0.8225 -1.0953 -1.2737
 2161TIP3    H227975   1.615   2.558   5.485  0.6294  0.2447 -0.1041
 2162TIP3   OH227976   6.520   4.558   2.902  0.1116 -0.1154  0.0999
 2162TIP3    H127977   6.576   4.482   2.913 -0.1855 -0.1386  1.5898
 2162TIP3    H227978   6.441   4.538   2.952 -0.0988  1.0329  0.2662
 2163TIP3   OH227979   3.710   4.821   2.921 -0.1697 -0.0622  0.3830
 2163TIP3    H127980   3.665   4.850   2.841 -3.1487 -1.6055  1.3151
 2163TIP3    H227981   3.750   4.900   2.956 -0.7923  1.1207 -1.4202
 2164TIP3   OH227982   2.931   4.195  16.926  0.5872  0.3127 -0.0067
 2164TIP3    H127983   3.001   4.152  16.877 -1.2991 -0.9755 -1.7578
 2164TIP3    H227984   2.908   4.272  16.874  0.6813  0.7239  0.5504
 2165TIP3   OH227985   4.282   4.913  13.908 -0.4400  0.0928  0.3961
 2165TIP3    H127986   4.325   4.994  13.934 -1.8250  0.4342  1.7881
 2165TIP3    H227987   4.345   4.844  13.931 -0.0628  0.6491  1.0760
 2166TIP3   OH227988   0.489   1.085  16.155 -0.0299  0.0066 -0.1637
 2166TIP3    H127989   0.430   1.025  16.110  0.5092  0.1439 -1.0823
 2166TIP3    H227990   0.468   1.171  16.119 -0.9169  0.4234  1.2695
 2167TIP3   OH227991   4.974   1.971  12.486  0.1380  0.0468 -0.0456
 2167TIP3    H127992   5.050   2.029  12.473 -1.0118  1.2751 -1.8021
 2167TIP3    H227993   4.963   1.927  12.402  0.0447 -1.6201  0.8000
 2168TIP3   OH227994   2.135   2.462  16.855 -0.3009 -0.0249 -0.9835
 2168TIP3    H127995   2.226   2.430  16.852 -0.0317  0.6461 -0.2571
 2168TIP3    H227996   2.135   2.538  16.796  0.2635  1.5179  0.8992
 2169TIP3   OH227997   6.829   3.757   4.456 -0.2336  0.0988  0.1032
 2169TIP3    H127998   6.924   3.763   4.447 -0.1480 -0.6544  0.3784
 2169TIP3    H227999   6.804   3.833   4.508  0.4741 -0.7222  1.7216
 2170TIP3   OH228000   2.048   6.382  14.669 -0.4874  0.6854  0.0085
 2170TIP3    H128001   2.028   6.337  14.751  0.8817  1.3644  0.7335
 2170TIP3    H228002   1.984   6.454  14.665  0.4399  1.6307  1.3103
 2171TIP3   OH228003   0.950   5.621  15.009  0.2022  0.1583 -0.6840
 2171TIP3    H128004   0.972   5.561  15.081  0.2703  1.2839  0.2621
 2171TIP3    H228005   1.033   5.658  14.982  0.1759 -0.2638 -1.3606
 2172TIP3   OH228006   5.706   5.750  11.894  0.1386 -0.4469  0.0032
 2172TIP3    H128007   5.756   5.831  11.894 -2.0831  1.0192 -0.2558
 2172TIP3    H228008   5.680   5.738  11.802 -2.8338  0.8344  0.5356
 2173TIP3   OH228009   2.663   0.183  15.884 -0.5730  0.0205 -0.8089
 2173TIP3    H128010   2.635   0.121  15.952  3.0253 -0.3464  0.5446
 2173TIP3    H228011   2.655   0.134  15.802  1.0280 -1.9065  0.1065
 2174TIP3   OH228012   1.325   4.067   5.285 -0.1574  0.2167  0.1732
 2174TIP3    H128013   1.252   4.128   5.271  0.3115  0.4580 -1.3427
 2174TIP3    H228014   1.391   4.094   5.222  1.0990 -0.2578  1.2553
 2175TIP3   OH228015   3.770   5.091   2.998 -0.6125 -0.0197 -0.9643
 2175TIP3    H128016   3.852   5.061   2.959  0.5004 -0.9650  1.8534
 2175TIP3    H228017   3.792   5.175   3.038 -1.2570  0.1217 -0.8983
 2176TIP3   OH228018   3.424   1.246  10.662 -0.6260 -0.0253 -0.0785
 2176TIP3    H128019   3.422   1.341  10.661 -2.6377  0.1411  3.6842
 2176TIP3    H228020   3.360   1.220  10.596  1.2407  1.0263 -2.4713
 2177TIP3   OH228021   0.042   5.205  15.010 -0.8215 -0.1712 -0.3204
 2177TIP3    H128022   0.113   5.259  15.045  0.5426 -3.4281  2.5582
 2177TIP3    H228023   0.070   5.182  14.922 -1.1322  3.0439 -1.3732
 2178TIP3   OH228024   3.911   4.315  14.644 -0.7693 -0.3345  0.0776
 2178TIP3    H128025   3.906   4.228  14.685 -1.9978  0.2779  1.3477
 2178TIP3    H228026   3.857   4.308  14.565 -3.4757 -0.0064  1.7457
 2179TIP3   OH228027   5.793   3.200  10.784 -0.3873 -0.1825 -0.0873
 2179TIP3    H128028   5.759   3.132  10.725 -0.8820 -0.2692  0.2897
 2179TIP3    H228029   5.727   3.207  10.853 -1.6684  2.5056 -1.4456
 2180TIP3   OH228030   5.242   5.872  16.409 -0.1545 -0.3368  0.4107
 2180TIP3    H128031   5.326   5.873  16.453 -0.3689 -0.8794  0.8486
 2180TIP3    H228032   5.241   5.952  16.356  0.4509 -0.1108  0.7359
 2181TIP3   OH228033   4.738   0.043  12.171  0.2374 -0.8574 -0.3672
 2181TIP3    H128034   4.689  -0.011  12.108 -1.0962 -0.4396  0.2615
 2181TIP3    H228035   4.791  -0.020  12.220  2.1398 -1.0781 -2.5779
 2182TIP3   OH228036   0.046   1.625  14.670 -0.0118  0.1834 -0.1279
 2182TIP3    H128037   0.075   1.544  14.627  0.7525  0.6854 -0.5824
 2182TIP3    H228038   0.040   1.689  14.599 -1.9129  0.2138  0.0081
 2183TIP3   OH228039   6.255   1.605   4.480 -1.0750 -0.0806  0.0653
 2183TIP3    H128040   6.187   1.667   4.506  0.4181  1.2539  1.0165
 2183TIP3    H228041   6.312   1.598   4.557  0.3195 -0.4903 -0.9555
 2184TIP3   OH228042   5.785   5.770   3.725  0.2940  0.1024 -0.2949
 2184TIP3    H128043   5.742   5.854   3.710  1.0625  0.6600  0.4770
 2184TIP3    H228044   5.798   5.766   3.820  1.6475 -0.1781 -0.4712
 2185TIP3   OH228045   2.129   1.015   1.328 -0.1524  0.1148 -0.0982
 2185TIP3    H128046   2.049   1.060   1.354 -0.4955  0.3765 -1.5192
 2185TIP3    H228047   2.105   0.968   1.248  0.8665 -0.5678 -0.0184
 2186TIP3   OH228048   5.671   2.582   0.558 -0.1548  0.4668  0.2491
 2186TIP3    H128049   5.748   2.639   0.556 -0.3555  0.7602  0.9580
 2186TIP3    H228050   5.678   2.531   0.477  0.1598  1.3139 -0.2704
 2187TIP3   OH228051   2.273   6.778   5.188 -0.0718  0.2995 -0.1122
 2187TIP3    H128052   2.367   6.768   5.204 -0.4101 -0.5439  1.4936
 2187TIP3    H228053   2.233   6.769   5.274 -1.6335  0.6227 -0.7840
 2188TIP3   OH228054   5.102   5.325  16.170 -0.2498 -0.0887 -0.1683
 2188TIP3    H128055   5.169   5.391  16.186 -0.4964  0.0290  0.3918
 2188TIP3    H228056   5.056   5.356  16.092  0.8986 -0.6183 -1.0850
 2189TIP3   OH228057   1.271   0.037  12.429  0.1085  0.1324  0.1454
 2189TIP3    H128058   1.306   0.024  12.517 -0.6680  1.2007  0.6247
 2189TIP3    H228059   1.181   0.006  12.435  0.4781 -1.2121 -0.6981
 2190TIP3   OH228060   0.857   3.282   1.641 -0.1248  0.6134 -0.2495
 2190TIP3    H128061   0.924   3.297   1.574 -1.0859  1.5066 -1.0473
 2190TIP3    H228062   0.905   3.243   1.714  0.6639 -2.3119 -2.1496
 2191TIP3   OH228063   0.189   4.937   5.488  0.0450 -0.1512 -0.1359
 2191TIP3    H128064   0.103   4.978   5.501 -0.6622 -1.2335 -1.2748
 2191TIP3    H228065   0.250   5.011   5.484 -0.9513  0.6856 -0.2175
 2192TIP3   OH228066   5.755   2.482   3.677  0.4115 -0.3472  0.2621
 2192TIP3    H128067   5.677   2.434   3.648 -0.4413  0.4796  1.0679
 2192TIP3    H228068   5.818   2.414   3.700 -0.6137 -1.0946  0.9868
 2193TIP3   OH228069   3.827   5.862   3.762 -0.2379 -0.0593 -0.4038
 2193TIP3    H128070   3.912   5.818   3.770 -0.3594 -0.1151  0.6357
 2193TIP3    H228071   3.842   5.950   3.796 -0.0134  0.7454 -2.4157
 2194TIP3   OH228072   0.989   0.748  15.890  0.1462  0.1378  0.2113
 2194TIP3    H128073   1.053   0.784  15.828  0.2334  2.1513  1.3537
 2194TIP3    H228074   0.952   0.672  15.846  1.9374  0.0529 -1.2774
 2195TIP3   OH228075   3.520   5.058   6.464 -0.1664 -0.7146  0.3543
 2195TIP3    H128076   3.602   5.008   6.460  0.6282  0.5666 -2.2264
 2195TIP3    H228077   3.543   5.137   6.512  0.9750  0.8207 -2.4656
 2196TIP3   OH228078   5.700   1.896   2.981  0.0351 -0.2121  0.2402
 2196TIP3    H128079   5.621   1.878   2.930  0.6748  1.5264 -1.4678
 2196TIP3    H228080   5.755   1.818   2.970 -0.7341 -0.7461  0.1002
 2197TIP3   OH228081   4.512   5.663  10.726 -0.0946 -0.0482 -0.0065
 2197TIP3    H128082   4.590   5.611  10.743 -0.4810 -0.3944  0.7229
 2197TIP3    H228083   4.546   5.746  10.693  0.4866 -1.2119 -2.5560
 2198TIP3   OH228084   2.476   2.763   4.409 -0.3445  0.4604 -0.1471
 2198TIP3    H128085   2.512   2.805   4.487 -2.0973 -0.5281  1.2694
 2198TIP3    H228086   2.419   2.829   4.370 -0.1532  0.6511 -0.1092
 2199TIP3   OH228087   0.570   2.023  13.970  0.4467 -0.3752  0.0310
 2199TIP3    H128088   0.649   1.989  13.928  0.7245 -1.1174  1.1195
 2199TIP3    H228089   0.584   2.008  14.063  0.0022  1.5677  0.4488
 2200TIP3   OH228090   1.955   2.832   2.879 -0.7363  0.1487  0.0804
 2200TIP3    H128091   1.912   2.884   2.946  2.1026  1.6262  0.9206
 2200TIP3    H228092   2.036   2.880   2.859  0.3196 -2.1501 -1.6898
 2201TIP3   OH228093   5.296   6.055  15.513 -0.2942  0.4510 -0.4496
 2201TIP3    H128094   5.360   6.071  15.444 -0.5999 -1.0258 -1.1239
 2201TIP3    H228095   5.214   6.038  15.466 -0.1631 -2.2517  0.1051
 2202TIP3   OH228096   3.022   4.280  11.384 -0.1979 -0.0704  0.3571
 2202TIP3    H128097   3.057   4.353  11.333 -1.1489 -0.3286 -0.6941
 2202TIP3    H228098   2.928   4.295  11.387 -0.2492 -0.4950  1.3805
 2203TIP3   OH228099   2.647   3.669  15.408 -0.2215 -0.0913 -0.7991
 2203TIP3    H128100   2.582   3.618  15.456 -0.8444  0.9533 -0.5094
 2203TIP3    H228101   2.687   3.725  15.475 -1.2153  1.5098 -1.5101
 2204TIP3   OH228102   1.002   2.639  11.239  0.3312 -0.0473 -0.1076
 2204TIP3    H128103   1.085   2.605  11.205 -0.3217  0.6327 -2.5580
 2204TIP3    H228104   0.992   2.596  11.325  3.6173  0.5642  0.7091
 2205TIP3   OH228105   5.659   3.887   4.404  0.1668 -0.1362 -0.4002
 2205TIP3    H128106   5.595   3.893   4.475  0.8670 -1.4446  0.3720
 2205TIP3    H228107   5.622   3.822   4.344 -0.4334  0.9794 -1.2750
 2206TIP3   OH228108   4.652   2.048   2.437 -0.2156  0.7254  0.3680
 2206TIP3    H128109   4.650   1.965   2.390 -0.1886 -0.6672  2.6622
 2206TIP3    H228110   4.560   2.073   2.445 -0.2293  0.8828 -0.2589
 2207TIP3   OH228111   0.502   0.309  11.920 -0.6869  0.2395 -0.3157
 2207TIP3    H128112   0.483   0.324  11.828 -1.0373  1.8829 -0.0100
 2207TIP3    H228113   0.509   0.396  11.958  2.3659 -0.3142  0.6745
 2208TIP3   OH228114   2.445   4.277  13.670  0.5078 -0.3853 -0.5093
 2208TIP3    H128115   2.396   4.203  13.706 -0.0286 -0.6826 -1.7947
 2208TIP3    H228116   2.388   4.353  13.686  0.6343 -0.3832 -0.0423
 2209TIP3   OH228117   1.179   5.788   5.200  1.1141  0.6959 -0.6042
 2209TIP3    H128118   1.228   5.856   5.153  2.2006  0.1987 -0.2256
 2209TIP3    H228119   1.221   5.784   5.286  0.1801  0.4805 -0.1447
 2210TIP3   OH228120   5.006   6.152   1.614 -0.1194  0.2173  0.2634
 2210TIP3    H128121   4.952   6.186   1.543 -0.2554  0.9961  0.7377
 2210TIP3    H228122   4.962   6.071   1.641 -0.5369  0.3680  0.0399
 2211TIP3   OH228123   5.240   1.196  14.430  0.0717  0.5995 -0.0348
 2211TIP3    H128124   5.183   1.165  14.500 -2.1630 -0.3083 -2.1388
 2211TIP3    H228125   5.250   1.290  14.446  1.5517  0.0862  2.7244
 2212TIP3   OH228126   1.143   6.725   4.651  0.4445 -0.2916  0.3630
 2212TIP3    H128127   1.215   6.778   4.685  0.2188  0.4520 -0.2862
 2212TIP3    H228128   1.109   6.776   4.577 -0.6562 -0.6985  0.5774
 2213TIP3   OH228129   3.454   6.757   3.135 -0.3353 -0.2066 -0.2486
 2213TIP3    H128130   3.527   6.725   3.189 -1.3521 -1.5819  0.3764
 2213TIP3    H228131   3.467   6.715   3.050 -0.8818 -1.2417  0.1486
 2214TIP3   OH228132   3.924   5.164   4.147 -0.1722  0.2832 -0.0641
 2214TIP3    H128133   3.896   5.231   4.209 -0.3183  1.2049 -1.0996
 2214TIP3    H228134   3.856   5.097   4.152  0.1962 -0.0217  1.2979
 2215TIP3   OH228135   1.289   0.248  15.326 -0.4047 -0.1206 -0.1425
 2215TIP3    H128136   1.377   0.217  15.307 -1.0084 -1.3508 -1.0540
 2215TIP3    H228137   1.293   0.277  15.418  0.8287 -0.5416 -0.0424
 2216TIP3   OH228138   1.183   1.611  16.721  0.3485 -0.3156  0.1448
 2216TIP3    H128139   1.093   1.638  16.701  0.0978 -0.4903  0.9816
 2216TIP3    H228140   1.230   1.623  16.639 -0.2582  0.5642 -0.0937
 2217TIP3   OH228141   4.592   5.035   3.815  0.3064 -0.0966 -0.1596
 2217TIP3    H128142   4.621   4.988   3.894 -0.2133  0.1278  0.1745
 2217TIP3    H228143   4.573   5.123   3.846  2.1820  0.6345 -0.9577
 2218TIP3   OH228144   3.937   1.383   5.032  0.3243  0.5752  0.1332
 2218TIP3    H128145   3.912   1.401   5.122  1.7820 -2.2664  1.2156
 2218TIP3    H228146   4.027   1.416   5.025  0.3736  0.3849 -0.1621
 2219TIP3   OH228147   5.425   4.292  10.884  0.3188 -0.0154 -0.2614
 2219TIP3    H128148   5.487   4.357  10.917 -0.2371  0.1158  0.5311
 2219TIP3    H228149   5.393   4.329  10.802  0.9305  0.1368 -0.4359
 2220TIP3   OH228150   5.533   3.141  11.763 -0.5062  0.3097  0.3896
 2220TIP3    H128151   5.613   3.090  11.760 -0.5596  0.1878 -2.8747
 2220TIP3    H228152   5.464   3.077  11.780 -0.3960 -0.5439 -2.0337
 2221TIP3   OH228153   3.368   5.681  16.784  0.3672 -0.8454  0.2387
 2221TIP3    H128154   3.292   5.726  16.822 -0.8163 -1.4626 -1.2701
 2221TIP3    H228155   3.438   5.746  16.787 -0.5638  0.1945  0.5415
 2222TIP3   OH228156   3.514   2.177   1.308 -0.2596 -0.6141  0.5524
 2222TIP3    H128157   3.494   2.133   1.225 -1.2669  1.3410 -0.3365
 2222TIP3    H228158   3.481   2.118   1.375 -0.7657 -1.5976 -0.5242
 2223TIP3   OH228159   0.440   5.866   4.918  0.1565 -0.8875 -0.6942
 2223TIP3    H128160   0.481   5.936   4.968 -0.2626 -0.0261 -1.5271
 2223TIP3    H228161   0.388   5.817   4.982 -0.9611  0.6244 -0.3891
 2224TIP3   OH228162   5.898   4.810   3.328 -0.3368 -0.3609 -0.8027
 2224TIP3    H128163   5.878   4.903   3.344  0.1316 -0.7290  2.4958
 2224TIP3    H228164   5.814   4.772   3.303 -0.7421  0.7439 -1.2020
 2225TIP3   OH228165   4.334   0.304  12.894  0.0475  0.0405 -0.3115
 2225TIP3    H128166   4.388   0.249  12.837 -0.1260  0.3270 -0.7593
 2225TIP3    H228167   4.285   0.242  12.948  0.3597 -0.2313 -0.3329
 2226TIP3   OH228168   3.291   4.729  14.984 -0.4061  0.2527 -0.0765
 2226TIP3    H128169   3.338   4.695  14.908 -2.3408 -0.3074 -1.0904
 2226TIP3    H228170   3.335   4.690  15.059  0.0582 -1.1023 -1.0162
 2227TIP3   OH228171   2.561   4.520   5.839 -0.0622  0.2590  0.7550
 2227TIP3    H128172   2.571   4.611   5.868 -1.4111  0.2551  1.2977
 2227TIP3    H228173   2.516   4.526   5.755 -0.8466  0.0823  1.1501
 2228TIP3   OH228174   3.740   3.870  14.039  0.0010  0.3524  0.2603
 2228TIP3    H128175   3.832   3.891  14.026  0.6083 -1.8925  0.4593
 2228TIP3    H228176   3.741   3.796  14.101 -1.8921 -0.0944 -0.1712
 2229TIP3   OH228177   6.445   0.816   3.775  0.6090 -0.0627 -0.0707
 2229TIP3    H128178   6.357   0.797   3.740  1.1489 -2.0335 -0.5140
 2229TIP3    H228179   6.432   0.890   3.834 -1.5173 -0.8207  0.5099
 2230TIP3   OH228180   4.871   4.367  15.133 -0.8093 -0.2962  0.2356
 2230TIP3    H128181   4.851   4.386  15.042 -0.2339  0.2044  0.2154
 2230TIP3    H228182   4.958   4.326  15.131 -1.3750 -1.5536  0.4243
 2231TIP3   OH228183   6.794   2.867  16.948 -0.0433 -0.1897 -0.7971
 2231TIP3    H128184   6.829   2.886  17.035 -2.1695 -0.0993  0.0799
 2231TIP3    H228185   6.704   2.900  16.950 -0.1995 -0.3034 -2.9998
 2232TIP3   OH228186   6.184   4.458   4.109  0.2696 -0.1555  1.2913
 2232TIP3    H128187   6.150   4.542   4.080 -0.3268 -0.8545 -0.1627
 2232TIP3    H228188   6.264   4.445   4.057 -0.0079 -0.7649  0.9946
 2233TIP3   OH228189   5.580   3.180  11.496 -0.2355 -0.3284 -0.3234
 2233TIP3    H128190   5.507   3.238  11.476  1.5199  1.8902 -0.6666
 2233TIP3    H228191   5.577   3.170  11.591 -0.8744 -0.1271 -0.3185
 2234TIP3   OH228192   2.694   2.890   4.104 -0.8010  0.3432 -0.0984
 2234TIP3    H128193   2.738   2.933   4.178  0.8842 -0.8965 -0.3302
 2234TIP3    H228194   2.664   2.963   4.049 -0.1521  1.2693  0.7280
 2235TIP3   OH228195   2.638   1.608   3.790  0.4129  0.2666  0.5669
 2235TIP3    H128196   2.621   1.651   3.706 -2.0898 -0.1463  0.7931
 2235TIP3    H228197   2.615   1.674   3.855  0.7400  0.0223  0.9334
 2236TIP3   OH228198   0.803   5.974  15.665  0.0479  0.2856  0.0131
 2236TIP3    H128199   0.779   6.018  15.747  1.3269  1.2988 -0.1146
 2236TIP3    H228200   0.721   5.936  15.633 -0.7250  0.9613  1.1121
 2237TIP3   OH228201   2.086   2.279   4.703 -0.0418  0.3057  0.4805
 2237TIP3    H128202   2.071   2.333   4.626 -0.6116 -0.2583  0.1833
 2237TIP3    H228203   2.157   2.323   4.750 -0.4274  1.2561  0.2011
 2238TIP3   OH228204   2.953   0.266   0.714 -0.1109  0.1003  0.6559
 2238TIP3    H128205   2.875   0.316   0.690 -1.1255 -0.5572  2.3989
 2238TIP3    H228206   2.919   0.179   0.737  0.8029  0.4104  3.5505
 2239TIP3   OH228207   3.658   0.625  15.289  0.1764 -0.1443  0.3623
 2239TIP3    H128208   3.727   0.688  15.267  1.2752 -0.4925  2.5365
 2239TIP3    H228209   3.578   0.678  15.293  0.6887  0.6889 -0.0639
 2240TIP3   OH228210   4.305   2.145   6.202  0.3854  0.0292  0.0985
 2240TIP3    H128211   4.327   2.078   6.266 -0.2955 -0.4187 -0.1207
 2240TIP3    H228212   4.292   2.225   6.253  1.9897  0.1923  0.2730
 2241TIP3   OH228213   1.888   0.215   5.151  0.6684 -0.1582  0.1206
 2241TIP3    H128214   1.858   0.145   5.092 -1.0834 -0.4617  1.2782
 2241TIP3    H228215   1.964   0.178   5.195  0.7676 -0.6938 -0.4730
 2242TIP3   OH228216   2.021   0.306  12.213 -0.3549 -0.0439  0.1493
 2242TIP3    H128217   2.021   0.265  12.127 -0.7140 -1.2055  0.6740
 2242TIP3    H228218   2.013   0.232  12.274 -0.3014  0.7702  1.1643
 2243TIP3   OH228219   5.119   2.662   6.246  0.1613 -0.3643  0.4026
 2243TIP3    H128220   5.115   2.721   6.321  0.3066 -0.3783  0.4214
 2243TIP3    H228221   5.169   2.587   6.277  0.2391 -0.3615  0.2859
 2244TIP3   OH228222   5.621   1.040  10.915 -0.0638  0.4783 -0.7174
 2244TIP3    H128223   5.569   1.110  10.875  0.1854  1.5267  0.7087
 2244TIP3    H228224   5.582   1.028  11.002 -0.6647 -1.8170 -1.2525
 2245TIP3   OH228225   1.672   2.119   4.398 -0.1523  0.1633 -0.1759
 2245TIP3    H128226   1.595   2.063   4.406 -0.3219  0.2567 -1.0411
 2245TIP3    H228227   1.637   2.208   4.396  0.1218  0.3295  1.2897
 2246TIP3   OH228228   4.699   6.376  15.137 -0.0965  0.2808  0.5325
 2246TIP3    H128229   4.728   6.285  15.124 -0.0684  0.4427 -0.6850
 2246TIP3    H228230   4.769   6.417  15.188 -1.4741 -1.1193  3.8387
 2247TIP3   OH228231   4.178   2.034  13.368 -0.3533  0.0300  0.6343
 2247TIP3    H128232   4.190   2.012  13.460 -1.2694  0.1791  0.8026
 2247TIP3    H228233   4.147   1.952  13.328  1.2262 -0.3866  0.1855
 2248TIP3   OH228234   5.613   2.629   5.245 -0.4202  0.1285 -0.6621
 2248TIP3    H128235   5.547   2.682   5.291  1.7752  2.0487  0.5161
 2248TIP3    H228236   5.632   2.679   5.165  0.3828  0.2042 -0.4316
 2249TIP3   OH228237   2.597   6.671  15.798 -0.0457 -0.0394 -0.0885
 2249TIP3    H128238   2.616   6.709  15.884 -3.0449  0.6499  0.3845
 2249TIP3    H228239   2.586   6.747  15.741 -1.2885 -0.3595 -0.2931
 2250TIP3   OH228240   2.327   1.572   5.472 -0.5455 -0.4212  0.9734
 2250TIP3    H128241   2.333   1.634   5.399 -0.9542  0.3979  1.6112
 2250TIP3    H228242   2.273   1.500   5.438  2.1398 -1.8097 -0.6727
 2251TIP3   OH228243   5.707   6.072   5.543 -0.2877  0.2718 -0.2267
 2251TIP3    H128244   5.632   6.059   5.601 -0.5282  1.0290 -0.3511
 2251TIP3    H228245   5.679   6.034   5.460 -0.6832  0.8702 -0.3755
 2252TIP3   OH228246   3.239   3.004  13.673  0.4719  0.1902  0.1035
 2252TIP3    H128247   3.305   3.046  13.617 -0.2291  0.0478 -0.8542
 2252TIP3    H228248   3.282   2.995  13.758  1.0433  1.7636  0.0102
 2253TIP3   OH228249   4.120   1.550  15.473 -0.3595 -0.6376  0.2421
 2253TIP3    H128250   4.204   1.547  15.428  0.4567 -1.9596  1.7443
 2253TIP3    H228251   4.144   1.559  15.566 -1.8429 -1.5347  0.7408
 2254TIP3   OH228252   3.290   4.053   4.124 -0.3247  0.1103  0.0350
 2254TIP3    H128253   3.335   4.108   4.188  0.4262 -2.4905  1.9401
 2254TIP3    H228254   3.349   4.050   4.048 -0.0127  1.2534  0.2201
 2255TIP3   OH228255   2.729   5.803  16.835  0.4072  0.1215 -0.2556
 2255TIP3    H128256   2.798   5.790  16.901  1.0416  0.0352 -0.9286
 2255TIP3    H228257   2.658   5.843  16.884  0.7496 -0.2284  0.5583
 2256TIP3   OH228258   3.306   2.126  16.057  0.1591 -0.0755  0.0652
 2256TIP3    H128259   3.308   2.030  16.061  0.3465 -0.1217 -0.8761
 2256TIP3    H228260   3.336   2.154  16.143  1.5177 -0.8717 -0.1199
 2257TIP3   OH228261   0.370   4.534   4.292  0.5562  0.2760  0.6186
 2257TIP3    H128262   0.300   4.506   4.351 -1.2695 -1.0730 -1.9978
 2257TIP3    H228263   0.336   4.614   4.252  0.4491 -0.4014 -0.6851
 2258TIP3   OH228264   2.277   2.890   0.924  0.7159 -0.1250 -1.1047
 2258TIP3    H128265   2.333   2.831   0.873 -0.6017 -0.8106 -1.7927
 2258TIP3    H228266   2.194   2.891   0.877  0.1229  0.8506 -0.0790
 2259TIP3   OH228267   1.463   1.807   1.697  0.4797  0.1443 -0.3255
 2259TIP3    H128268   1.477   1.866   1.771 -2.3474 -0.6134  0.9603
 2259TIP3    H228269   1.535   1.744   1.703  1.4245  1.2496  0.5591
 2260TIP3   OH228270   1.669   1.118  12.188 -0.3245  0.4000  0.0072
 2260TIP3    H128271   1.703   1.039  12.147  1.1504  1.4577 -0.8801
 2260TIP3    H228272   1.582   1.093  12.220  0.2842 -1.6870  0.1593
 2261TIP3   OH228273   3.754   4.051   4.379  0.0128 -0.2589  0.3647
 2261TIP3    H128274   3.760   3.956   4.384 -0.6345 -0.4768 -1.8231
 2261TIP3    H228275   3.845   4.081   4.367  0.1104 -0.6899  0.0304
 2262TIP3   OH228276   2.315   6.314  13.212 -0.3515 -0.1912  0.5247
 2262TIP3    H128277   2.286   6.397  13.174  0.5583  0.3391  0.9611
 2262TIP3    H228278   2.390   6.337  13.266  1.7025 -1.6713 -1.5372
 2263TIP3   OH228279   4.987   5.542   0.668 -0.3212  0.1129  0.0548
 2263TIP3    H128280   4.902   5.576   0.694  0.2825  1.9739 -0.2126
 2263TIP3    H228281   5.027   5.511   0.749 -0.2557  1.6304  0.6398
 2264TIP3   OH228282   2.644   5.468  17.011 -0.7315  0.5463 -0.1884
 2264TIP3    H128283   2.720   5.497  16.959  0.2899 -1.4631  0.0746
 2264TIP3    H228284   2.682   5.417  17.082 -2.2973  0.4323  0.6036
 2265TIP3   OH228285   5.991   6.221   3.176 -0.4409 -0.3531 -0.0338
 2265TIP3    H128286   6.076   6.192   3.143  0.2484 -0.3264  1.6125
 2265TIP3    H228287   6.012   6.296   3.232 -1.7356  0.6398 -0.8105
 2266TIP3   OH228288   5.238   1.342  15.276 -0.2300 -0.3450 -0.1455
 2266TIP3    H128289   5.261   1.382  15.192  0.1894  3.3066  1.5619
 2266TIP3    H228290   5.176   1.403  15.316 -1.7112 -2.7995  1.5883
 2267TIP3   OH228291   4.930   1.947   1.849 -0.5440  0.0010 -0.1973
 2267TIP3    H128292   5.005   1.999   1.821 -0.9580  0.8660  0.2504
 2267TIP3    H228293   4.917   1.884   1.778  0.2133  0.2478 -0.5686
 2268TIP3   OH228294   5.653   5.954   5.303  0.3058  0.0073 -0.1526
 2268TIP3    H128295   5.705   5.987   5.229  0.6875 -0.0479  0.0860
 2268TIP3    H228296   5.645   5.860   5.287  0.7605 -0.0781  0.0953
 2269TIP3   OH228297   2.864   4.164  15.537  0.2361  0.5283  0.4907
 2269TIP3    H128298   2.941   4.221  15.533 -0.4566  1.4578  0.1494
 2269TIP3    H228299   2.879   4.109  15.614  1.0491  0.9774  0.6628
 2270TIP3   OH228300   1.646   6.366   4.216 -0.3685  0.4956 -0.2757
 2270TIP3    H128301   1.605   6.404   4.294 -3.6032 -1.5918 -0.7462
 2270TIP3    H228302   1.609   6.278   4.211  2.9393 -0.9647 -1.9496
 2271TIP3   OH228303   4.469   5.640   5.502 -0.5055 -0.4966 -0.2228
 2271TIP3    H128304   4.464   5.611   5.411 -2.0978 -1.8589  0.2356
 2271TIP3    H228305   4.519   5.721   5.499  1.7750 -1.8286 -1.9618
 2272TIP3   OH228306   5.775   3.190  15.101  0.1889  0.2204  0.0460
 2272TIP3    H128307   5.806   3.132  15.171  0.7497 -1.2423 -1.3578
 2272TIP3    H228308   5.817   3.274  15.120  0.5347 -0.2069  1.3016
 2273TIP3   OH228309   1.394   4.909   2.539 -0.1458 -0.1466  0.6121
 2273TIP3    H128310   1.340   4.835   2.512 -1.0425  0.2391  1.3060
 2273TIP3    H228311   1.338   4.960   2.598  0.3954  1.1743  0.0250
 2274TIP3   OH228312   4.025   1.094   2.666  0.0082  0.3383 -0.0808
 2274TIP3    H128313   4.016   1.186   2.690 -0.7544  0.1265  0.5080
 2274TIP3    H228314   4.113   1.070   2.695  1.1361  1.4474 -2.3113
 2275TIP3   OH228315   0.539   1.720  16.056 -0.3826 -0.5383  0.2020
 2275TIP3    H128316   0.493   1.683  16.131 -0.3612  0.1455  0.5633
 2275TIP3    H228317   0.596   1.787  16.094  0.9433 -1.3889 -0.2311
 2276TIP3   OH228318   4.510   3.445  13.827  0.2124  0.5580  0.7192
 2276TIP3    H128319   4.492   3.479  13.740 -1.0928  0.8613  1.0791
 2276TIP3    H228320   4.424   3.421  13.862  0.5354  1.6202  2.3894
 2277TIP3   OH228321   3.436   6.731   3.503  0.4500  1.1265  0.7616
 2277TIP3    H128322   3.502   6.765   3.565  0.6146  1.4103  0.4320
 2277TIP3    H228323   3.474   6.650   3.470  0.2100  0.7912  1.2878
 2278TIP3   OH228324   1.193   5.310  12.150 -0.3739  0.2655  0.1550
 2278TIP3    H128325   1.230   5.232  12.110 -0.1475  0.5924 -0.2862
 2278TIP3    H228326   1.123   5.338  12.091  0.0247  0.8051 -0.0767
 2279TIP3   OH228327   5.996   1.489  10.527 -0.5947  0.0546  0.0457
 2279TIP3    H128328   5.951   1.563  10.568  0.3110  1.1395 -0.8338
 2279TIP3    H228329   6.085   1.522  10.509 -1.0322 -0.1505 -3.1360
 2280TIP3   OH228330   1.221   5.766   0.789  0.4684  0.0528  0.5037
 2280TIP3    H128331   1.178   5.681   0.796  1.0136 -0.2956 -0.1816
 2280TIP3    H228332   1.153   5.830   0.808 -0.7717 -0.3986 -2.0612
 2281TIP3   OH228333   1.309   1.912  16.452 -0.2362 -0.0188 -0.1965
 2281TIP3    H128334   1.274   1.920  16.540  2.0155 -0.4362  0.8045
 2281TIP3    H228335   1.403   1.895  16.464 -0.0094 -0.9972 -2.6460
 2282TIP3   OH228336   3.769   4.290  11.116  0.6195  0.0593  0.2283
 2282TIP3    H128337   3.774   4.365  11.056 -1.3361 -0.3146 -0.4552
 2282TIP3    H228338   3.675   4.275  11.128  0.9819 -1.4117  1.4725
 2283TIP3   OH228339   1.366   2.044   0.565  0.2407  0.0886  0.7049
 2283TIP3    H128340   1.449   2.036   0.518 -1.5089 -0.8099 -2.5026
 2283TIP3    H228341   1.342   2.137   0.557 -0.9375 -0.3669 -2.0666
 2284TIP3   OH228342   1.159   0.601   1.058  0.1501 -0.8247 -0.1298
 2284TIP3    H128343   1.092   0.655   1.016  0.0689  0.4399  1.5285
 2284TIP3    H228344   1.124   0.512   1.054 -1.5913 -0.2020  0.6029
 2285TIP3   OH228345   0.680   1.505   4.126 -0.2256 -0.2935 -0.3986
 2285TIP3    H128346   0.763   1.550   4.137 -0.3271 -0.0886 -0.4806
 2285TIP3    H228347   0.701   1.413   4.141 -0.0901 -0.1787  0.1253
 2286TIP3   OH228348   2.553   3.414   1.253  0.0686  0.1333  0.0709
 2286TIP3    H128349   2.554   3.324   1.284 -0.9985  0.6788  1.8276
 2286TIP3    H228350   2.642   3.431   1.222  0.6491 -1.0870  1.0122
 2287TIP3   OH228351   4.232   3.025   5.737  0.4057 -0.4687  0.8190
 2287TIP3    H128352   4.316   2.979   5.729  0.0007 -1.4949  2.2130
 2287TIP3    H228353   4.255   3.117   5.726  1.7779 -0.6989  1.4820
 2288TIP3   OH228354   6.426   6.705   4.506  0.1562 -0.1522  0.0264
 2288TIP3    H128355   6.432   6.697   4.411  1.4039 -2.5857  0.2171
 2288TIP3    H228356   6.499   6.653   4.539 -1.5346 -1.2819  2.3368
 2289TIP3   OH228357   3.691   3.195   1.315 -0.0741 -0.5948 -0.0714
 2289TIP3    H128358   3.746   3.125   1.352 -0.3465 -1.2616 -0.8966
 2289TIP3    H228359   3.639   3.151   1.248  1.0336  0.7445 -1.8912
 2290TIP3   OH228360   4.268   4.048  14.947 -0.8049  0.0240 -0.2814
 2290TIP3    H128361   4.236   4.079  14.862  0.9599  1.1126 -0.5944
 2290TIP3    H228362   4.335   3.984  14.926 -0.2151  0.4504  0.2794
 2291TIP3   OH228363   0.679   6.753   0.119 -0.4219 -0.5021 -0.0146
 2291TIP3    H128364   0.759   6.779   0.164  0.5381  0.8327 -2.3577
 2291TIP3    H228365   0.671   6.660   0.137  0.8444 -0.3752  1.4428
 2292TIP3   OH228366   4.311   4.668   5.158 -0.3748  0.4046 -0.3259
 2292TIP3    H128367   4.246   4.598   5.153  0.2838 -0.1503 -1.5026
 2292TIP3    H228368   4.342   4.666   5.249 -1.3731  0.1243  0.0250
 2293TIP3   OH228369   4.467   3.997   0.479  0.0809  0.2510  0.1528
 2293TIP3    H128370   4.448   3.934   0.548 -0.7617 -1.5401 -1.6006
 2293TIP3    H228371   4.551   3.968   0.443 -0.7008 -0.4650 -1.2046
 2294TIP3   OH228372   1.279   5.943  14.117 -0.6139  0.2220 -0.3703
 2294TIP3    H128373   1.269   5.994  14.037 -1.8954 -0.7952 -0.8928
 2294TIP3    H228374   1.374   5.941  14.133 -0.4652  1.9652 -0.8223
 2295TIP3   OH228375   3.345   4.676  13.901 -0.4962 -0.0054  0.3579
 2295TIP3    H128376   3.273   4.723  13.859 -0.2142  2.4062  2.3311
 2295TIP3    H228377   3.417   4.683  13.839 -1.2012 -0.1305 -0.4994
 2296TIP3   OH228378   3.011   2.006   2.621  0.4064 -0.0076 -0.2259
 2296TIP3    H128379   2.930   1.989   2.669  0.3853  0.1331 -0.2134
 2296TIP3    H228380   3.021   1.929   2.564  0.1198  0.1019 -0.4259
 2297TIP3   OH228381   0.848   3.360  11.807 -0.2588 -0.7021  0.3097
 2297TIP3    H128382   0.855   3.266  11.819 -0.1809 -0.5386  1.6360
 2297TIP3    H228383   0.837   3.396  11.895  1.7916  0.6987  0.0650
 2298TIP3   OH228384   3.767   0.068  12.172  0.0056  0.6280 -0.0934
 2298TIP3    H128385   3.752   0.084  12.266  1.3438  1.2664  0.0268
 2298TIP3    H228386   3.860   0.083  12.160 -0.0952  0.2188 -1.4809
 2299TIP3   OH228387   1.288   5.424   6.000 -0.7238  0.1744  0.4965
 2299TIP3    H128388   1.216   5.381   6.047 -0.9592  0.0554  0.0265
 2299TIP3    H228389   1.365   5.372   6.022 -1.0445 -0.6371 -0.2461
 2300TIP3   OH228390   3.810   6.131  10.480  0.2184 -0.2431 -0.5771
 2300TIP3    H128391   3.774   6.066  10.421 -0.4829  0.5337 -1.0223
 2300TIP3    H228392   3.833   6.082  10.559 -0.3109 -1.0180 -0.8962
 2301TIP3   OH228393   3.428   1.651   3.959 -0.0340  0.1902  0.0600
 2301TIP3    H128394   3.352   1.593   3.967  0.0816 -0.1059 -0.9115
 2301TIP3    H228395   3.489   1.620   4.026  0.4981 -1.5739 -1.1670
 2302TIP3   OH228396   3.109   2.443  12.511  0.4618  0.3491  0.1602
 2302TIP3    H128397   3.146   2.486  12.433  2.4787  1.0493  1.4315
 2302TIP3    H228398   3.089   2.354  12.482  5.0721 -0.8082 -0.2687
 2303TIP3   OH228399   6.146   6.098  12.955  0.5246 -0.6254 -0.0717
 2303TIP3    H128400   6.230   6.104  13.000  1.3549 -1.0092 -1.5208
 2303TIP3    H228401   6.084   6.140  13.015  1.5324 -1.2601  1.4999
 2304TIP3   OH228402   4.221   1.005  14.940  0.3401 -0.4868  0.0996
 2304TIP3    H128403   4.134   1.039  14.960  0.4002 -0.1388 -0.2192
 2304TIP3    H228404   4.281   1.064  14.986  0.4459 -0.1333 -0.4804
 2305TIP3   OH228405   1.630   3.510   1.399  0.5108 -0.0278  0.1621
 2305TIP3    H128406   1.663   3.530   1.486  0.2614  0.6310  0.1111
 2305TIP3    H228407   1.645   3.590   1.348 -0.6056  0.0940 -0.0200
 2306TIP3   OH228408   0.265   0.474  14.115 -0.2188  0.1889  0.3991
 2306TIP3    H128409   0.295   0.518  14.036  1.2655  0.6779  1.1974
 2306TIP3    H228410   0.229   0.544  14.170 -2.5176 -0.3247 -0.3450
 2307TIP3   OH228411   1.709   3.557  11.758 -0.1096  0.5318  0.7175
 2307TIP3    H128412   1.727   3.565  11.851  2.3204  1.2188  0.2546
 2307TIP3    H228413   1.761   3.626  11.717 -0.8697  0.0490 -1.1977
 2308TIP3   OH228414   6.487   0.723   0.595 -0.3189 -0.0324 -0.2520
 2308TIP3    H128415   6.531   0.643   0.565  1.3514  0.3519  1.0424
 2308TIP3    H228416   6.527   0.793   0.543 -0.9160  0.1222 -0.5207
 2309TIP3   OH228417   5.988   2.244   5.086 -0.0894  0.0464  0.5842
 2309TIP3    H128418   5.923   2.269   5.152 -1.1421  0.7279 -0.6792
 2309TIP3    H228419   5.975   2.306   5.015  0.1793 -1.4371 -0.8007
 2310TIP3   OH228420   4.507   5.087   2.107  0.0423 -0.3934  0.7051
 2310TIP3    H128421   4.440   5.128   2.163 -1.9901 -2.3076 -0.1988
 2310TIP3    H228422   4.580   5.070   2.166 -0.0227  2.1282  1.6478
 2311TIP3   OH228423   2.875   6.552   3.697 -0.6539  0.0094 -0.4453
 2311TIP3    H128424   2.911   6.551   3.786 -0.3598  1.2268 -0.5238
 2311TIP3    H228425   2.936   6.501   3.645  0.6851  1.5148 -0.4518
 2312TIP3   OH228426   4.294   5.103   2.298 -0.4987  0.4773  0.3299
 2312TIP3    H128427   4.266   5.111   2.390 -2.4869  3.1457 -0.3643
 2312TIP3    H228428   4.236   5.163   2.251  0.5019 -0.7615 -2.6992
 2313TIP3   OH228429   5.768   5.986  15.544  1.0056 -0.1374  0.0858
 2313TIP3    H128430   5.782   5.898  15.576 -0.2654 -0.3716  0.0774
 2313TIP3    H228431   5.746   6.037  15.622 -2.2969 -0.7516 -0.2667
 2314TIP3   OH228432   4.384   0.451   1.967  0.0489 -0.2528 -0.1938
 2314TIP3    H128433   4.466   0.483   2.004  0.8706 -1.3746 -0.9894
 2314TIP3    H228434   4.363   0.373   2.018 -0.8873  0.3864  0.4310
 2315TIP3   OH228435   3.899   4.671  11.773  0.0371 -0.2193  0.4241
 2315TIP3    H128436   3.815   4.686  11.816 -0.1804  0.6701 -0.2814
 2315TIP3    H228437   3.950   4.621  11.837 -0.1190  1.4459  1.9342
 2316TIP3   OH228438   5.402   5.275  13.820 -0.0540 -0.1198  0.0432
 2316TIP3    H128439   5.337   5.329  13.774 -0.8254 -0.7165  0.3946
 2316TIP3    H228440   5.382   5.186  13.791  1.8300 -0.1525 -1.2956
 2317TIP3   OH228441   4.130   4.393  16.234  0.1704  0.2995 -0.2665
 2317TIP3    H128442   4.152   4.487  16.232  0.8117  0.1563 -0.3462
 2317TIP3    H228443   4.178   4.359  16.310 -0.6786  0.1754  0.2187
 2318TIP3   OH228444   1.148   6.794  13.537  0.3307  0.9841  0.5934
 2318TIP3    H128445   1.093   6.805  13.459  1.0371 -1.8125 -0.4320
 2318TIP3    H228446   1.086   6.788  13.610 -0.6019  0.0453 -0.2562
 2319TIP3   OH228447   6.828   2.486  13.242  0.2329 -0.4008 -0.1017
 2319TIP3    H128448   6.761   2.480  13.175 -1.9621 -0.4034  1.9456
 2319TIP3    H228449   6.851   2.579  13.246  0.5201 -0.4266 -0.9272
 2320TIP3   OH228450   1.671   4.262   3.301 -0.6958 -0.3492  1.1933
 2320TIP3    H128451   1.690   4.317   3.377 -2.1976  1.8420  0.1086
 2320TIP3    H228452   1.727   4.297   3.231 -0.6092 -1.1717  0.8386
 2321TIP3   OH228453   1.024   2.405  12.864  0.1649  0.0904  0.1389
 2321TIP3    H128454   0.928   2.411  12.860  0.0987 -1.0227 -0.3684
 2321TIP3    H228455   1.052   2.490  12.899 -1.1080 -0.1770  1.9608
 2322TIP3   OH228456   2.823   2.420   4.280  0.0925  0.3319 -0.4663
 2322TIP3    H128457   2.915   2.396   4.287  0.1507  0.4135 -0.9388
 2322TIP3    H228458   2.824   2.511   4.250 -0.1167  1.1866  1.9105
 2323TIP3   OH228459   4.448   6.057   1.274 -0.2385  0.3137  0.3439
 2323TIP3    H128460   4.449   6.153   1.268 -1.9260  0.2958 -1.4930
 2323TIP3    H228461   4.531   6.030   1.236 -0.5378  1.0299 -0.8784
 2324TIP3   OH228462   1.879   4.172  11.551 -0.1822  0.4006  0.4474
 2324TIP3    H128463   1.904   4.171  11.458  1.6384  1.7493  0.8671
 2324TIP3    H228464   1.831   4.253  11.562  0.3656  0.6781  0.8451
 2325TIP3   OH228465   5.976   3.145   5.829 -0.1468 -0.1902 -0.1806
 2325TIP3    H128466   5.944   3.169   5.916 -0.9654 -1.4439 -0.1159
 2325TIP3    H228467   5.917   3.190   5.768 -0.6708 -0.7102 -0.0671
 2326TIP3   OH228468   4.818   0.461  14.057  0.2548  0.0214  0.3933
 2326TIP3    H128469   4.798   0.545  14.015 -0.4923 -0.3544 -0.0069
 2326TIP3    H228470   4.733   0.427  14.085  0.6634 -0.0734  1.5781
 2327TIP3   OH228471   4.460   4.250   3.560 -0.2674  0.0597  0.1220
 2327TIP3    H128472   4.462   4.189   3.634 -2.2954  2.2790  2.1887
 2327TIP3    H228473   4.482   4.334   3.598  0.4607  1.0123 -2.2327
 2328TIP3   OH228474   4.894   1.223  12.568 -0.2611  0.1320 -0.1027
 2328TIP3    H128475   4.886   1.246  12.661 -2.7322  0.0186 -0.2464
 2328TIP3    H228476   4.823   1.269  12.525  0.7006 -0.0111 -1.9475
 2329TIP3   OH228477   1.863   6.103   4.012 -0.0036 -0.1084  0.2143
 2329TIP3    H128478   1.807   6.052   3.955 -0.5920  0.3726  0.3411
 2329TIP3    H228479   1.910   6.162   3.954 -0.5658  0.3474  0.2097
 2330TIP3   OH228480   4.645   3.826  15.957  0.2160 -0.0592 -0.3298
 2330TIP3    H128481   4.636   3.921  15.969  0.8362 -0.0133 -0.1893
 2330TIP3    H228482   4.739   3.809  15.970  0.2013 -0.6115 -0.9193
 2331TIP3   OH228483   0.145   2.144  11.300 -0.1870  0.6076 -0.1912
 2331TIP3    H128484   0.088   2.196  11.357  0.6524  0.2444  0.9979
 2331TIP3    H228485   0.084   2.095  11.244 -1.0745 -0.1222  1.3506
 2332TIP3   OH228486   6.832   6.430   0.584  0.4715 -0.6060 -0.3069
 2332TIP3    H128487   6.809   6.338   0.570 -1.7657 -0.1671  0.1455
 2332TIP3    H228488   6.894   6.450   0.514 -0.6995 -1.8855 -1.7735
 2333TIP3   OH228489   6.036   0.547   0.046  0.3278  0.1800  0.4303
 2333TIP3    H128490   5.963   0.586   0.094 -0.1039 -0.0784  0.0019
 2333TIP3    H228491   6.098   0.619   0.032 -0.9243  1.0004 -1.2695
 2334TIP3   OH228492   0.189   3.562   3.775 -0.3672 -0.1647 -0.4998
 2334TIP3    H128493   0.204   3.632   3.712 -3.4959 -0.2810 -1.5216
 2334TIP3    H228494   0.134   3.601   3.843 -1.5740 -1.3988 -0.7176
 2335TIP3   OH228495   0.068   2.935  15.106  0.5866 -0.0060 -0.2546
 2335TIP3    H128496   0.128   2.914  15.178  0.0384 -1.9702 -0.3096
 2335TIP3    H228497   0.074   2.861  15.047 -1.3791  0.0368 -0.5969
 2336TIP3   OH228498   2.274   5.235  13.589 -0.5525 -0.6059 -0.1627
 2336TIP3    H128499   2.260   5.194  13.674 -0.9650 -2.0018 -0.8783
 2336TIP3    H228500   2.204   5.300  13.582 -1.2444 -1.3198  0.0650
 2337TIP3   OH228501   2.869   4.826  12.215  0.3693 -0.3115  0.3418
 2337TIP3    H128502   2.838   4.760  12.278 -0.3676 -0.7178 -0.4323
 2337TIP3    H228503   2.827   4.802  12.133  0.5504  0.8035 -0.0834
 2338TIP3   OH228504   5.548   3.099  14.486  0.8643  0.0749 -0.5477
 2338TIP3    H128505   5.583   3.179  14.447 -0.8671  0.6015 -1.1236
 2338TIP3    H228506   5.565   3.031  14.421 -0.1361  0.5401 -1.3166
 2339TIP3   OH228507   5.400   2.136  13.732  0.2422 -0.5158  0.0350
 2339TIP3    H128508   5.411   2.184  13.650 -0.3946 -0.9052 -0.2851
 2339TIP3    H228509   5.426   2.198  13.800 -1.7713  0.7317 -0.2645
 2340TIP3   OH228510   6.767   1.825   2.972  0.1400  0.1424  0.6015
 2340TIP3    H128511   6.710   1.888   3.016 -0.4245 -1.3317  2.1092
 2340TIP3    H228512   6.707   1.761   2.934  0.7061  0.4499 -0.8620
 2341TIP3   OH228513   0.089   3.932   1.952 -0.2575 -0.1487  0.1597
 2341TIP3    H128514   0.183   3.922   1.942 -0.6192 -2.1594 -2.0351
 2341TIP3    H228515   0.053   3.845   1.937 -2.4376  0.3228  2.0595
 2342TIP3   OH228516   1.034   4.214  11.710 -0.1118  0.5347  0.0885
 2342TIP3    H128517   0.944   4.201  11.740 -0.6822  0.5214 -1.5786
 2342TIP3    H228518   1.065   4.288  11.763 -2.0521  2.4082 -1.2091
 2343TIP3   OH228519   2.321   2.100  12.778  0.2803 -0.1105  0.2482
 2343TIP3    H128520   2.304   2.126  12.869  0.3467 -0.6839  0.4296
 2343TIP3    H228521   2.341   2.006  12.784 -0.0606 -0.2273 -0.3993
 2344TIP3   OH228522   2.182   4.212  11.842  0.6092  0.1069  0.1956
 2344TIP3    H128523   2.125   4.184  11.914 -3.1943  1.2198 -2.0691
 2344TIP3    H228524   2.208   4.301  11.865 -2.0336  1.1426 -0.3756
 2345TIP3   OH228525   6.183   4.010   3.833 -0.2731 -0.5400  0.0940
 2345TIP3    H128526   6.225   4.067   3.897 -0.0542  0.3712 -0.8355
 2345TIP3    H228527   6.187   3.923   3.872  0.8723 -0.1861  0.8134
 2346TIP3   OH228528   0.797   3.088  14.771 -0.3840 -0.4262 -0.5374
 2346TIP3    H128529   0.879   3.057  14.731 -1.1059 -0.2623 -2.2502
 2346TIP3    H228530   0.770   3.161  14.715 -1.5716 -0.3140  0.1543
 2347TIP3   OH228531   4.859   2.616  15.704 -0.4239 -0.2394 -0.2097
 2347TIP3    H128532   4.885   2.528  15.676 -1.0258 -0.2746 -0.6819
 2347TIP3    H228533   4.900   2.627  15.790 -0.6159 -1.1164  0.0095
 2348TIP3   OH228534   2.478   3.188   3.197 -0.1110 -0.4122  0.2783
 2348TIP3    H128535   2.554   3.246   3.195 -0.6255  0.2881  0.6449
 2348TIP3    H228536   2.403   3.246   3.183 -0.6542 -0.9589  0.8516
 2349TIP3   OH228537   1.033   6.155   2.591  0.2282 -0.5063 -0.3420
 2349TIP3    H128538   1.018   6.088   2.659 -0.3264 -0.8164 -0.7651
 2349TIP3    H228539   1.055   6.105   2.513  1.2437 -0.1324 -0.3028
 2350TIP3   OH228540   4.779   1.567   1.287 -0.4520  0.0373 -0.5412
 2350TIP3    H128541   4.747   1.533   1.203 -1.8137 -0.4402  0.1476
 2350TIP3    H228542   4.857   1.515   1.306 -0.0291  0.2711 -1.5865
 2351TIP3   OH228543   6.200   2.445  14.500  0.2237 -0.3235 -0.0571
 2351TIP3    H128544   6.213   2.416  14.591  1.5809  0.0598 -0.1144
 2351TIP3    H228545   6.113   2.411  14.477 -0.6632  0.5595  1.7524
 2352TIP3   OH228546   0.225   3.729   0.135 -0.2940  0.0480  0.3943
 2352TIP3    H128547   0.282   3.764   0.203 -2.2218 -0.4384  2.3588
 2352TIP3    H228548   0.192   3.806   0.089  2.3198  0.3383 -1.2740
 2353TIP3   OH228549   4.945   4.112  11.704 -0.4309  0.0881 -0.9727
 2353TIP3    H128550   4.964   4.034  11.652 -0.4136 -0.2414 -0.4767
 2353TIP3    H228551   4.855   4.135  11.681 -1.4164 -1.6416  0.8081
 2354TIP3   OH228552   2.790   6.434  13.708 -0.5038  0.2430 -0.9783
 2354TIP3    H128553   2.878   6.471  13.719 -0.1556 -1.0150  0.9895
 2354TIP3    H228554   2.805   6.343  13.683 -1.1965 -0.2167  0.2070
 2355TIP3   OH228555   4.033   3.206  11.690 -0.5955 -0.0062  0.0867
 2355TIP3    H128556   4.117   3.239  11.660  1.0414 -2.0373  2.1271
 2355TIP3    H228557   4.011   3.261  11.765 -1.3308  0.7720 -0.6766
 2356TIP3   OH228558   2.930   3.060  15.866  0.6191  0.2829  0.1079
 2356TIP3    H128559   3.005   3.079  15.924 -0.1486  0.5944  1.0319
 2356TIP3    H228560   2.928   2.965  15.860 -0.1873  0.1434  1.8634
 2357TIP3   OH228561   0.466   0.371  15.897  0.0533  0.6162  0.4913
 2357TIP3    H128562   0.394   0.383  15.958 -0.4532  0.9795 -0.1610
 2357TIP3    H228563   0.425   0.367  15.811  0.7803  0.4581  0.1359
 2358TIP3   OH228564   1.455   3.004  14.073 -0.2234 -0.1421  0.2692
 2358TIP3    H128565   1.382   2.950  14.043  0.3045  0.6092 -2.6933
 2358TIP3    H228566   1.466   3.070  14.004  3.1536 -0.1567  0.6434
 2359TIP3   OH228567   5.550   2.434  12.192 -0.1828 -0.3003 -0.5547
 2359TIP3    H128568   5.466   2.442  12.147  0.3138 -1.3100 -1.7280
 2359TIP3    H228569   5.593   2.518  12.179 -0.0654 -0.5605 -1.9830
 2360TIP3   OH228570   2.228   0.448  16.067  0.3816  0.6021  0.5369
 2360TIP3    H128571   2.293   0.389  16.028 -0.8838 -0.8771  0.5930
 2360TIP3    H228572   2.166   0.465  15.997 -0.6136 -0.1646  1.2121
 2361TIP3   OH228573   2.055   3.618   0.763 -0.0121 -0.0578 -0.1327
 2361TIP3    H128574   2.123   3.623   0.830 -1.3241  0.3146  1.2052
 2361TIP3    H228575   2.012   3.703   0.765 -1.8560 -0.9383  0.5408
 2362TIP3   OH228576   6.809   4.865   3.754  0.4729  0.3625  0.4115
 2362TIP3    H128577   6.765   4.829   3.831 -0.0463 -0.0363 -0.0631
 2362TIP3    H228578   6.887   4.811   3.743  0.1413 -0.0785  0.2056
 2363TIP3   OH228579   0.115   4.411   6.470 -0.4179  0.0934  0.3917
 2363TIP3    H128580   0.078   4.496   6.495 -2.2788 -0.0083 -1.7859
 2363TIP3    H228581   0.040   4.354   6.457  0.7454 -1.5298  0.4422
 2364TIP3   OH228582   2.335   6.049  15.530 -0.3981 -0.6790 -0.0326
 2364TIP3    H128583   2.282   6.123  15.561 -1.0047 -0.6513 -1.0907
 2364TIP3    H228584   2.405   6.090  15.479 -0.0342 -0.7791  0.3836
 2365TIP3   OH228585   0.944   5.959   3.763  0.5377  0.1698 -0.4753
 2365TIP3    H128586   0.870   6.001   3.807 -0.0800  0.2139 -1.5186
 2365TIP3    H228587   0.910   5.873   3.736  0.0658  1.0614 -3.0219
 2366TIP3   OH228588   5.909   2.162  15.283 -0.3720 -0.1700 -0.0018
 2366TIP3    H128589   5.889   2.214  15.360  2.8582 -0.0600  0.8955
 2366TIP3    H228590   5.904   2.223  15.210  1.0429  0.8830  0.7434
 2367TIP3   OH228591   5.302   1.056   4.021 -0.3135  0.1795  0.0518
 2367TIP3    H128592   5.314   1.047   3.926  1.4527 -3.9825  0.4332
 2367TIP3    H228593   5.373   1.113   4.049  1.0226 -0.9640 -0.8809
 2368TIP3   OH228594   0.264   0.242   0.124  0.1821 -0.3867  0.2120
 2368TIP3    H128595   0.343   0.286   0.157 -0.2592 -1.0771  2.2961
 2368TIP3    H228596   0.197   0.310   0.125  0.1372 -0.4343  0.9160
 2369TIP3   OH228597   2.203   0.302  10.172 -0.1854 -0.1894 -0.3225
 2369TIP3    H128598   2.192   0.221  10.222  0.6385  0.4189  0.8991
 2369TIP3    H228599   2.293   0.297  10.138  0.2452  0.6630  0.6469
 2370TIP3   OH228600   6.720   1.402   2.563 -0.0339 -0.3032  0.0258
 2370TIP3    H128601   6.780   1.457   2.512 -0.2625  0.4000  0.4940
 2370TIP3    H228602   6.777   1.349   2.618  0.2279  1.8117  1.9994
 2371TIP3   OH228603   2.160   2.206  14.036 -0.0193 -0.1248 -0.0117
 2371TIP3    H128604   2.130   2.194  13.946 -2.3159 -1.4465  0.8224
 2371TIP3    H228605   2.082   2.236  14.083  0.2734 -2.2531  2.0433
 2372TIP3   OH228606   0.360   3.058   1.603  0.1601  0.0462 -0.7319
 2372TIP3    H128607   0.429   3.017   1.655 -0.5640 -1.8986 -1.2174
 2372TIP3    H228608   0.361   3.010   1.520 -2.0216 -0.3062 -0.6082
 2373TIP3   OH228609   6.684   4.971   0.146  0.1773  0.9061 -0.0627
 2373TIP3    H128610   6.659   4.953   0.055 -1.1939  1.9945  0.0637
 2373TIP3    H228611   6.610   5.020   0.182 -0.1073 -1.0025  2.1986
 2374TIP3   OH228612   6.652   5.701   0.261 -0.8386 -0.3833  0.3797
 2374TIP3    H128613   6.673   5.780   0.211 -0.9488  0.6803  1.9441
 2374TIP3    H228614   6.615   5.641   0.197  0.9826  0.1082 -1.2274
 2375TIP3   OH228615   4.104   0.048  12.748  0.3421  0.0912  0.1522
 2375TIP3    H128616   4.170   0.045  12.679  2.0496 -0.7171  1.7190
 2375TIP3    H228617   4.153   0.073  12.827 -1.3577  0.0987  1.2606
 2376TIP3   OH228618   2.369   0.868  11.620 -0.8106  0.8750  0.6369
 2376TIP3    H128619   2.374   0.887  11.527 -2.5907 -1.8043 -0.1069
 2376TIP3    H228620   2.275   0.861  11.639 -0.4499 -0.4580  2.1813
 2377TIP3   OH228621   2.562   4.631  10.823  0.2916  0.2685  0.5742
 2377TIP3    H128622   2.621   4.556  10.834 -0.0140 -0.3292 -1.5313
 2377TIP3    H228623   2.601   4.682  10.752 -1.9687 -0.4523 -1.2965
 2378TIP3   OH228624   5.709   5.492   3.593  0.0081  0.0964  0.2188
 2378TIP3    H128625   5.732   5.584   3.609 -1.5916  0.8574 -1.3943
 2378TIP3    H228626   5.661   5.465   3.671  0.7785  0.5221  0.8507
 2379TIP3   OH228627   3.751   1.081  12.742  0.0394 -0.3921  0.3746
 2379TIP3    H128628   3.833   1.055  12.785  0.0801  0.1638  0.6377
 2379TIP3    H228629   3.723   1.159  12.789  0.6710  0.9073 -1.3260
 2380TIP3   OH228630   3.215   6.050  15.706  0.0633  0.1929  0.4818
 2380TIP3    H128631   3.240   5.968  15.749  0.7090 -0.0215 -0.2869
 2380TIP3    H228632   3.124   6.038  15.681  0.5531 -0.8439 -0.8833
 2381TIP3   OH228633   5.122   6.609   0.283 -0.5541  0.3907 -0.3455
 2381TIP3    H128634   5.152   6.553   0.212 -0.5050  1.5232 -1.2459
 2381TIP3    H228635   5.202   6.634   0.329 -0.4360  0.7694 -0.7479
 2382TIP3   OH228636   3.299   5.098  16.248 -0.1217  0.0184 -0.1986
 2382TIP3    H128637   3.203   5.100  16.249 -0.1103  1.2046  0.6777
 2382TIP3    H228638   3.324   5.102  16.340  0.7780  0.6729 -0.4560
 2383TIP3   OH228639   6.329   0.854   1.340 -0.1607  0.0518 -0.9744
 2383TIP3    H128640   6.410   0.861   1.390  0.9354 -0.1294 -2.6403
 2383TIP3    H228641   6.260   0.876   1.402  0.9322 -2.0335  1.1145
 2384TIP3   OH228642   1.668   2.675  12.022  0.4014 -0.4187  0.0752
 2384TIP3    H128643   1.723   2.640  12.092  1.8529  2.9211  0.8293
 2384TIP3    H228644   1.694   2.626  11.944  0.9081 -2.1921  1.2999
 2385TIP3   OH228645   1.526   3.919   0.126 -0.2622 -0.0491  0.4099
 2385TIP3    H128646   1.494   4.009   0.132  1.9669  0.6975  2.2033
 2385TIP3    H228647   1.552   3.896   0.215  1.5392 -1.5680 -0.4342
 2386TIP3   OH228648   6.732   4.473   1.008  0.5639  0.2096 -0.2746
 2386TIP3    H128649   6.776   4.396   0.970  2.4599  1.2090 -0.2355
 2386TIP3    H228650   6.771   4.547   0.962  0.1697  1.2511  1.0189
 2387TIP3   OH228651   3.265   4.422   5.575 -0.2199  0.1910 -0.1533
 2387TIP3    H128652   3.206   4.469   5.516  0.9154  2.1809  0.2199
 2387TIP3    H228653   3.215   4.411   5.655 -0.8896 -0.2693 -0.6242
 2388TIP3   OH228654   1.202   2.259   2.753 -0.2997  0.2303 -0.1211
 2388TIP3    H128655   1.169   2.258   2.663 -0.5012  3.1093 -0.1674
 2388TIP3    H228656   1.140   2.205   2.802 -1.7645  0.8163 -1.2623
 2389TIP3   OH228657   0.604   2.366   3.162  0.0237  0.4584 -0.1875
 2389TIP3    H128658   0.624   2.459   3.150 -0.1934  0.6663  0.9536
 2389TIP3    H228659   0.675   2.333   3.218  0.5561 -0.2759 -1.2501
 2390TIP3   OH228660   5.873   3.101  14.213  0.1983 -0.4325 -0.6869
 2390TIP3    H128661   5.793   3.153  14.209  0.0516 -0.3199  1.8518
 2390TIP3    H228662   5.941   3.158  14.179 -0.2178  0.9059  0.6220
 2391TIP3   OH228663   0.624   5.359  13.729 -0.2489  0.0634 -0.0497
 2391TIP3    H128664   0.579   5.315  13.657  1.9682  0.5800 -1.8729
 2391TIP3    H228665   0.599   5.310  13.807 -1.6394 -1.3973 -1.3466
 2392TIP3   OH228666   4.473   2.509   3.901  0.0513 -0.4137 -0.3251
 2392TIP3    H128667   4.559   2.471   3.919  0.2894 -0.2834 -1.1555
 2392TIP3    H228668   4.491   2.583   3.843 -0.6485 -0.5886 -0.7762
 2393TIP3   OH228669   5.586   5.696   5.738 -0.1245 -0.1066 -0.2834
 2393TIP3    H128670   5.629   5.757   5.799 -1.1412  0.1452  0.2030
 2393TIP3    H228671   5.495   5.724   5.737 -0.5384 -1.4248 -0.3178
 2394TIP3   OH228672   6.281   1.426  15.353 -0.2563 -0.0773 -0.1547
 2394TIP3    H128673   6.300   1.362  15.422 -0.5350 -0.4409 -0.4164
 2394TIP3    H228674   6.343   1.405  15.283  0.2143  0.4665  0.0900
 2395TIP3   OH228675   1.039   5.433   4.292 -0.2013 -0.1537  0.7276
 2395TIP3    H128676   0.980   5.377   4.342  0.6266 -1.4571  0.2999
 2395TIP3    H228677   1.004   5.433   4.203 -0.6132  0.6342  0.8791
 2396TIP3   OH228678   1.900   2.090   1.517  0.0942 -0.7357 -0.1230
 2396TIP3    H128679   1.824   2.146   1.506  0.0538 -1.0833 -1.9155
 2396TIP3    H228680   1.961   2.119   1.450  0.0968 -2.7646 -1.0729
 2397TIP3   OH228681   0.544   3.460   5.754  0.0779 -0.7679 -0.0101
 2397TIP3    H128682   0.458   3.423   5.775 -1.5217  2.0502 -0.9979
 2397TIP3    H228683   0.553   3.447   5.659 -0.1037  0.4671 -0.2136
 2398TIP3   OH228684   4.179   1.881   4.051 -0.0551 -0.0911 -0.3915
 2398TIP3    H128685   4.200   1.971   4.028  1.2851  0.6148  3.0306
 2398TIP3    H228686   4.259   1.832   4.032 -0.1654 -0.2147 -0.5439
 2399TIP3   OH228687   4.757   6.594  14.512 -0.2210  0.3699 -0.5465
 2399TIP3    H128688   4.802   6.652  14.573 -0.4723  1.1521 -1.0996
 2399TIP3    H228689   4.739   6.648  14.436 -0.2666 -0.4915 -1.1632
 2400TIP3   OH228690   5.739   2.519   3.293 -1.1629 -0.1888  0.3968
 2400TIP3    H128691   5.814   2.529   3.351  0.7348 -0.9538 -1.7883
 2400TIP3    H228692   5.751   2.433   3.253 -1.7917  0.6997 -1.8678
 2401TIP3   OH228693   1.657   4.352   4.664 -0.1417 -0.9559  0.5951
 2401TIP3    H128694   1.722   4.387   4.604 -2.2307 -0.7412 -1.7233
 2401TIP3    H228695   1.604   4.428   4.687 -1.9141 -1.6947 -0.7763
 2402TIP3   OH228696   1.146   0.183   3.343  0.3753  0.1129  0.1383
 2402TIP3    H128697   1.186   0.249   3.400  0.0842 -0.2042  0.7242
 2402TIP3    H228698   1.200   0.184   3.264 -0.2453  1.7647 -0.2935
 2403TIP3   OH228699   0.803   2.956  13.940 -0.0319  0.0875 -0.1247
 2403TIP3    H128700   0.818   2.874  13.986  3.1936 -0.0450 -1.1842
 2403TIP3    H228701   0.762   2.930  13.857 -1.1305 -0.1643  0.4741
 2404TIP3   OH228702   6.450   5.161  17.010  0.1997  0.2791  0.5732
 2404TIP3    H128703   6.398   5.240  17.024  1.2336  0.9279  0.9084
 2404TIP3    H228704   6.427   5.132  16.922  0.9681  1.8848 -0.2050
 2405TIP3   OH228705   5.760   2.726   0.811  0.1187 -0.7855 -0.1139
 2405TIP3    H128706   5.768   2.706   0.905  0.3211  1.2727  0.3384
 2405TIP3    H228707   5.849   2.718   0.777  0.6450  1.5346  0.5664
 2406TIP3   OH228708   1.401   1.056  12.936 -0.0998 -0.2034 -0.0208
 2406TIP3    H128709   1.373   1.098  13.017 -0.0949 -0.5099  0.1408
 2406TIP3    H228710   1.407   0.963  12.958 -0.0254 -0.2778 -0.3523
 2407TIP3   OH228711   1.260   3.333  15.766 -0.0627  0.0923 -0.6296
 2407TIP3    H128712   1.230   3.265  15.706 -1.9672 -0.2462  0.6032
 2407TIP3    H228713   1.273   3.288  15.849 -0.7760  1.1016  0.0634
 2408TIP3   OH228714   4.186   3.624   3.655  0.1498  0.0130  0.4831
 2408TIP3    H128715   4.194   3.655   3.746  1.3435  2.2399 -0.2978
 2408TIP3    H228716   4.275   3.629   3.620 -0.4292  0.0555 -1.0615
 2409TIP3   OH228717   2.352   3.805   1.569 -0.1257 -0.6176  0.2068
 2409TIP3    H128718   2.431   3.783   1.619  0.7089  1.1164 -0.2553
 2409TIP3    H228719   2.284   3.748   1.605  1.6924 -3.4660 -0.6102
 2410TIP3   OH228720   6.774   1.704   2.180 -0.5720 -0.3692  0.1382
 2410TIP3    H128721   6.784   1.611   2.158  0.2532  0.1248 -1.7910
 2410TIP3    H228722   6.771   1.748   2.095 -0.3773  1.4375  1.0296
 2411TIP3   OH228723   3.093   1.777  16.599  0.0179 -0.1486  0.2403
 2411TIP3    H128724   3.070   1.857  16.553 -0.0067 -0.7807 -0.8841
 2411TIP3    H228725   3.186   1.766  16.583 -0.2293 -1.0174 -0.7390
 2412TIP3   OH228726   1.308   5.189  11.322  0.1901  0.2565  0.0166
 2412TIP3    H128727   1.338   5.254  11.385  0.8812  0.7000 -0.7473
 2412TIP3    H228728   1.235   5.232  11.277  1.0669  0.7875 -0.9424
 2413TIP3   OH228729   4.535   6.106   0.205 -0.4409 -0.2338  0.2702
 2413TIP3    H128730   4.588   6.138   0.132 -1.7322  0.6660 -0.3220
 2413TIP3    H228731   4.567   6.154   0.281 -0.1403  0.0045 -0.0075
 2414TIP3   OH228732   2.009   2.276  15.817  0.3465 -0.0813 -0.6294
 2414TIP3    H128733   1.985   2.183  15.808  0.3087 -0.2913  1.1929
 2414TIP3    H228734   1.942   2.312  15.876  0.2564  1.1670 -1.4506
 2415TIP3   OH228735   3.820   1.893   4.460 -0.2386 -0.8892  1.0702
 2415TIP3    H128736   3.862   1.848   4.387  2.4012  2.1286  0.5056
 2415TIP3    H228737   3.738   1.925   4.424  1.5246  1.5599 -1.1414
 2416TIP3   OH228738   3.163   1.364   1.349  0.1424 -0.0252 -0.6224
 2416TIP3    H128739   3.246   1.323   1.372  0.0627  0.2289  0.1609
 2416TIP3    H228740   3.174   1.391   1.258  1.7192  1.8826  0.0627
 2417TIP3   OH228741   2.176   0.555  12.199  1.2016  0.3909 -0.3030
 2417TIP3    H128742   2.118   0.479  12.204  1.2477  0.4436  1.7541
 2417TIP3    H228743   2.116   0.629  12.183  0.6557  0.4137  1.5766
 2418TIP3   OH228744   3.711   5.982   4.896  0.3009 -0.3121 -0.3296
 2418TIP3    H128745   3.778   6.020   4.953  1.4245 -0.8077 -1.2972
 2418TIP3    H228746   3.630   6.028   4.921  0.7455 -0.5069  1.6452
 2419TIP3   OH228747   4.447   6.278  11.424  0.3162 -0.2708 -0.0701
 2419TIP3    H128748   4.406   6.264  11.510 -1.0010  2.9853 -0.0169
 2419TIP3    H228749   4.376   6.261  11.361  0.8910 -1.2920 -0.4655
 2420TIP3   OH228750   6.221   4.165   3.259 -0.8428  0.3263  0.5148
 2420TIP3    H128751   6.257   4.106   3.325 -3.7371 -1.7480  0.4051
 2420TIP3    H228752   6.172   4.231   3.309  0.0965  1.0375  0.5259
 2421TIP3   OH228753   5.531   6.361  12.309  0.0882  0.2119  0.3206
 2421TIP3    H128754   5.479   6.349  12.389 -0.9395  1.7343 -0.0845
 2421TIP3    H228755   5.492   6.437  12.266 -0.3578 -1.4248 -2.4138
 2422TIP3   OH228756   1.416   2.135   1.910 -0.1047  0.1977 -0.1916
 2422TIP3    H128757   1.379   2.051   1.935  0.8531 -0.4633 -0.9000
 2422TIP3    H228758   1.439   2.125   1.817  2.6391  0.2282  0.3972
 2423TIP3   OH228759   0.661   3.711  13.642  0.3143 -0.7608 -0.0709
 2423TIP3    H128760   0.586   3.675  13.690  0.1041 -0.0626  0.1334
 2423TIP3    H228761   0.624   3.782  13.590  0.8955 -0.1864  0.2962
 2424TIP3   OH228762   1.524   5.064  11.545 -0.0511  0.5377 -0.1260
 2424TIP3    H128763   1.524   5.125  11.619 -0.0192  0.1816  0.1697
 2424TIP3    H228764   1.473   5.109  11.477 -0.3705  0.7221  0.2328
 2425TIP3   OH228765   6.312   0.043  10.656 -0.3958  0.0711 -0.4577
 2425TIP3    H128766   6.338  -0.024  10.593 -0.5192 -1.0836  0.6617
 2425TIP3    H228767   6.217   0.051  10.645 -0.3684  0.1142 -0.6545
 2426TIP3   OH228768   2.247   1.017  15.040 -0.2391 -0.0315  0.1406
 2426TIP3    H128769   2.262   1.106  15.072 -0.0329  0.6631 -1.7679
 2426TIP3    H228770   2.204   1.029  14.956 -0.2758 -1.7524 -0.1100
 2427TIP3   OH228771   1.590   2.780   0.386 -0.2546 -0.1197  0.3922
 2427TIP3    H128772   1.659   2.821   0.333 -0.3524  0.8318  0.9937
 2427TIP3    H228773   1.514   2.837   0.377 -0.9640 -1.1184 -0.1960
 2428TIP3   OH228774   4.602   6.760   3.210 -0.2112  0.0414  0.0870
 2428TIP3    H128775   4.534   6.703   3.245 -1.1705  0.8340 -0.4302
 2428TIP3    H228776   4.683   6.729   3.251 -1.0529 -0.0842  1.7273
 2429TIP3   OH228777   1.713   4.655   1.144 -0.1074  0.0783 -0.0873
 2429TIP3    H128778   1.734   4.600   1.218 -0.1390 -0.3199 -0.3713
 2429TIP3    H228779   1.798   4.685   1.111 -0.0419 -0.4910 -0.4501
 2430TIP3   OH228780   0.416   2.338   2.763  0.1510 -0.1888  0.4240
 2430TIP3    H128781   0.336   2.382   2.791 -0.6137 -0.5754 -1.0204
 2430TIP3    H228782   0.444   2.286   2.838 -0.3149  0.8298  1.3173
 2431TIP3   OH228783   6.392   3.594  13.486 -0.2809 -0.7823  0.1085
 2431TIP3    H128784   6.454   3.597  13.559  0.6251 -0.4946 -0.6488
 2431TIP3    H228785   6.441   3.629  13.411 -1.6626  0.3452 -0.3122
 2432TIP3   OH228786   5.776   5.676  16.950  0.0692  0.5594 -0.6050
 2432TIP3    H128787   5.772   5.583  16.974 -0.6880 -0.2044 -3.2823
 2432TIP3    H228788   5.686   5.707  16.961  0.6110  1.4994  1.8084
 2433TIP3   OH228789   0.992   4.309   4.546  0.2532 -0.2231  0.1650
 2433TIP3    H128790   1.014   4.402   4.554 -0.3277 -0.1562  1.1293
 2433TIP3    H228791   0.897   4.305   4.553  0.3740 -1.0463  2.1602
 2434TIP3   OH228792   3.716   1.000  13.821  0.4378 -0.1752 -0.5737
 2434TIP3    H128793   3.802   0.992  13.781  0.9346 -2.9477  0.8179
 2434TIP3    H228794   3.706   1.094  13.840  3.0193  0.2388 -0.9862
 2435TIP3   OH228795   3.696   0.894  11.534 -0.2958 -0.5381  0.5001
 2435TIP3    H128796   3.606   0.900  11.501 -0.5006  0.0272  1.1345
 2435TIP3    H228797   3.743   0.844  11.468 -0.4904  1.2334 -1.0508
 2436TIP3   OH228798   3.782   2.603   1.399  0.4972  0.4931 -0.6576
 2436TIP3    H128799   3.869   2.592   1.439  1.0499  2.4126 -1.2337
 2436TIP3    H228800   3.723   2.560   1.461  1.8495 -0.9978 -0.3239
 2437TIP3   OH228801   6.821   4.754  12.233 -0.3937  0.2225 -0.2742
 2437TIP3    H128802   6.806   4.819  12.302  1.5252  1.5724 -1.0117
 2437TIP3    H228803   6.848   4.675  12.280 -0.8188  0.5768  0.5838
 2438TIP3   OH228804   5.751   5.988   2.474  0.8637  0.4572 -0.3902
 2438TIP3    H128805   5.744   5.943   2.559 -1.2319 -0.4580 -0.9754
 2438TIP3    H228806   5.798   6.069   2.494 -0.4766  0.7896  1.8962
 2439TIP3   OH228807   1.225   4.826   3.772  0.2373 -0.4690  0.0538
 2439TIP3    H128808   1.220   4.837   3.867 -0.8245  1.9102 -0.1889
 2439TIP3    H228809   1.142   4.785   3.748 -0.9221  1.7359 -0.0492
 2440TIP3   OH228810   3.965   5.944  12.274 -0.0063  0.3839  0.5237
 2440TIP3    H128811   3.949   6.014  12.338  1.3919  1.9206 -0.7409
 2440TIP3    H228812   3.997   5.989  12.196 -0.3649 -1.5681 -0.8211
 2441TIP3   OH228813   5.131   3.670   6.337 -0.2248 -0.6604 -0.3328
 2441TIP3    H128814   5.044   3.672   6.297 -1.4995 -1.5943  2.1518
 2441TIP3    H228815   5.141   3.757   6.376 -0.4517 -0.8434  0.1408
 2442TIP3   OH228816   3.388   5.213   2.959  0.6409  0.5049 -0.2144
 2442TIP3    H128817   3.413   5.256   2.877  2.2265  1.4860  0.7282
 2442TIP3    H228818   3.420   5.272   3.028  2.0155 -1.6769  1.1451
 2443TIP3   OH228819   1.390   6.504  11.852  0.2141  0.1200  0.1580
 2443TIP3    H128820   1.402   6.538  11.941 -1.5541 -1.7852  1.2288
 2443TIP3    H228821   1.476   6.512  11.811  1.6068 -0.7076  2.7092
 2444TIP3   OH228822   1.232   4.637  15.679 -0.6416 -0.6653  0.7656
 2444TIP3    H128823   1.160   4.575  15.674 -0.0579 -1.3923  1.1399
 2444TIP3    H228824   1.304   4.595  15.632 -0.5527  0.1940  0.1050
 2445TIP3   OH228825   4.986   5.858   3.949 -0.3955  0.8719  0.6367
 2445TIP3    H128826   5.019   5.769   3.941 -0.1517  0.9919  0.2772
 2445TIP3    H228827   5.063   5.909   3.977  0.0812  1.3805 -1.4174
 2446TIP3   OH228828   2.326   0.849   2.110 -0.4812 -0.6230 -0.3377
 2446TIP3    H128829   2.277   0.825   2.189  1.5071 -0.4269  1.0148
 2446TIP3    H228830   2.364   0.766   2.079  0.3923 -0.4005  0.1049
 2447TIP3   OH228831   5.609   3.868  11.331  0.5721 -0.5430 -0.4641
 2447TIP3    H128832   5.642   3.953  11.361  0.0983 -0.1671 -0.9769
 2447TIP3    H228833   5.631   3.866  11.238 -0.2193 -0.5927 -0.6529
 2448TIP3   OH228834   0.461   6.850   5.778 -0.0616  0.1541 -0.3636
 2448TIP3    H128835   0.366   6.841   5.772 -0.3040  2.4459 -0.9671
 2448TIP3    H228836   0.483   6.916   5.712  1.8294  0.3552  0.4018
 2449TIP3   OH228837   4.868   0.703  10.997 -0.1612  0.4787  0.1520
 2449TIP3    H128838   4.931   0.644  10.956 -0.5115  0.8628 -0.9648
 2449TIP3    H228839   4.841   0.657  11.077  0.7333 -0.1549  0.1058
 2450TIP3   OH228840   3.129   4.101  15.701 -0.3200 -0.1825 -0.5447
 2450TIP3    H128841   3.130   4.177  15.642 -0.3418  0.4279  0.2298
 2450TIP3    H228842   3.039   4.069  15.696 -0.7239  0.7790  0.2903
 2451TIP3   OH228843   5.483   5.275   4.189  0.2609 -0.0108  0.4001
 2451TIP3    H128844   5.515   5.203   4.244  2.5918  0.2428 -0.5244
 2451TIP3    H228845   5.389   5.277   4.205  0.3163 -2.4327  1.4291
 2452TIP3   OH228846   5.413   3.294   5.983  0.4657 -0.5325  0.1382
 2452TIP3    H128847   5.426   3.276   5.890 -0.0757 -1.6979  0.2722
 2452TIP3    H228848   5.405   3.208   6.023 -0.0625 -0.0276  1.1540
 2453TIP3   OH228849   4.319   6.306  10.517 -0.9498 -0.3440 -0.5177
 2453TIP3    H128850   4.316   6.394  10.478  0.2804  0.3398  0.8446
 2453TIP3    H228851   4.362   6.252  10.450  2.5624  1.1468  0.3085
 2454TIP3   OH228852   1.795   4.620  16.859  0.1776  0.1959 -0.2447
 2454TIP3    H128853   1.750   4.625  16.775  1.0062 -0.7214 -0.7635
 2454TIP3    H228854   1.826   4.530  16.864 -0.7326 -0.0715  1.5202
 2455TIP3   OH228855   5.549   1.700  12.380  0.0246 -0.1271 -0.0248
 2455TIP3    H128856   5.552   1.709  12.475 -0.1388 -1.8329  0.1584
 2455TIP3    H228857   5.602   1.773  12.348  0.0379  0.4996  1.3623
 2456TIP3   OH228858   0.488   2.858  12.145  0.1407 -0.0356  0.5038
 2456TIP3    H128859   0.490   2.904  12.061 -1.7038 -1.3469 -0.3315
 2456TIP3    H228860   0.507   2.767  12.123  1.0195 -0.1718  1.7302
 2457TIP3   OH228861   5.259   0.833  16.388 -0.8383 -0.3246  0.0066
 2457TIP3    H128862   5.174   0.876  16.383 -0.7088  0.2195  1.6747
 2457TIP3    H228863   5.321   0.905  16.401 -0.1513 -0.7440 -0.8325
 2458TIP3   OH228864   5.181   2.351   1.595 -0.5945 -0.4109 -0.0775
 2458TIP3    H128865   5.172   2.435   1.640  2.8796 -0.1076  0.3532
 2458TIP3    H228866   5.181   2.286   1.666 -1.0330 -0.5464 -0.2008
 2459TIP3   OH228867   5.047   0.454   4.107 -0.2155 -0.5367 -0.1101
 2459TIP3    H128868   4.997   0.462   4.026 -0.2200  1.0814  0.0109
 2459TIP3    H228869   5.132   0.419   4.079 -0.4571 -0.6521 -0.7130
 2460TIP3   OH228870   1.741   5.344   0.194  0.0399  0.0401 -0.4938
 2460TIP3    H128871   1.760   5.252   0.178 -0.6569 -0.1079 -0.4850
 2460TIP3    H228872   1.752   5.355   0.288 -0.1302 -0.0924 -0.4588
 2461TIP3   OH228873   2.626   0.066   2.305  0.7970 -1.0681 -0.1653
 2461TIP3    H128874   2.613   0.080   2.398 -0.3079 -0.1311 -0.4459
 2461TIP3    H228875   2.700   0.122   2.282 -0.8194  1.0850 -0.4071
 2462TIP3   OH228876   5.443   3.379   5.381  0.4464 -0.3415 -0.4454
 2462TIP3    H128877   5.488   3.351   5.301  1.0564  0.6965 -0.4827
 2462TIP3    H228878   5.357   3.407   5.352 -0.3469 -2.4719 -0.3588
 2463TIP3   OH228879   3.811   6.541  16.287 -0.3239  0.2428  0.7458
 2463TIP3    H128880   3.868   6.482  16.337  1.4978  0.0360 -1.3916
 2463TIP3    H228881   3.734   6.553  16.342  1.4301 -0.0854  3.4904
 2464TIP3   OH228882   6.191   6.697   0.556  0.0757  0.4557  0.5275
 2464TIP3    H128883   6.165   6.662   0.471  1.7237 -0.3766  0.3081
 2464TIP3    H228884   6.134   6.654   0.619 -1.9693  1.9672 -0.2072
 2465TIP3   OH228885   2.730   5.467   1.328 -0.0264 -0.0115  0.4306
 2465TIP3    H128886   2.664   5.524   1.289  0.5517 -0.2002 -0.8650
 2465TIP3    H228887   2.684   5.383   1.341 -0.8636  0.6842  2.2963
 2466TIP3   OH228888   6.341   6.784  16.068 -0.4594  0.4617 -0.1853
 2466TIP3    H128889   6.375   6.792  16.157 -1.4687  3.2483  0.0622
 2466TIP3    H228890   6.251   6.755  16.079 -0.7449  1.2919 -0.2081
 2467TIP3   OH228891   5.820   3.123   3.548 -0.5580 -0.2944 -0.1475
 2467TIP3    H128892   5.748   3.186   3.553 -0.5453 -0.3608  1.0928
 2467TIP3    H228893   5.798   3.056   3.613  1.3549  0.4481  1.3548
 2468TIP3   OH228894   6.735   3.048   1.787  0.2924  0.5033  0.5737
 2468TIP3    H128895   6.674   3.006   1.726  1.0793 -0.6744  0.5547
 2468TIP3    H228896   6.811   3.069   1.733  1.1031 -0.7895  1.1731
 2469TIP3   OH228897   5.619   0.109   3.648 -0.2893 -0.1665 -0.4148
 2469TIP3    H128898   5.610   0.066   3.563 -0.8331  1.5229 -1.2666
 2469TIP3    H228899   5.706   0.147   3.647 -0.8484  1.1878 -0.9251
 2470TIP3   OH228900   0.773   1.616   0.634 -0.2588 -0.4581 -0.1603
 2470TIP3    H128901   0.824   1.589   0.557 -1.0717 -1.0370 -0.5137
 2470TIP3    H228902   0.838   1.647   0.697  0.2852  2.6834 -2.0615
 2471TIP3   OH228903   3.197   5.844  16.977  0.1840  0.5069 -0.2243
 2471TIP3    H128904   3.231   5.917  17.029 -0.3359 -0.7248  1.9520
 2471TIP3    H228905   3.105   5.837  17.001 -0.3184  0.4899 -2.0646
 2472TIP3   OH228906   5.094   4.648  14.893  0.1124 -0.4475 -0.2155
 2472TIP3    H128907   5.086   4.742  14.878 -1.9206 -0.7042 -0.9723
 2472TIP3    H228908   5.107   4.640  14.988  2.2255  0.6358 -0.3407
 2473TIP3   OH228909   1.398   6.509   3.862  0.3620  0.7697  0.1012
 2473TIP3    H128910   1.388   6.489   3.768  0.9525  2.5941 -0.3996
 2473TIP3    H228911   1.437   6.430   3.899 -1.6750 -0.7523 -0.7682
 2474TIP3   OH228912   3.837   1.822   5.367  0.0307 -0.0680 -0.1799
 2474TIP3    H128913   3.813   1.799   5.277  0.0472  0.6475 -0.3764
 2474TIP3    H228914   3.932   1.835   5.364  0.0071  0.1340 -0.1049
 2475TIP3   OH228915   4.124   0.592  16.635  0.0910  0.3105  0.2199
 2475TIP3    H128916   4.036   0.595  16.673  0.7180  0.6357  1.7401
 2475TIP3    H228917   4.114   0.628  16.547 -1.5473 -1.0373 -0.1989
 2476TIP3   OH228918   3.580   5.413  15.206  0.2205 -0.9684  0.3495
 2476TIP3    H128919   3.510   5.439  15.266  1.5751  2.3720  0.6971
 2476TIP3    H228920   3.559   5.457  15.124  0.1476 -2.8000 -0.6699
 2477TIP3   OH228921   5.325   4.410  15.488  0.1253  0.1575  0.2232
 2477TIP3    H128922   5.231   4.431  15.485 -0.2798 -1.6250 -0.5326
 2477TIP3    H228923   5.328   4.317  15.510  1.7155  0.1426  0.0312
 2478TIP3   OH228924   4.273   3.213   1.366  0.2793 -0.0573  0.4245
 2478TIP3    H128925   4.237   3.300   1.383  0.9521  1.1531 -3.4975
 2478TIP3    H228926   4.367   3.228   1.352  0.6825 -1.6961  1.0620
 2479TIP3   OH228927   5.270   3.816   5.065 -0.3412  0.5062  0.3999
 2479TIP3    H128928   5.331   3.749   5.096  0.1931  1.5029  1.6060
 2479TIP3    H228929   5.326   3.888   5.036 -0.9127  0.5939 -0.5300
 2480TIP3   OH228930   3.366   2.436   0.795 -0.3725 -0.0531 -0.6769
 2480TIP3    H128931   3.422   2.510   0.815 -3.5408  2.3982 -0.0735
 2480TIP3    H228932   3.379   2.375   0.868 -0.4161  1.6915  0.8535
 2481TIP3   OH228933   6.020   4.547  11.412  1.0134  0.4686 -0.2251
 2481TIP3    H128934   6.112   4.521  11.420  0.5226 -2.6760 -2.6036
 2481TIP3    H228935   5.971   4.466  11.427 -1.1374  1.2900 -2.1771
 2482TIP3   OH228936   0.411   0.851   2.112  0.3095 -0.4538  0.3949
 2482TIP3    H128937   0.338   0.790   2.103 -0.5407  0.7280 -1.1641
 2482TIP3    H228938   0.429   0.881   2.023  2.2617 -0.1989  0.8316
 2483TIP3   OH228939   2.930   5.669  13.364  0.0179 -0.5320 -0.5667
 2483TIP3    H128940   2.913   5.718  13.284 -0.2299  0.5606  0.1242
 2483TIP3    H228941   2.845   5.634  13.389  0.2293 -1.5016 -1.1608
 2484TIP3   OH228942   4.137   4.490  16.974  0.8384  0.9247  0.0606
 2484TIP3    H128943   4.087   4.539  17.040  2.8265  1.4880  1.2554
 2484TIP3    H228944   4.228   4.501  17.001  1.4945 -2.0315 -0.6224
 2485TIP3   OH228945   4.947   4.432   4.208 -0.2148 -0.3515  0.6459
 2485TIP3    H128946   4.858   4.422   4.175 -0.6889  2.4317  0.8068
 2485TIP3    H228947   4.948   4.386   4.291 -1.6357 -0.1422  0.7973
 2486TIP3   OH228948   0.302   0.404  11.232  0.2714 -0.1643  0.2764
 2486TIP3    H128949   0.224   0.362  11.195  0.2409  0.7322 -0.7520
 2486TIP3    H228950   0.312   0.484  11.180  0.8409  0.6377  1.5777
 2487TIP3   OH228951   4.797   4.139  15.619 -0.0326 -0.0095  0.1000
 2487TIP3    H128952   4.728   4.178  15.566  0.4099  1.7597  0.7293
 2487TIP3    H228953   4.778   4.046  15.620 -1.6574  0.2833 -0.8070
 2488TIP3   OH228954   4.031   6.530   2.873  0.8209  0.7114  0.0303
 2488TIP3    H128955   4.029   6.606   2.931  0.7107  1.0784 -0.4499
 2488TIP3    H228956   3.979   6.557   2.797  2.1363  0.7560 -0.8809
 2489TIP3   OH228957   5.874   1.504  11.820 -0.1856 -0.3013 -0.3356
 2489TIP3    H128958   5.818   1.569  11.861  1.3219  0.0595  1.2974
 2489TIP3    H228959   5.893   1.539  11.733 -0.6311  0.6719 -0.0539
 2490TIP3   OH228960   4.863   0.337  13.804  0.0743  0.0758 -0.0280
 2490TIP3    H128961   4.828   0.380  13.882  1.0130  0.5341  0.1492
 2490TIP3    H228962   4.905   0.258  13.836  2.6997  1.4860  0.3292
 2491TIP3   OH228963   3.252   6.502  15.174 -0.1309 -0.0025 -0.3563
 2491TIP3    H128964   3.279   6.510  15.265 -0.5243  1.2474 -0.3391
 2491TIP3    H228965   3.276   6.412  15.150 -0.2834 -0.4348  1.0477
 2492TIP3   OH228966   1.073   4.976  11.025 -0.1699  0.4032 -0.5435
 2492TIP3    H128967   1.085   5.068  11.050  0.9046  0.5960 -1.6835
 2492TIP3    H228968   1.000   4.979  10.962  0.2147  0.5673 -0.9922
 2493TIP3   OH228969   4.565   1.828   0.374  0.5243 -0.1806  0.3292
 2493TIP3    H128970   4.606   1.762   0.430 -0.1500 -1.5344 -0.7278
 2493TIP3    H228971   4.572   1.793   0.286 -1.7789  0.0913 -0.0297
 2494TIP3   OH228972   2.661   1.057  11.493 -0.3109 -0.1992 -0.2721
 2494TIP3    H128973   2.683   0.964  11.500  1.8153  0.2992  0.8873
 2494TIP3    H228974   2.588   1.068  11.553  0.6684 -0.8369  1.1239
 2495TIP3   OH228975   3.908   2.124  11.613 -0.4634 -0.2316 -0.2798
 2495TIP3    H128976   3.835   2.063  11.627  0.2645 -1.0862 -0.1230
 2495TIP3    H228977   3.980   2.088  11.666  0.3571  0.0699 -1.1629
 2496TIP3   OH228978   5.527   2.527   5.964  0.2695 -0.2022  0.2782
 2496TIP3    H128979   5.622   2.525   5.952  0.2300  0.2562 -0.1555
 2496TIP3    H228980   5.512   2.591   6.033  0.2650 -0.1024  0.1860
 2497TIP3   OH228981   4.905   3.814  12.931  0.1194  0.7897  0.4424
 2497TIP3    H128982   4.843   3.794  12.862  1.6041  1.7611 -1.2552
 2497TIP3    H228983   4.860   3.789  13.012 -1.8958  0.1694 -0.8041
 2498TIP3   OH228984   0.860   3.991  15.421 -0.5210  0.2254  0.0195
 2498TIP3    H128985   0.925   3.969  15.354 -1.1252 -1.0068 -0.1862
 2498TIP3    H228986   0.887   4.077  15.454  0.5272  0.2566 -0.8887
 2499TIP3   OH228987   0.490   1.600   3.948 -0.9812 -0.2715 -0.0806
 2499TIP3    H128988   0.547   1.569   4.018 -0.6706 -2.3868 -1.2022
 2499TIP3    H228989   0.531   1.682   3.919  0.3216 -0.6949  0.4827
 2500TIP3   OH228990   6.551   1.200   4.051 -0.2184  0.4182  0.0690
 2500TIP3    H128991   6.493   1.176   4.124 -0.0385  0.0022  0.0785
 2500TIP3    H228992   6.623   1.247   4.092 -0.5615  0.9591  0.0542
 2501TIP3   OH228993   5.005   6.670  11.720  0.4364  0.2971  0.2969
 2501TIP3    H128994   5.080   6.679  11.661  0.5781 -2.7029 -0.1764
 2501TIP3    H228995   4.976   6.580  11.707 -2.7449  1.0836  1.1179
 2502TIP3   OH228996   1.202   1.472  14.570 -0.4627 -0.3394  0.4241
 2502TIP3    H128997   1.222   1.479  14.476 -2.2320  1.8044  0.1211
 2502TIP3    H228998   1.138   1.401  14.575 -1.9997  0.9039 -0.3861
 2503TIP3   OH228999   4.149   1.499  11.362  0.2388 -0.6052 -0.3504
 2503TIP3    H129000   4.088   1.572  11.362 -0.6908 -1.3554 -0.8394
 2503TIP3    H229001   4.196   1.506  11.445 -0.6560 -0.1210  0.1201
 2504TIP3   OH229002   4.146   3.983  15.606  0.1049 -0.3891 -0.7082
 2504TIP3    H129003   4.149   4.061  15.550 -0.0937  0.3238  0.2491
 2504TIP3    H229004   4.084   4.005  15.675 -0.7040 -1.7748 -0.9490
 2505TIP3   OH229005   0.489   5.720  12.040 -0.3523 -0.1768  0.0972
 2505TIP3    H129006   0.410   5.681  12.001 -1.4095  1.6976  0.2534
 2505TIP3    H229007   0.535   5.760  11.967 -1.5697  2.0434  0.4589
 2506TIP3   OH229008   3.720   4.164   1.837  0.5510  0.0617 -0.5480
 2506TIP3    H129009   3.725   4.229   1.907 -0.3210 -0.2231 -0.2078
 2506TIP3    H229010   3.784   4.194   1.772  0.7704  0.7872 -0.0116
 2507TIP3   OH229011   1.635   1.504   1.487  0.6200  0.9967  0.4035
 2507TIP3    H129012   1.623   1.417   1.525 -1.6687  2.3971  3.3140
 2507TIP3    H229013   1.567   1.510   1.420  0.0499  0.9007  0.9626
 2508TIP3   OH229014   3.891   3.267  15.122 -0.0480  0.4828  0.1334
 2508TIP3    H129015   3.818   3.297  15.176 -0.5723 -0.2231 -0.1642
 2508TIP3    H229016   3.919   3.345  15.073  1.3701  1.5010  2.4147
 2509TIP3   OH229017   5.663   5.082   6.276 -0.4341  0.6117 -0.1290
 2509TIP3    H129018   5.745   5.073   6.324 -0.2306  1.7802 -0.2325
 2509TIP3    H229019   5.625   5.163   6.309 -0.2969  1.4515 -1.9104
 2510TIP3   OH229020   4.672   4.740  13.040  0.0337  0.1135  0.3128
 2510TIP3    H129021   4.760   4.757  13.075 -0.1992 -1.1086  1.5577
 2510TIP3    H229022   4.614   4.752  13.115 -0.7200 -0.4035 -0.1811
 2511TIP3   OH229023   5.365   3.963  13.210 -0.1299 -0.0204  0.2116
 2511TIP3    H129024   5.331   4.031  13.152  0.4865  0.3435  0.2689
 2511TIP3    H229025   5.331   3.985  13.296 -0.8684 -0.4374  0.0326
 2512TIP3   OH229026   4.952   5.237  14.522 -0.7043 -0.1437 -0.9155
 2512TIP3    H129027   4.968   5.250  14.428 -0.5807  0.6239 -0.7934
 2512TIP3    H229028   5.021   5.288  14.565 -0.3280 -1.0596 -0.4017
 2513TIP3   OH229029   6.651   3.759   1.980 -0.3741  0.3006 -0.2522
 2513TIP3    H129030   6.641   3.699   1.906  0.1644 -1.1075  0.7802
 2513TIP3    H229031   6.648   3.703   2.058  0.5904  1.5491  0.7384
 2514TIP3   OH229032   5.598   6.799   5.598 -0.0806  0.0556  0.6382
 2514TIP3    H129033   5.619   6.725   5.655  0.4555  1.1839  1.9613
 2514TIP3    H229034   5.616   6.767   5.510 -1.4748 -1.9355  0.9943
 2515TIP3   OH229035   2.097   1.671   0.382 -0.1149 -0.5461 -0.0550
 2515TIP3    H129036   2.097   1.577   0.362 -0.5435 -0.5586 -0.0048
 2515TIP3    H229037   2.137   1.676   0.469  2.3894 -0.4291 -1.1259
 2516TIP3   OH229038   6.829   2.068   2.089  0.1499 -0.6091 -0.2220
 2516TIP3    H129039   6.747   2.018   2.089  0.1309 -0.6014  0.6548
 2516TIP3    H229040   6.805   2.152   2.129  0.2390  0.0155 -1.4284
 2517TIP3   OH229041   5.425   3.891   4.594  0.0403 -0.1452 -0.1198
 2517TIP3    H129042   5.375   3.810   4.583 -0.4247 -0.2303  2.0560
 2517TIP3    H229043   5.359   3.961   4.594 -0.1259 -0.2191  2.3242
 2518TIP3   OH229044   4.901   5.438  12.684  0.4639 -0.2765  0.6458
 2518TIP3    H129045   4.957   5.416  12.610  0.2933 -2.9258  1.2085
 2518TIP3    H229046   4.905   5.361  12.741 -0.7449  0.9967  2.5672
 2519TIP3   OH229047   5.076   2.566   4.281  0.1715  0.1269  0.2303
 2519TIP3    H129048   5.032   2.490   4.318 -0.0411  0.0218 -0.2415
 2519TIP3    H229049   5.127   2.602   4.354  0.1983 -0.4092  0.4751
 2520TIP3   OH229050   0.724   5.268   5.139  0.2018  0.2191 -0.4807
 2520TIP3    H129051   0.748   5.359   5.150  0.2427  0.0656  0.9788
 2520TIP3    H229052   0.649   5.269   5.079  1.4837  1.0028 -2.1149
 2521TIP3   OH229053   1.119   3.101  15.008  0.0084  0.1218 -0.2802
 2521TIP3    H129054   1.070   3.020  14.994 -1.0431  0.3312  1.8456
 2521TIP3    H229055   1.158   3.091  15.094  0.3568  1.6516 -0.2304
 2522TIP3   OH229056   5.070   5.043   4.467 -0.2579  0.2905  0.3899
 2522TIP3    H129057   5.099   5.027   4.377 -0.7766 -0.3051  0.3202
 2522TIP3    H229058   5.105   5.129   4.488 -0.3555  0.5539 -0.4724
 2523TIP3   OH229059   3.184   4.161   2.737 -0.5742  0.0105 -0.7407
 2523TIP3    H129060   3.233   4.243   2.744 -0.1197 -0.2836 -0.4083
 2523TIP3    H229061   3.129   4.159   2.815  2.6995 -2.1009  1.8061
 2524TIP3   OH229062   2.998   5.377  11.566 -0.1001  0.3455  0.1162
 2524TIP3    H129063   2.961   5.404  11.482 -1.4121 -1.3987  0.0857
 2524TIP3    H229064   2.995   5.457  11.620  0.3732  1.3778 -1.3362
 2525TIP3   OH229065   0.258   2.381   5.851  0.1472 -0.4205  0.7801
 2525TIP3    H129066   0.322   2.364   5.782 -0.8348 -2.0137  0.2019
 2525TIP3    H229067   0.197   2.444   5.813 -1.6796 -2.9207 -0.7725
 2526TIP3   OH229068   0.708   5.898   3.490 -0.2490 -0.5193  0.2845
 2526TIP3    H129069   0.774   5.953   3.532  1.7320 -1.9000 -0.8191
 2526TIP3    H229070   0.705   5.819   3.545 -0.5580 -0.6995  0.0109
 2527TIP3   OH229071   4.472   0.901  12.019  0.5482  0.2106  0.2591
 2527TIP3    H129072   4.400   0.843  11.996  0.3646  1.2033 -1.9223
 2527TIP3    H229073   4.449   0.935  12.106 -1.2961  0.0445 -0.1361
 2528TIP3   OH229074   0.313   0.980   3.520  0.0935 -0.5000 -1.1482
 2528TIP3    H129075   0.352   0.991   3.433 -1.0122  2.0793 -1.4033
 2528TIP3    H229076   0.221   0.963   3.503  0.2809 -2.3199 -0.4795
 2529TIP3   OH229077   6.328   6.467   2.788 -0.1074  0.3773 -0.3143
 2529TIP3    H129078   6.305   6.559   2.801  1.3355  0.5091  1.7832
 2529TIP3    H229079   6.383   6.445   2.863  0.3353 -1.9602 -1.2353
 2530TIP3   OH229080   0.677   1.736  11.915  0.0760 -0.1409 -0.0160
 2530TIP3    H129081   0.727   1.751  11.834  0.6793  0.8144  0.5103
 2530TIP3    H229082   0.730   1.672  11.964 -0.3964 -0.8819 -0.4540
 2531TIP3   OH229083   3.134   4.174   1.929  0.1491  0.6764 -0.4526
 2531TIP3    H129084   3.099   4.116   1.861  1.2016  2.1980 -2.3730
 2531TIP3    H229085   3.228   4.181   1.909  0.4416  1.3696  1.0180
 2532TIP3   OH229086   0.059   4.726  13.704  0.0709  0.4107 -0.8016
 2532TIP3    H129087   0.036   4.646  13.656  1.0018  0.4261 -1.2760
 2532TIP3    H229088   0.138   4.758  13.662  1.0291  0.3269  0.8465
 2533TIP3   OH229089   5.096   2.465  16.250  0.7597 -0.1561 -0.5512
 2533TIP3    H129090   5.121   2.406  16.179  2.7763  0.7796 -0.7050
 2533TIP3    H229091   5.119   2.552  16.217 -0.2269  0.5188  0.4663
 2534TIP3   OH229092   5.216   4.990   4.236 -0.0243  0.6742 -0.0807
 2534TIP3    H129093   5.271   5.042   4.177  0.6005  0.8615  0.6519
 2534TIP3    H229094   5.247   4.900   4.224  0.7912  0.8421  0.6910
 2535TIP3   OH229095   2.788   1.499  10.649 -0.2023  0.5805 -0.2421
 2535TIP3    H129096   2.702   1.535  10.670 -0.1885  1.8216 -2.0702
 2535TIP3    H229097   2.820   1.554  10.578  0.6998 -1.8365 -1.8383
 2536TIP3   OH229098   1.880   6.611  12.645  0.6217  0.4793  0.0272
 2536TIP3    H129099   1.855   6.568  12.563 -2.7741 -1.7845  1.9794
 2536TIP3    H229100   1.961   6.568  12.671  1.1252  0.4207 -1.5234
 2537TIP3   OH229101   0.255   4.366  11.255  0.3065 -0.0574  0.1714
 2537TIP3    H129102   0.187   4.434  11.256  0.1510 -0.1576  2.1936
 2537TIP3    H229103   0.314   4.391  11.326  0.9888 -1.3179  0.0781
 2538TIP3   OH229104   1.625   5.836   1.635  0.1379 -0.2961  0.0069
 2538TIP3    H129105   1.558   5.902   1.651 -1.4743 -1.0417 -3.0018
 2538TIP3    H229106   1.659   5.815   1.722 -1.5963  2.0734  1.3738
 2539TIP3   OH229107   0.994   3.882   5.618  0.5064 -0.4464  0.2606
 2539TIP3    H129108   0.929   3.950   5.603 -1.9913 -2.5674  0.6009
 2539TIP3    H229109   1.020   3.893   5.709  0.9531  0.6638  0.0113
 2540TIP3   OH229110   3.918   6.168  15.481 -0.3145  0.1041  0.7809
 2540TIP3    H129111   3.896   6.259  15.463  0.0414  0.6736  2.9661
 2540TIP3    H229112   3.844   6.118  15.445  0.3463  1.0174 -2.1052
 2541TIP3   OH229113   0.391   6.071  13.515 -0.3622 -0.7562 -0.1325
 2541TIP3    H129114   0.415   6.110  13.431  2.8426  3.1774  2.2365
 2541TIP3    H229115   0.353   6.144  13.565  1.3655 -1.8396  3.0215
 2542TIP3   OH229116   2.324   2.642  12.458  0.6566 -0.5726 -0.1324
 2542TIP3    H129117   2.344   2.603  12.373  2.0132  0.3625 -0.2821
 2542TIP3    H229118   2.358   2.580  12.522 -0.8509 -1.5391 -0.2223
 2543TIP3   OH229119   4.942   3.178   0.668 -0.1271 -0.2422 -0.5766
 2543TIP3    H129120   5.016   3.119   0.648 -0.5683 -0.4781 -1.5768
 2543TIP3    H229121   4.867   3.137   0.625 -0.9646 -0.2822  0.8705
 2544TIP3   OH229122   2.573   4.752   3.149  0.2369 -0.2026 -0.1372
 2544TIP3    H129123   2.505   4.770   3.214 -0.1821 -2.8577  0.2624
 2544TIP3    H229124   2.655   4.766   3.196 -0.0555 -2.2493  1.1177
 2545TIP3   OH229125   0.825   2.479  10.779 -0.2025  0.2319  0.3142
 2545TIP3    H129126   0.804   2.400  10.729 -1.7984  0.8112 -0.0101
 2545TIP3    H229127   0.837   2.546  10.712  3.3346 -0.1090  0.4461
 2546TIP3   OH229128   5.183   5.039  15.462 -0.3249 -0.8446  0.0573
 2546TIP3    H129129   5.255   5.094  15.494  0.0428 -0.9765 -0.5196
 2546TIP3    H229130   5.183   4.963  15.519 -0.5898 -0.4259  0.6217
 2547TIP3   OH229131   4.909   5.405   5.681 -0.5294 -0.0312 -0.0305
 2547TIP3    H129132   4.848   5.403   5.608  0.3438  0.5896 -0.7954
 2547TIP3    H229133   4.900   5.319   5.722 -1.5822 -0.1046 -0.3980
 2548TIP3   OH229134   1.134   1.927   2.230 -0.2209  0.0498 -0.4476
 2548TIP3    H129135   1.112   1.846   2.184 -0.6109 -0.2541  0.2429
 2548TIP3    H229136   1.095   1.996   2.177 -1.1327 -0.3354 -0.3177
 2549TIP3   OH229137   6.166   4.689  12.825  0.3717  0.3554 -0.2090
 2549TIP3    H129138   6.231   4.714  12.890 -0.0769 -0.0793  0.4253
 2549TIP3    H229139   6.217   4.661  12.749  0.9076  0.6071  0.0571
 2550TIP3   OH229140   6.400   1.925  13.885  0.1239 -0.0808 -0.1367
 2550TIP3    H129141   6.454   2.003  13.897  0.8969 -0.4563 -1.1384
 2550TIP3    H229142   6.319   1.946  13.933  1.6679 -0.1205  2.7250
 2551TIP3   OH229143   2.545   5.207   0.309 -0.0348 -0.6429  0.5406
 2551TIP3    H129144   2.538   5.112   0.310  0.0460 -0.6700 -0.3211
 2551TIP3    H229145   2.587   5.227   0.225  0.5121  0.1179  0.9877
 2552TIP3   OH229146   4.631   3.649  15.079 -0.5547 -0.0716 -0.1758
 2552TIP3    H129147   4.688   3.650  15.003 -1.4751 -1.1485 -0.9047
 2552TIP3    H229148   4.672   3.587  15.139 -1.5149 -1.7635 -1.1900
 2553TIP3   OH229149   3.884   0.047  14.467  0.1491 -0.7016 -0.6697
 2553TIP3    H129150   3.860  -0.043  14.445  0.5127 -0.4594 -2.1618
 2553TIP3    H229151   3.826   0.101  14.414 -0.3275 -0.0304  0.4929
 2554TIP3   OH229152   6.597   3.628   5.609  0.4730  0.1376  0.3352
 2554TIP3    H129153   6.515   3.644   5.657  0.5833 -0.5751  0.7659
 2554TIP3    H229154   6.666   3.642   5.674  0.6690  0.1117  0.1327
 2555TIP3   OH229155   5.782   6.186   3.357 -0.2147  0.0079  0.2797
 2555TIP3    H129156   5.847   6.175   3.288 -0.3243  1.0408  0.0039
 2555TIP3    H229157   5.769   6.097   3.391  1.2168 -0.2310  0.2448
 2556TIP3   OH229158   4.969   6.767   4.852  0.0074 -0.1702 -0.0857
 2556TIP3    H129159   5.013   6.810   4.779 -0.3608  1.2842  0.5076
 2556TIP3    H229160   4.928   6.839   4.900 -1.1409 -1.2691  0.6210
 2557TIP3   OH229161   3.095   4.936  14.100 -0.3128  1.0965  0.1407
 2557TIP3    H129162   3.066   4.892  14.180 -0.5345  1.9977  0.5703
 2557TIP3    H229163   3.174   4.983  14.126 -1.8129  3.5264  0.5369
 2558TIP3   OH229164   6.837   0.430  16.972 -0.2019  0.2004 -0.3923
 2558TIP3    H129165   6.825   0.471  17.057  1.0316  0.0805 -0.1281
 2558TIP3    H229166   6.818   0.337  16.987 -0.5164  0.2658 -0.3832
 2559TIP3   OH229167   4.757   0.058  13.541  0.4995 -0.4227  0.4500
 2559TIP3    H129168   4.743   0.018  13.627 -1.3645  1.6844  1.2137
 2559TIP3    H229169   4.770   0.151  13.559 -2.1016  0.4732 -1.6016
 2560TIP3   OH229170   6.220   5.358  11.171 -0.2829  0.1843  0.2961
 2560TIP3    H129171   6.213   5.382  11.264 -0.3763 -1.0150  0.6162
 2560TIP3    H229172   6.229   5.263  11.172  1.3043  0.2778 -0.8413
 2561TIP3   OH229173   6.221   2.703   0.009 -0.0133 -0.3251  0.5239
 2561TIP3    H129174   6.129   2.687   0.032 -0.7690  1.5354 -0.9234
 2561TIP3    H229175   6.228   2.673  -0.082  1.3450 -2.1123  1.1620
 2562TIP3   OH229176   2.640   3.812   5.545  0.3133 -0.0895 -0.1150
 2562TIP3    H129177   2.558   3.817   5.496  0.1069  1.4474  0.3178
 2562TIP3    H229178   2.665   3.904   5.558  0.9161 -0.4692  1.7185
 2563TIP3   OH229179   1.088   1.349  11.596 -0.2088  0.2783 -0.1032
 2563TIP3    H129180   1.092   1.445  11.594 -0.9059  0.3042 -0.7207
 2563TIP3    H229181   1.145   1.325  11.669 -0.6067  1.2017  0.5417
 2564TIP3   OH229182   5.970   4.338  13.316 -0.6593  0.5015 -0.2829
 2564TIP3    H129183   5.973   4.310  13.225 -0.3634 -0.1774 -0.0714
 2564TIP3    H229184   6.062   4.354  13.339 -0.2170 -2.9565  0.9657
 2565TIP3   OH229185   2.767   5.410   0.531 -0.1775 -0.7379 -0.4161
 2565TIP3    H129186   2.679   5.436   0.504 -0.3158  0.3849  1.0051
 2565TIP3    H229187   2.805   5.370   0.453 -0.9854  1.2087 -1.8862
 2566TIP3   OH229188   4.473   1.441   5.051  0.2670 -0.5377  0.7822
 2566TIP3    H129189   4.501   1.525   5.088  1.1171  0.3790 -1.7753
 2566TIP3    H229190   4.512   1.376   5.109  2.5478  0.8088  0.8948
 2567TIP3   OH229191   1.870   0.884  14.024 -0.4755  0.7709  0.5292
 2567TIP3    H129192   1.805   0.819  13.998 -0.7571  0.5688  1.6859
 2567TIP3    H229193   1.900   0.922  13.942 -3.5238  2.3558  0.0289
 2568TIP3   OH229194   6.096   3.174  14.807 -0.1522 -0.4018  0.1243
 2568TIP3    H129195   6.057   3.114  14.743 -1.1594 -0.0047  0.3605
 2568TIP3    H229196   6.191   3.165  14.793 -0.2246 -2.7404  0.7858
 2569TIP3   OH229197   3.782   3.291  14.042  0.3292  0.1291  0.3487
 2569TIP3    H129198   3.877   3.295  14.041  0.3253  1.1032  1.7222
 2569TIP3    H229199   3.756   3.322  13.955  1.2507 -0.1442 -0.0399
 2570TIP3   OH229200   2.795   6.755  13.340  0.0104  0.2130  0.6828
 2570TIP3    H129201   2.718   6.706  13.369  0.3432  0.8112  2.7352
 2570TIP3    H229202   2.812   6.817  13.410  2.5196 -0.0822  0.4374
 2571TIP3   OH229203   1.150   3.132   1.517  0.1460 -0.0329  0.2086
 2571TIP3    H129204   1.085   3.167   1.457  0.0576  0.2999  0.4898
 2571TIP3    H229205   1.174   3.207   1.572  0.2260 -0.3312  0.5835
 2572TIP3   OH229206   3.944   4.591   0.086  0.2012  0.5288  0.3253
 2572TIP3    H129207   3.945   4.595   0.182 -0.2592  0.1249  0.3517
 2572TIP3    H229208   3.877   4.654   0.060  0.7361  1.0623  0.2429
 2573TIP3   OH229209   0.864   6.608   1.114  0.4655  0.4365 -0.0410
 2573TIP3    H129210   0.873   6.696   1.151  0.2943 -0.0698  1.2445
 2573TIP3    H229211   0.828   6.623   1.026 -2.4408  1.5378  1.2116
 2574TIP3   OH229212   3.885   4.892  15.921  0.0341 -0.4777 -0.3323
 2574TIP3    H129213   3.838   4.929  15.996 -1.3784  3.5844 -2.8630
 2574TIP3    H229214   3.852   4.803  15.913 -2.7283  0.2436  1.6027
 2575TIP3   OH229215   6.258   4.003  11.839 -0.5731 -0.2904  0.1909
 2575TIP3    H129216   6.192   4.026  11.905  0.6643 -1.3011  1.8549
 2575TIP3    H229217   6.273   4.085  11.792 -1.7218  0.3960  0.9572
 2576TIP3   OH229218   3.132   6.399  10.857 -0.0153  0.1999  0.0817
 2576TIP3    H129219   3.136   6.491  10.880  1.9061  1.1758 -3.3703
 2576TIP3    H229220   3.218   6.380  10.818 -0.0947 -3.2649  1.2367
 2577TIP3   OH229221   1.205   4.749  16.783 -0.0297 -0.1605  0.2510
 2577TIP3    H129222   1.157   4.751  16.866 -0.0779  1.2332  0.2036
 2577TIP3    H229223   1.280   4.693  16.800 -0.8207 -1.0931  0.7907
 2578TIP3   OH229224   0.630   3.996   0.848 -0.4960  0.2202 -0.0568
 2578TIP3    H129225   0.686   4.072   0.866  0.3078  0.0015 -1.4446
 2578TIP3    H229226   0.564   3.998   0.917  0.4596  1.2449  0.8840
 2579TIP3   OH229227   4.641   6.439   4.811  0.2131  0.6140  0.4867
 2579TIP3    H129228   4.730   6.463   4.787  0.8415 -0.4559  1.6609
 2579TIP3    H229229   4.629   6.473   4.900  0.3522 -1.3515  1.3104
 2580TIP3   OH229230   0.270   2.112   6.031  0.7454 -0.4750 -0.1341
 2580TIP3    H129231   0.316   2.044   6.080  0.4207  0.1526  1.0868
 2580TIP3    H229232   0.318   2.192   6.052  0.8049 -0.2399 -1.1326
 2581TIP3   OH229233   0.022   1.221  16.107 -0.4739 -0.5366  0.5773
 2581TIP3    H129234  -0.039   1.147  16.116  1.7824 -2.5675  0.1782
 2581TIP3    H229235  -0.004   1.264  16.026 -1.4145 -1.3091  0.4464
 2582TIP3   OH229236   5.821   1.513   5.688  0.0876  0.0539  0.1067
 2582TIP3    H129237   5.801   1.603   5.716  0.2923  0.4366 -0.9381
 2582TIP3    H229238   5.917   1.509   5.689  0.0726 -0.2423  0.4108
 2583TIP3   OH229239   2.080   2.699  16.637  0.1246  0.0255  0.2045
 2583TIP3    H129240   2.117   2.785  16.617 -0.4877  0.5354  1.1193
 2583TIP3    H229241   2.003   2.692  16.580 -1.4302  1.3306  1.9869
 2584TIP3   OH229242   4.722   4.150  15.895 -0.9092  0.3180  0.3665
 2584TIP3    H129243   4.741   4.143  15.801 -1.6239  2.0519  0.0475
 2584TIP3    H229244   4.809   4.155  15.936 -0.5849  0.9177 -0.3535
 2585TIP3   OH229245   6.257   5.588  12.999  0.2000 -0.3555 -0.2457
 2585TIP3    H129246   6.292   5.587  13.089 -3.3429  0.9973  1.3184
 2585TIP3    H229247   6.324   5.634  12.949  2.7269 -1.9434  1.4067
 2586TIP3   OH229248   3.950   2.459   3.832  0.4182  0.1148  0.0552
 2586TIP3    H129249   4.044   2.444   3.842  0.2420 -0.9111  0.3206
 2586TIP3    H229250   3.912   2.371   3.825 -0.3188  0.5628 -2.1189
 2587TIP3   OH229251   1.971   4.805   4.524 -0.3348  0.3866 -0.6220
 2587TIP3    H129252   1.896   4.746   4.516  0.1069  0.0778 -3.3690
 2587TIP3    H229253   2.022   4.791   4.444  1.4654  2.2509  0.0960
 2588TIP3   OH229254   2.014   2.230   3.834  0.1119  0.5901  0.5732
 2588TIP3    H129255   1.968   2.149   3.855  1.0820  0.4307  2.2400
 2588TIP3    H229256   2.086   2.202   3.778 -0.5377  0.5580 -0.2710
 2589TIP3   OH229257   1.287   2.414  16.406 -0.0853 -0.7711  0.2551
 2589TIP3    H129258   1.301   2.509  16.415 -0.7672 -0.3701 -2.2825
 2589TIP3    H229259   1.374   2.376  16.423  0.5352  0.4330 -0.0676
 2590TIP3   OH229260   6.023   3.267  12.995  0.2638 -0.1318  0.0331
 2590TIP3    H129261   6.079   3.224  13.059  1.2569  0.9141 -0.0881
 2590TIP3    H229262   5.994   3.197  12.937 -0.1952 -0.9972  1.2737
 2591TIP3   OH229263   2.463   4.268  13.412  0.1368  0.7256  0.2133
 2591TIP3    H129264   2.456   4.285  13.506  2.2024  2.5195  0.1318
 2591TIP3    H229265   2.486   4.353  13.374  0.9201 -0.2758 -1.6988
 2592TIP3   OH229266   0.519   4.243  11.739  0.4778  0.1843 -0.0014
 2592TIP3    H129267   0.610   4.213  11.735  0.8769  1.2751  0.4575
 2592TIP3    H229268   0.471   4.169  11.775  1.2994 -0.1978  0.3338
 2593TIP3   OH229269   3.067   5.541  10.711  0.2679 -0.3579  0.2550
 2593TIP3    H129270   3.000   5.473  10.704 -0.0775 -0.3352  2.6933
 2593TIP3    H229271   3.117   5.533  10.630 -0.4535 -2.7617 -0.0229
 2594TIP3   OH229272   0.694   3.334  15.616 -0.1025 -0.2459  0.0512
 2594TIP3    H129273   0.684   3.365  15.706  1.6121  0.0058  0.1727
 2594TIP3    H229274   0.729   3.245  15.625 -2.4696 -1.2967 -0.3511
 2595TIP3   OH229275   6.308   2.811  14.698 -0.5562 -0.2090  0.0702
 2595TIP3    H129276   6.328   2.755  14.773 -0.5660  0.1324  0.3306
 2595TIP3    H229277   6.342   2.897  14.722  0.6197 -0.3867 -0.8525
 2596TIP3   OH229278   6.063   3.761   3.683  0.0522 -0.5415  0.1230
 2596TIP3    H129279   5.984   3.768   3.630  0.6391  1.4090 -0.5972
 2596TIP3    H229280   6.055   3.678   3.729 -0.1641 -2.7441 -3.5424
 2597TIP3   OH229281   5.662   2.762   3.562 -0.0661 -0.0694  0.4661
 2597TIP3    H129282   5.657   2.676   3.520 -0.7606 -0.4219  1.2463
 2597TIP3    H229283   5.663   2.824   3.489 -1.5355 -0.6496 -0.0763
 2598TIP3   OH229284   2.617   2.796  15.246 -0.4094 -0.1382 -0.6560
 2598TIP3    H129285   2.599   2.816  15.154 -3.1534  1.6832  0.1641
 2598TIP3    H229286   2.704   2.755  15.245  0.8776  2.2553 -3.7501
 2599TIP3   OH229287   3.116   6.327   1.628 -0.4996  0.0567 -0.4535
 2599TIP3    H129288   3.137   6.270   1.702 -1.2086  1.5697  1.0071
 2599TIP3    H229289   3.069   6.272   1.566 -0.5520 -1.0964  0.5835
 2600TIP3   OH229290   2.428   2.387  12.342  0.1847  0.2377  0.0270
 2600TIP3    H129291   2.517   2.419  12.354  1.0478 -1.6655 -0.9487
 2600TIP3    H229292   2.425   2.304  12.390 -1.1455  0.3980  0.2649
 2601TIP3   OH229293   5.013   2.142   4.571  0.0338 -0.1964  0.5765
 2601TIP3    H129294   4.963   2.178   4.645  0.1686  2.0323 -0.3353
 2601TIP3    H229295   4.958   2.071   4.538  0.9807 -2.8404  4.1044
 2602TIP3   OH229296   1.544   6.390  10.707  0.0050  0.3636 -0.7061
 2602TIP3    H129297   1.526   6.452  10.636  2.1623  0.7133 -1.0250
 2602TIP3    H229298   1.628   6.419  10.743 -1.4590  0.8302  2.7284
 2603TIP3   OH229299   3.429   6.731  14.451 -0.2129 -0.4612 -0.3191
 2603TIP3    H129300   3.443   6.759  14.361  0.6139  1.0809  0.2537
 2603TIP3    H229301   3.480   6.792  14.504 -2.6711  0.2966  1.3868
 2604TIP3   OH229302   2.515   0.558  13.360  0.0927 -0.2589 -0.2437
 2604TIP3    H129303   2.495   0.465  13.369 -2.1588  0.3747  2.5622
 2604TIP3    H229304   2.607   0.560  13.334  0.0009 -3.2339 -1.1585
 2605TIP3   OH229305   4.240   3.158  12.376 -0.0351 -0.3603  0.1431
 2605TIP3    H129306   4.212   3.248  12.367  1.1283 -0.0627 -0.8431
 2605TIP3    H229307   4.174   3.117  12.431 -1.3704  0.7216 -0.5932
 2606TIP3   OH229308   6.805   2.925   1.434 -0.3327  0.0357  0.8214
 2606TIP3    H129309   6.798   3.020   1.444  0.7233  0.4100 -1.4386
 2606TIP3    H229310   6.747   2.904   1.362  1.1634 -0.6633 -0.2247
 2607TIP3   OH229311   6.283   4.594  14.339 -0.6366  0.2227  0.3263
 2607TIP3    H129312   6.249   4.676  14.374 -0.5683  0.2367  0.3583
 2607TIP3    H229313   6.320   4.617  14.253  0.9727  0.5521  1.0774
 2608TIP3   OH229314   4.135   3.474  15.263 -0.5239  1.1034  0.2052
 2608TIP3    H129315   4.206   3.515  15.313 -0.7712  1.3490  0.3545
 2608TIP3    H229316   4.101   3.544  15.207 -0.9046  1.0910  0.4164
 2609TIP3   OH229317   2.721   6.411  11.997  0.5633  0.0712  0.3910
 2609TIP3    H129318   2.632   6.375  11.998  1.3571 -2.0220  1.2841
 2609TIP3    H229319   2.769   6.358  12.061  3.0076 -0.3245 -1.6097
 2610TIP3   OH229320   6.244   3.206  16.171  0.2779  0.5011  0.1245
 2610TIP3    H129321   6.303   3.247  16.234  2.9249  0.4253 -2.1166
 2610TIP3    H229322   6.172   3.268  16.160  1.1067  1.6957  1.2812
 2611TIP3   OH229323   3.149   1.474  14.301  0.6507  0.1197  0.2794
 2611TIP3    H129324   3.066   1.495  14.258  0.4215 -0.7274  0.2876
 2611TIP3    H229325   3.156   1.539  14.371 -0.0966  0.0878  0.4001
 2612TIP3   OH229326   4.626   2.713  15.119 -0.3109  0.2338  0.3941
 2612TIP3    H129327   4.581   2.633  15.090 -0.0725  0.6487 -1.2099
 2612TIP3    H229328   4.567   2.784  15.092  0.6097  0.7113 -0.4003
 2613TIP3   OH229329   5.395   1.755   4.974 -0.0771  0.4288 -0.2678
 2613TIP3    H129330   5.322   1.729   5.030  1.1013 -0.5951  0.8469
 2613TIP3    H229331   5.360   1.827   4.921 -1.9135 -0.1175  0.1413
 2614TIP3   OH229332   1.659   0.318  13.312 -0.2818 -0.0467  0.4098
 2614TIP3    H129333   1.577   0.363  13.335 -0.1778  0.6863 -0.5942
 2614TIP3    H229334   1.657   0.313  13.216  0.6826 -0.3489  0.4029
 2615TIP3   OH229335   4.975   2.431   1.874 -0.2563  0.4667 -0.3424
 2615TIP3    H129336   5.045   2.427   1.940  0.8548  0.1332 -1.5064
 2615TIP3    H229337   5.019   2.458   1.794 -1.3468 -0.3722 -1.2621
 2616TIP3   OH229338   1.836   5.158  11.572  0.3887  0.0442  0.1308
 2616TIP3    H129339   1.773   5.092  11.601  0.5588  0.7291  2.2230
 2616TIP3    H229340   1.787   5.212  11.511  0.1064 -1.6899 -1.2516
 2617TIP3   OH229341   2.627   5.058   2.361 -0.7480 -0.0825  0.3763
 2617TIP3    H129342   2.632   5.094   2.272 -0.2825  1.1056  0.8600
 2617TIP3    H229343   2.621   4.963   2.348 -0.8071  0.0765 -0.9225
 2618TIP3   OH229344   6.112   3.333   5.498  0.4991  0.3276 -0.0973
 2618TIP3    H129345   6.113   3.379   5.582 -2.1731  0.5609 -0.1033
 2618TIP3    H229346   6.194   3.359   5.455  0.5120  2.6635  1.1780
 2619TIP3   OH229347   0.759   3.725   5.565 -0.1743 -0.5171 -0.1923
 2619TIP3    H129348   0.848   3.755   5.584 -0.6286  0.0102  1.2327
 2619TIP3    H229349   0.724   3.697   5.649 -1.2732 -0.9668 -0.7748
 2620TIP3   OH229350   3.362   3.128  11.508  0.0862 -1.2973 -0.1990
 2620TIP3    H129351   3.440   3.075  11.490 -0.3555 -1.3924 -1.9499
 2620TIP3    H229352   3.396   3.216  11.524  0.6701 -1.6933  0.8406
 2621TIP3   OH229353   3.016   0.428   3.809 -0.0797 -0.2405 -0.5302
 2621TIP3    H129354   3.018   0.509   3.859 -1.1613 -0.5417  0.0430
 2621TIP3    H229355   2.975   0.365   3.868  2.2383 -1.6832 -0.3359
 2622TIP3   OH229356   4.081   6.243  13.897 -0.1230 -0.3855  0.0839
 2622TIP3    H129357   4.169   6.209  13.882  0.1345 -0.3088  1.3384
 2622TIP3    H229358   4.089   6.299  13.974 -1.2103 -0.1426  0.0388
 2623TIP3   OH229359   2.324   5.602   1.058  0.5720 -0.1371  0.6582
 2623TIP3    H129360   2.231   5.624   1.046  0.9031  0.8799 -0.1529
 2623TIP3    H229361   2.357   5.589   0.969  0.9667 -1.5983  0.9913
 2624TIP3   OH229362   6.513   5.812  16.738  0.1276 -0.5633 -0.4264
 2624TIP3    H129363   6.469   5.775  16.662  0.3219  0.6155 -1.1378
 2624TIP3    H229364   6.475   5.899  16.748  0.0843 -0.7156  0.8489
 2625TIP3   OH229365   5.695   1.668  13.178  0.3038  0.5647  0.0911
 2625TIP3    H129366   5.616   1.668  13.124 -1.3608  0.5395  2.3843
 2625TIP3    H229367   5.762   1.708  13.122 -1.5573  1.4820 -1.6055
 2626TIP3   OH229368   3.756   5.178   2.005 -0.5715  0.2272  0.0197
 2626TIP3    H129369   3.713   5.116   1.946 -1.2105 -0.6252  1.3484
 2626TIP3    H229370   3.687   5.241   2.027 -0.2021  0.8285 -0.5024
 2627TIP3   OH229371   5.193   1.453  14.117  0.3875 -0.4844 -0.6867
 2627TIP3    H129372   5.214   1.488  14.204 -2.6740 -0.1550  0.0491
 2627TIP3    H229373   5.274   1.461  14.067  2.5305 -1.5366  2.3611
 2628TIP3   OH229374   2.790   3.649  13.389  0.1335 -0.0557  0.0058
 2628TIP3    H129375   2.751   3.570  13.352 -0.6407  0.3768 -0.1421
 2628TIP3    H229376   2.733   3.720  13.359  1.8083  0.7855 -1.3588
 2629TIP3   OH229377   0.133   2.483  14.462  0.1798  0.0987  0.2589
 2629TIP3    H129378   0.072   2.470  14.390 -1.9540  1.4984  1.6861
 2629TIP3    H229379   0.151   2.395  14.495 -2.8556 -0.3071  1.1112
 2630TIP3   OH229380   5.764   4.020  14.907  0.2058 -0.5599  0.0989
 2630TIP3    H129381   5.702   4.037  14.836 -1.0889 -0.7581  1.1491
 2630TIP3    H229382   5.763   3.925  14.917 -2.1919 -0.3883  2.5314
 2631TIP3   OH229383   5.907   4.707  12.320  0.2065  0.6280 -0.0674
 2631TIP3    H129384   5.988   4.685  12.365 -0.0701  1.3929  0.8448
 2631TIP3    H229385   5.842   4.648  12.358  0.4380 -0.4194 -1.2478
 2632TIP3   OH229386   0.692   1.420  10.925 -0.2160 -0.6508  0.1791
 2632TIP3    H129387   0.600   1.433  10.948  0.1285 -0.6474  1.6915
 2632TIP3    H229388   0.717   1.499  10.877 -0.3910  0.4844  1.8810
 2633TIP3   OH229389   5.477   6.763  12.169  0.0037 -0.1501 -0.0111
 2633TIP3    H129390   5.490   6.767  12.264 -1.0584 -1.7061  0.2419
 2633TIP3    H229391   5.445   6.850  12.146 -0.4825  0.0144  1.1923
 2634TIP3   OH229392   1.946   5.222  10.824 -0.6690  0.2059 -0.0142
 2634TIP3    H129393   1.915   5.166  10.753 -0.7509  0.2934 -0.0491
 2634TIP3    H229394   1.908   5.308  10.804 -0.4094  0.3122 -0.0514
 2635TIP3   OH229395   6.571   6.809  16.942 -0.3794 -0.5551  0.3557
 2635TIP3    H129396   6.559   6.715  16.924  0.5234 -0.6417  0.1207
 2635TIP3    H229397   6.523   6.824  17.023 -0.2053 -1.3182  0.6162
 2636TIP3   OH229398   5.025   0.184  15.284 -0.3530 -0.0801  0.0124
 2636TIP3    H129399   5.040   0.152  15.194 -0.3452 -1.8271  0.5954
 2636TIP3    H229400   4.937   0.154  15.306 -0.5306  0.7394  0.4428
 2637TIP3   OH229401   5.533   4.557  10.727 -0.1640 -0.5453  0.5285
 2637TIP3    H129402   5.438   4.557  10.714 -0.1018 -0.1838  0.0767
 2637TIP3    H229403   5.568   4.514  10.649  0.1281  0.5763  0.0305
 2638TIP3   OH229404   2.311   1.786  15.768  0.1294 -0.2690 -0.2414
 2638TIP3    H129405   2.311   1.746  15.682 -0.8354 -3.1667  0.9814
 2638TIP3    H229406   2.230   1.754  15.809  0.3500  1.3454  1.6129
 2639TIP3   OH229407   6.634   6.392   2.120  0.3059 -0.9315 -0.3359
 2639TIP3    H129408   6.590   6.367   2.039 -1.3298 -0.6559  0.4215
 2639TIP3    H229409   6.726   6.399   2.096  0.3255 -3.8532 -1.4680
 2640TIP3   OH229410   1.095   3.259   5.560  0.2722  0.0786  0.6641
 2640TIP3    H129411   1.076   3.341   5.605 -0.8073  0.1596  0.1003
 2640TIP3    H229412   1.012   3.235   5.518  1.0945 -0.2551 -0.8396
 2641TIP3   OH229413   3.126   1.322   3.131 -0.0551 -0.2010  0.2287
 2641TIP3    H129414   3.064   1.316   3.058  1.3283  0.1391 -1.0085
 2641TIP3    H229415   3.169   1.237   3.134  1.8234  0.6428 -1.1610
 2642TIP3   OH229416   3.067   4.363  11.080 -0.0854  0.0589 -0.0225
 2642TIP3    H129417   3.098   4.429  11.143  0.0549 -0.7943  0.8259
 2642TIP3    H229418   3.069   4.408  10.996  2.5505  0.3573  0.1168
 2643TIP3   OH229419   5.211   2.090   4.008 -0.2177 -0.1157  0.5854
 2643TIP3    H129420   5.182   2.042   4.085  1.2481 -0.2618  1.0635
 2643TIP3    H229421   5.130   2.110   3.960 -0.8915 -3.2400  0.2244
 2644TIP3   OH229422   1.109   4.380  14.451 -0.2954  0.4236 -0.0528
 2644TIP3    H129423   1.103   4.413  14.541 -0.9417  0.2045 -0.0121
 2644TIP3    H229424   1.194   4.337  14.446 -0.5959 -0.2713  0.6958
 2645TIP3   OH229425   4.494   0.378  16.074  0.8770 -0.2610  0.1745
 2645TIP3    H129426   4.466   0.426  15.996  1.6189  2.6773  1.5885
 2645TIP3    H229427   4.428   0.400  16.140  1.7275 -0.4694  1.1126
 2646TIP3   OH229428   4.244   4.325   4.462 -0.0151 -0.2616 -0.0188
 2646TIP3    H129429   4.186   4.338   4.537  2.7237 -1.4138  2.5379
 2646TIP3    H229430   4.296   4.406   4.458  1.8825 -1.3221  1.4135
 2647TIP3   OH229431   0.065   3.555  16.713  0.4310  0.1637  0.4531
 2647TIP3    H129432   0.030   3.466  16.704 -1.1266  0.8983 -1.3770
 2647TIP3    H229433   0.153   3.542  16.748  0.9448 -2.2430 -1.4433
 2648TIP3   OH229434   1.848   3.528   2.954 -0.0312 -0.4512  0.3527
 2648TIP3    H129435   1.861   3.434   2.952  0.0496 -0.4257 -0.8238
 2648TIP3    H229436   1.790   3.543   3.030 -0.8729 -1.5490 -0.0507
 2649TIP3   OH229437   2.274   2.079   1.057  0.1350  0.0526 -0.3842
 2649TIP3    H129438   2.367   2.104   1.061  0.1195  0.1240 -0.4612
 2649TIP3    H229439   2.270   1.996   1.104 -0.1153  1.0405  1.4299
 2650TIP3   OH229440   2.692   4.764  10.621  0.2498  0.0128  0.1539
 2650TIP3    H129441   2.717   4.698  10.556 -0.7059 -0.8128  0.5799
 2650TIP3    H229442   2.619   4.811  10.581  1.5338  1.4895 -0.5359
 2651TIP3   OH229443   6.653   2.818   2.236 -0.4697 -0.7464  0.4251
 2651TIP3    H129444   6.630   2.725   2.240 -0.8302 -0.6488  0.6734
 2651TIP3    H229445   6.745   2.821   2.262  0.1159 -1.2395 -1.4714
 2652TIP3   OH229446   0.183   5.969   2.109  0.0603  0.3372  0.0462
 2652TIP3    H129447   0.101   6.017   2.121 -0.4313 -0.0422 -1.5526
 2652TIP3    H229448   0.173   5.889   2.160  0.5777  1.4942  2.1044
 2653TIP3   OH229449   6.321   3.222   2.483  0.1235  0.3194 -0.4643
 2653TIP3    H129450   6.338   3.269   2.565 -0.6838  0.9491 -0.6445
 2653TIP3    H229451   6.401   3.172   2.467  0.7688  1.1468  0.0680
 2654TIP3   OH229452   5.171   0.042   0.247 -0.2232 -0.3597 -0.6646
 2654TIP3    H129453   5.165  -0.047   0.212 -0.8130  0.3649 -2.5456
 2654TIP3    H229454   5.127   0.096   0.182 -1.4473  1.1289  1.2687
 2655TIP3   OH229455   6.631   3.479  14.523 -0.3084  1.1191 -1.1189
 2655TIP3    H129456   6.575   3.546  14.482 -1.2163 -0.6887 -3.0733
 2655TIP3    H229457   6.615   3.400  14.471  0.7319 -0.6358  1.0541
 2656TIP3   OH229458   5.578   1.387   3.868  0.1254  0.2570  0.3071
 2656TIP3    H129459   5.668   1.382   3.836  0.8591  1.9357  1.9174
 2656TIP3    H229460   5.525   1.399   3.790  1.0910 -2.1455 -0.8141
 2657TIP3   OH229461   1.548   5.409   3.730  0.2889 -0.0654 -0.1780
 2657TIP3    H129462   1.467   5.416   3.679  0.0743  0.2341  0.2045
 2657TIP3    H229463   1.548   5.486   3.786 -0.3411 -1.2562  1.5199
 2658TIP3   OH229464   3.697   2.288   0.087  0.0427  0.7299  0.4240
 2658TIP3    H129465   3.653   2.337   0.157 -0.6932  1.6998 -0.6760
 2658TIP3    H229466   3.645   2.207   0.079  1.1710 -0.2125  2.1407
 2659TIP3   OH229467   4.206   1.279   5.826  0.7084  0.2710  0.4998
 2659TIP3    H129468   4.142   1.316   5.886 -0.3121 -0.0852 -0.3263
 2659TIP3    H229469   4.202   1.336   5.749  0.3216 -0.5708 -0.1226
 2660TIP3   OH229470   1.419   2.479   2.537 -0.3975  0.0484  0.3054
 2660TIP3    H129471   1.493   2.419   2.539 -0.5597 -0.1704 -0.1327
 2660TIP3    H229472   1.414   2.507   2.446 -1.1882 -0.3494  0.2258
 2661TIP3   OH229473   5.112   5.903   5.127  0.5974  0.2647 -0.6480
 2661TIP3    H129474   5.163   5.822   5.126 -1.2040 -0.9334 -0.9663
 2661TIP3    H229475   5.116   5.934   5.036 -0.8885 -0.9659 -1.1756
 2662TIP3   OH229476   4.552   1.912  15.736 -0.4433 -0.3172 -0.2482
 2662TIP3    H129477   4.497   1.984  15.766 -0.3349 -0.4136  0.1834
 2662TIP3    H229478   4.613   1.952  15.675  0.1249  0.1069  0.5830
 2663TIP3   OH229479   5.378   6.326   2.531 -0.6096 -0.0597 -0.1112
 2663TIP3    H129480   5.333   6.274   2.465 -0.3867 -0.2934 -0.0792
 2663TIP3    H229481   5.462   6.347   2.492 -0.4464 -0.2655  0.1315
 2664TIP3   OH229482   6.373   2.050  16.563 -0.2671 -0.0727  0.1568
 2664TIP3    H129483   6.315   2.014  16.630  0.1154 -1.7497 -0.3543
 2664TIP3    H229484   6.331   2.131  16.535 -1.9203 -0.8128  0.3868
 2665TIP3   OH229485   5.585   3.764   4.032  0.4303  0.1737  0.3555
 2665TIP3    H129486   5.658   3.712   4.064  0.5818 -0.2330 -0.6005
 2665TIP3    H229487   5.507   3.715   4.056  0.5601 -0.3609 -0.2601
 2666TIP3   OH229488   2.219   5.399  13.815  0.1958 -0.3567 -0.1249
 2666TIP3    H129489   2.144   5.388  13.873  0.5865  0.8645  0.6507
 2666TIP3    H229490   2.282   5.451  13.866  0.9098  0.0112 -1.3276
 2667TIP3   OH229491   2.805   0.024   0.757 -0.2808  0.3484 -0.2635
 2667TIP3    H129492   2.823  -0.066   0.784 -1.9486 -0.1073 -0.5129
 2667TIP3    H229493   2.746   0.014   0.682 -0.8750  1.6419  0.0145
 2668TIP3   OH229494   0.582   1.322   4.822  0.4903 -0.0195 -0.0108
 2668TIP3    H129495   0.564   1.383   4.893 -0.5050  0.1140 -0.3575
 2668TIP3    H229496   0.496   1.285   4.800  0.7524  0.0177 -1.1965
 2669TIP3   OH229497   2.359   4.394   2.790  0.0902 -0.0720  0.1698
 2669TIP3    H129498   2.373   4.471   2.845 -1.6494 -0.6512  1.5049
 2669TIP3    H229499   2.441   4.345   2.796 -0.2597 -0.4718  2.8942
 2670TIP3   OH229500   2.189   0.063  15.327 -0.1787 -0.0437 -0.2175
 2670TIP3    H129501   2.205   0.068  15.422  2.5862 -0.1860 -0.6028
 2670TIP3    H229502   2.249  -0.004  15.296 -0.0257  0.9656 -2.2634
 2671TIP3   OH229503   2.832   2.787   0.414  0.3347  0.3774 -0.3892
 2671TIP3    H129504   2.868   2.874   0.400 -0.3598  0.6503 -0.5281
 2671TIP3    H229505   2.751   2.785   0.363  0.2679 -0.2992 -0.2790
 2672TIP3   OH229506   6.097   0.630   3.974  0.0786 -0.2483 -0.2280
 2672TIP3    H129507   6.034   0.560   3.953 -0.5820  0.1115  0.5382
 2672TIP3    H229508   6.164   0.587   4.028 -0.1298 -0.3684 -0.0659
 2673TIP3   OH229509   5.478   3.238  15.488  0.7456 -0.0368  0.1453
 2673TIP3    H129510   5.528   3.161  15.514 -0.1835 -0.5210  0.5436
 2673TIP3    H229511   5.481   3.237  15.392 -0.4346 -1.3965  0.0852
 2674TIP3   OH229512   6.562   0.930   5.408 -0.2915 -0.0437 -0.2389
 2674TIP3    H129513   6.546   0.851   5.356 -1.3512 -1.2137  1.6986
 2674TIP3    H229514   6.491   0.989   5.383 -1.1278 -0.8149  0.2430
 2675TIP3   OH229515   0.366   4.081  13.212 -0.0106  0.4510  0.8134
 2675TIP3    H129516   0.454   4.059  13.180 -0.4993  0.0655 -0.3539
 2675TIP3    H229517   0.311   4.073  13.134 -1.6883 -2.8049  2.1259
 2676TIP3   OH229518   3.578   4.841   3.856  0.6220  0.3244 -0.0674
 2676TIP3    H129519   3.492   4.861   3.893  1.5088  1.2294  1.6265
 2676TIP3    H229520   3.639   4.895   3.906  2.1131  0.3183 -1.7795
 2677TIP3   OH229521   3.473   3.753   3.607  0.0040  0.0869  0.3166
 2677TIP3    H129522   3.464   3.695   3.682 -0.7325  2.7639  2.4342
 2677TIP3    H229523   3.514   3.699   3.539 -0.9642 -2.9335  1.9997
 2678TIP3   OH229524   4.184   5.639   4.473 -0.1182  0.6590  0.1390
 2678TIP3    H129525   4.233   5.699   4.418  0.3552  0.9258  0.8413
 2678TIP3    H229526   4.233   5.635   4.555 -0.5872 -0.0478  0.4013
 2679TIP3   OH229527   4.836   1.978  13.021  0.2389  0.2939  0.3750
 2679TIP3    H129528   4.869   1.962  13.109  0.3370  1.4748  0.5737
 2679TIP3    H229529   4.892   1.926  12.964  0.2319 -0.4071  0.9984
 2680TIP3   OH229530   6.409   1.948  15.425 -0.2030  0.2478  0.2135
 2680TIP3    H129531   6.341   2.000  15.468 -0.5142 -0.8269  1.0765
 2680TIP3    H229532   6.415   1.985  15.337 -1.3051  0.9128  0.3918
 2681TIP3   OH229533   4.006   5.682  15.972 -0.1103  0.1257 -0.3362
 2681TIP3    H129534   3.996   5.672  15.877 -0.6904  0.0407 -0.2716
 2681TIP3    H229535   3.917   5.701  16.003  0.1438  0.5506  0.1433
 2682TIP3   OH229536   1.763   0.923  12.003  0.0895 -0.1619  0.1883
 2682TIP3    H129537   1.771   0.828  11.997 -1.8598 -0.3814  0.3961
 2682TIP3    H229538   1.853   0.955  12.005  0.8708 -2.1915  2.8757
 2683TIP3   OH229539   3.636   2.356   4.014 -0.4028  0.1483  0.1197
 2683TIP3    H129540   3.659   2.331   4.103  4.7340 -0.0729 -0.9678
 2683TIP3    H229541   3.629   2.451   4.017 -0.4886  0.1235  0.8169
 2684TIP3   OH229542   0.425   1.088  10.976  0.0194 -0.1472  0.3416
 2684TIP3    H129543   0.389   1.046  10.897 -0.6692  0.8745  0.0984
 2684TIP3    H229544   0.516   1.059  10.979  0.7472  1.5700 -2.1102
 2685TIP3   OH229545   4.728   3.366   3.107 -0.0921 -0.4014 -0.3442
 2685TIP3    H129546   4.700   3.277   3.084 -1.4247  0.3442 -1.7087
 2685TIP3    H229547   4.785   3.392   3.035 -2.3510  1.0391 -1.7194
 2686TIP3   OH229548   4.959   1.283   3.617 -0.3073 -0.6441  0.2417
 2686TIP3    H129549   4.983   1.203   3.664 -1.0269 -1.0637 -0.0922
 2686TIP3    H229550   4.918   1.338   3.683  1.9189  0.2879  0.9453
 2687TIP3   OH229551   6.678   6.147   0.859  0.0185  0.1129  0.0618
 2687TIP3    H129552   6.720   6.140   0.945  0.8538 -0.0367 -0.3527
 2687TIP3    H229553   6.725   6.085   0.804 -2.1485 -1.7316  0.1043
 2688TIP3   OH229554   3.997   4.170   4.358 -0.4017  0.4474  0.1984
 2688TIP3    H129555   4.090   4.189   4.372 -0.0898 -0.2455 -0.8649
 2688TIP3    H229556   3.954   4.256   4.360  0.7257  1.1691 -2.6917
 2689TIP3   OH229557   4.948   6.465   0.471 -0.6972  0.1465 -0.5493
 2689TIP3    H129558   4.998   6.526   0.417  1.1931 -0.7999  0.0542
 2689TIP3    H229559   4.924   6.515   0.549  2.6973 -0.2959  0.9694
 2690TIP3   OH229560   0.096   5.462  14.672 -0.0840  0.4091  0.2430
 2690TIP3    H129561   0.172   5.408  14.693 -1.0334 -0.3837  1.8141
 2690TIP3    H229562   0.116   5.548  14.710 -0.4539 -0.1361  1.7211
 2691TIP3   OH229563   3.084   4.174  11.909 -0.8519 -0.0052 -0.7451
 2691TIP3    H129564   3.091   4.226  11.829 -3.2424 -0.3395 -1.2468
 2691TIP3    H229565   3.061   4.086  11.878  2.9844 -1.4801  0.0871
 2692TIP3   OH229566   6.689   2.418  13.966 -0.3811 -0.7330  0.1447
 2692TIP3    H129567   6.600   2.383  13.959  0.1464 -2.7988  2.3388
 2692TIP3    H229568   6.682   2.488  14.031 -0.6383  0.2872 -0.9367
 2693TIP3   OH229569   1.953   6.850   2.046  0.1545  0.0853  0.5727
 2693TIP3    H129570   1.993   6.896   1.972  1.4346  0.4231  1.4285
 2693TIP3    H229571   1.950   6.759   2.019 -0.8757  0.4146 -0.5044
 2694TIP3   OH229572   0.498   6.554   4.840 -0.0217 -0.2598  0.3886
 2694TIP3    H129573   0.502   6.643   4.805 -1.6364  0.3336  1.6203
 2694TIP3    H229574   0.436   6.509   4.784 -0.1663 -0.2417  0.5341
 2695TIP3   OH229575   4.753   4.670  15.115  0.1308  0.2049  0.3988
 2695TIP3    H129576   4.773   4.579  15.137 -1.2981  0.2611  2.1448
 2695TIP3    H229577   4.683   4.664  15.050  2.3331  0.0804 -2.1128
 2696TIP3   OH229578   5.423   1.750  16.572 -0.6142 -0.1746 -0.3319
 2696TIP3    H129579   5.402   1.698  16.495 -0.2995 -0.3841 -0.2812
 2696TIP3    H229580   5.487   1.815  16.541  1.7244 -2.0254  0.2886
 2697TIP3   OH229581   3.433   2.935  11.842  0.8391 -0.3117  0.3485
 2697TIP3    H129582   3.356   2.898  11.884  1.5085 -1.4816  0.6024
 2697TIP3    H229583   3.454   2.874  11.771  1.4813  0.0376  0.2238
 2698TIP3   OH229584   5.613   5.945  13.787 -0.4859 -0.5693 -0.1302
 2698TIP3    H129585   5.563   5.982  13.859 -0.2227 -0.0818 -0.1928
 2698TIP3    H229586   5.704   5.968  13.806 -0.3677 -0.7848 -0.4122
 2699TIP3   OH229587   3.273   2.295   5.524 -0.1114  0.0964  0.1411
 2699TIP3    H129588   3.367   2.305   5.542  0.0915  1.1814 -1.3086
 2699TIP3    H229589   3.270   2.268   5.432 -1.2443  1.2102 -0.1714
 2700TIP3   OH229590   5.713   2.704   0.225 -0.2284 -0.2153  0.0192
 2700TIP3    H129591   5.706   2.798   0.208  0.0130 -0.3451 -0.8793
 2700TIP3    H229592   5.623   2.671   0.212 -0.0616 -0.3006 -1.0211
 2701TIP3   OH229593   3.102   3.443   0.542 -0.2949  0.7462 -0.3154
 2701TIP3    H129594   3.194   3.429   0.521 -0.1774 -0.9810  1.0994
 2701TIP3    H229595   3.093   3.537   0.552  1.6932  0.8358  1.0696
 2702TIP3   OH229596   5.595   2.182  16.704 -0.2350 -0.2892  0.4436
 2702TIP3    H129597   5.522   2.244  16.714  0.3685  0.3642  0.9189
 2702TIP3    H229598   5.581   2.119  16.774 -0.4063 -0.2291  0.4646
 2703TIP3   OH229599   3.733   3.112  14.888 -0.7274 -0.3569  0.1955
 2703TIP3    H129600   3.725   3.077  14.977  2.5557  0.0101  0.7688
 2703TIP3    H229601   3.779   3.044  14.839  2.5847  1.5255  0.3973
 2704TIP3   OH229602   5.777   6.553  16.453  0.0060 -0.3689 -0.2222
 2704TIP3    H129603   5.697   6.557  16.400 -0.3085 -0.2060  0.2644
 2704TIP3    H229604   5.766   6.475  16.508 -1.4113  1.5147  2.3554
 2705TIP3   OH229605   4.174   3.956   5.501 -0.0782 -0.0122  0.0730
 2705TIP3    H129606   4.116   4.023   5.538 -1.0290 -1.2879  1.0090
 2705TIP3    H229607   4.149   3.876   5.547  0.2916 -1.2198 -1.7528
 2706TIP3   OH229608   1.496   0.338  15.826 -0.1253 -0.2763  0.1424
 2706TIP3    H129609   1.458   0.250  15.830  1.4415 -1.0293 -0.4392
 2706TIP3    H229610   1.467   0.381  15.906 -0.5857 -1.4632  0.6359
 2707TIP3   OH229611   4.628   1.344  14.784 -0.0751 -0.0606  0.3064
 2707TIP3    H129612   4.614   1.421  14.729  1.8387  1.4049  1.7239
 2707TIP3    H229613   4.675   1.282  14.728 -2.4865 -0.7004 -1.1600
 2708TIP3   OH229614   1.099   5.348   4.602  0.2232 -0.2319 -0.6468
 2708TIP3    H129615   1.099   5.285   4.674 -0.3670 -0.0039 -0.4321
 2708TIP3    H229616   1.046   5.421   4.635  1.3951  0.6568 -0.6539
 2709TIP3   OH229617   6.505   1.690  11.398 -0.0711  0.5256  0.5966
 2709TIP3    H129618   6.517   1.627  11.327 -1.2017  0.1160  0.7489
 2709TIP3    H229619   6.594   1.718  11.421  0.3593  0.0110 -0.3847
 2710TIP3   OH229620   5.664   2.018   4.563 -0.1950  0.3946 -0.6059
 2710TIP3    H129621   5.696   1.957   4.497 -0.1516  0.2889 -0.4877
 2710TIP3    H229622   5.650   1.964   4.641  0.4019  0.6299 -0.3240
 2711TIP3   OH229623   6.611   2.591   1.696  0.5147  0.3500  0.1288
 2711TIP3    H129624   6.543   2.584   1.629  1.0831 -1.0788 -0.3313
 2711TIP3    H229625   6.692   2.567   1.652  1.2000  1.1661  0.8971
 2712TIP3   OH229626   5.570   6.691  16.277  0.0316  0.4979 -0.3967
 2712TIP3    H129627   5.633   6.702  16.205  1.2905  0.8457  0.7262
 2712TIP3    H229628   5.567   6.777  16.319 -0.9425  0.3808 -0.2145
 2713TIP3   OH229629   5.831   2.090   3.543  0.0918 -0.6132  0.1708
 2713TIP3    H129630   5.915   2.079   3.499  0.2598  3.2637 -0.9075
 2713TIP3    H229631   5.854   2.132   3.627 -0.5945 -3.1863  1.7434
 2714TIP3   OH229632   2.513   4.584   1.720 -0.1540  0.0434 -0.1728
 2714TIP3    H129633   2.522   4.523   1.794 -1.7755 -0.7733 -0.6080
 2714TIP3    H229634   2.519   4.528   1.643 -1.1367  0.5030 -0.5956
 2715TIP3   OH229635   1.188   6.762   0.257  0.0614 -0.3214 -0.2909
 2715TIP3    H129636   1.228   6.837   0.302 -0.0400 -0.4535  0.0230
 2715TIP3    H229637   1.251   6.691   0.268 -0.0219 -0.3885 -0.2437
 2716TIP3   OH229638   2.898   3.186   2.511 -0.0359 -0.3379 -0.1449
 2716TIP3    H129639   2.949   3.125   2.458  0.5518  1.1398 -1.3725
 2716TIP3    H229640   2.877   3.138   2.590  0.3075 -2.1476 -1.1109
 2717TIP3   OH229641   1.498   1.633  16.727 -0.0771 -0.0222  0.6743
 2717TIP3    H129642   1.506   1.599  16.816  0.8405  2.7657  1.7801
 2717TIP3    H229643   1.567   1.588  16.678  0.9628  0.0994  1.9841
 2718TIP3   OH229644   6.066   2.340   2.650  0.4936 -0.2090 -0.0065
 2718TIP3    H129645   6.105   2.274   2.592  0.5578 -1.0156  0.9313
 2718TIP3    H229646   6.100   2.423   2.617  1.8653 -0.7842 -0.1195
 2719TIP3   OH229647   5.272   5.187   3.091  0.4715  0.3842  0.0689
 2719TIP3    H129648   5.242   5.097   3.078  0.4843  0.3230  0.4501
 2719TIP3    H229649   5.294   5.192   3.184 -1.5516  1.3845  0.5457
 2720TIP3   OH229650   6.098   6.771   4.399  0.6256 -0.3043  0.2230
 2720TIP3    H129651   6.129   6.857   4.373 -3.7244  1.2945 -0.4483
 2720TIP3    H229652   6.023   6.754   4.342 -0.5018 -3.1947  2.3246
 2721TIP3   OH229653   3.020   6.033  15.982 -0.7405  0.2311  0.5018
 2721TIP3    H129654   3.089   6.071  16.036 -0.7769 -0.6902  1.2312
 2721TIP3    H229655   3.038   5.939  15.983  1.2081  0.3643 -3.8113
 2722TIP3   OH229656   5.081   0.903   6.519  0.3556 -0.3436 -0.0256
 2722TIP3    H129657   5.039   0.916   6.604 -0.0329  1.4691 -0.4480
 2722TIP3    H229658   5.023   0.844   6.471  0.2459 -0.8546  0.7330
 2723TIP3   OH229659   6.715   5.228  17.071  0.8246  0.2615 -0.3925
 2723TIP3    H129660   6.643   5.184  17.026 -0.5036  0.3063  1.6059
 2723TIP3    H229661   6.792   5.175  17.050 -0.4077 -1.9346  0.4027
 2724TIP3   OH229662   5.321   4.167   0.005  0.8043 -0.2581 -0.2063
 2724TIP3    H129663   5.406   4.126   0.019  0.2438 -0.9627  1.3310
 2724TIP3    H229664   5.266   4.134   0.076 -0.8915 -0.1806 -1.3938
 2725TIP3   OH229665   1.103   4.635  12.670  0.0637  0.4153 -0.0079
 2725TIP3    H129666   1.029   4.696  12.676 -2.4236 -2.0418 -2.7776
 2725TIP3    H229667   1.176   4.689  12.641 -2.5418  2.0016 -4.6487
 2726TIP3   OH229668   3.345   2.891  15.202 -0.0199  0.3321 -0.2247
 2726TIP3    H129669   3.277   2.913  15.265 -0.3893  0.9780 -0.8493
 2726TIP3    H229670   3.421   2.944  15.229 -0.2608  0.8096 -0.4840
 2727TIP3   OH229671   4.411   4.613  10.352  0.4646  0.1855 -0.0467
 2727TIP3    H129672   4.495   4.573  10.374 -0.0938 -0.6852  0.5462
 2727TIP3    H229673   4.361   4.543  10.309 -0.0928  0.5930 -0.0792
 2728TIP3   OH229674   4.834   6.125  15.098 -0.1484  0.0768 -0.1515
 2728TIP3    H129675   4.787   6.057  15.050 -0.2483 -0.0176  0.0747
 2728TIP3    H229676   4.915   6.082  15.127 -0.5040 -0.1522  0.5498
 2729TIP3   OH229677   5.604   5.171  16.639 -0.0416  0.0852 -0.3902
 2729TIP3    H129678   5.604   5.104  16.571 -0.5386  0.3610 -0.6646
 2729TIP3    H229679   5.517   5.167  16.678  0.4824 -0.6155  0.7874
 2730TIP3   OH229680   3.356   1.020   1.164  0.0824 -0.6464  0.4521
 2730TIP3    H129681   3.363   0.932   1.201 -1.5598 -0.4759  1.2391
 2730TIP3    H229682   3.369   1.007   1.070  1.1958 -1.5207  0.6928
 2731TIP3   OH229683   5.429   3.622  14.410  0.1594 -0.5633 -0.1493
 2731TIP3    H129684   5.470   3.695  14.362  0.7646 -0.6397  0.2374
 2731TIP3    H229685   5.498   3.590  14.468  0.0304 -1.7081 -0.5999
 2732TIP3   OH229686   4.340   6.157  16.728 -0.3030  0.0572  0.1703
 2732TIP3    H129687   4.414   6.161  16.667 -1.5246  2.6035 -1.3087
 2732TIP3    H229688   4.372   6.106  16.802  3.0145  1.1917 -0.3267
 2733TIP3   OH229689   1.202   1.222  10.940 -0.0886 -0.2376 -0.0466
 2733TIP3    H129690   1.112   1.249  10.921 -0.0673 -0.0068  0.1781
 2733TIP3    H229691   1.231   1.178  10.860  0.0145  0.7639 -0.5784
 2734TIP3   OH229692   1.100   2.708  16.791 -0.0747  0.1983 -0.7227
 2734TIP3    H129693   1.115   2.638  16.855  0.2753  0.5978 -0.3626
 2734TIP3    H229694   1.180   2.761  16.794 -0.2796  0.5360 -1.0954
 2735TIP3   OH229695   3.273   4.135   5.381  0.0688  0.1461 -0.3938
 2735TIP3    H129696   3.229   4.199   5.324 -0.8776 -0.0440  0.1074
 2735TIP3    H229697   3.206   4.070   5.400 -0.1559  1.0256  2.2330
 2736TIP3   OH229698   1.654   5.399  16.078 -0.5750 -0.0494  0.4533
 2736TIP3    H129699   1.708   5.463  16.125  2.1486 -0.4393 -1.8648
 2736TIP3    H229700   1.615   5.449  16.006  0.0203 -0.5797 -0.2489
 2737TIP3   OH229701   3.523   1.508   4.670  0.2745 -0.2929  0.2686
 2737TIP3    H129702   3.497   1.418   4.651  0.3150 -0.1422 -0.5119
 2737TIP3    H229703   3.519   1.552   4.586  1.7653  0.0670  0.3701
 2738TIP3   OH229704   6.213   5.545   0.061 -0.8259  0.7710 -0.0805
 2738TIP3    H129705   6.201   5.494  -0.019 -0.7347 -1.4313  1.2482
 2738TIP3    H229706   6.154   5.620   0.051 -0.4540  0.8301 -2.3986
 2739TIP3   OH229707   0.955   1.037   4.375 -0.6456  0.6114 -0.0208
 2739TIP3    H129708   0.963   1.091   4.454  2.9493  0.5130 -0.1464
 2739TIP3    H229709   1.034   1.058   4.324 -1.7087 -1.0109 -2.5260
 2740TIP3   OH229710   6.571   3.193  13.629  0.2785  0.9044  0.4627
 2740TIP3    H129711   6.623   3.136  13.685  0.6865  0.4983 -0.3181
 2740TIP3    H229712   6.585   3.160  13.541 -1.4310  0.6836  0.2395
 2741TIP3   OH229713   2.993   4.318  12.765  0.2438 -0.1144 -0.2822
 2741TIP3    H129714   2.991   4.385  12.697 -0.7257  0.3036  0.1362
 2741TIP3    H229715   3.080   4.326  12.804 -0.2693  1.8150  0.6206
 2742TIP3   OH229716   5.476   0.140  13.350  0.3374  0.0267  0.0435
 2742TIP3    H129717   5.537   0.205  13.385 -0.2492  0.3429  0.5077
 2742TIP3    H229718   5.464   0.077  13.422 -0.9933  0.7629  0.5153
 2743TIP3   OH229719   2.575   1.137  14.132  0.3423  0.2722  0.1151
 2743TIP3    H129720   2.490   1.173  14.107 -0.0904 -0.2711  0.7700
 2743TIP3    H229721   2.605   1.191  14.205 -0.0393 -0.3136  0.7180
 2744TIP3   OH229722   4.556   0.293  12.110  0.6371 -0.5664 -0.4517
 2744TIP3    H129723   4.576   0.377  12.151 -1.3729 -0.7012  0.9077
 2744TIP3    H229724   4.631   0.238  12.130  1.5054  0.5726 -0.4651
 2745TIP3   OH229725   5.373   5.296  14.110 -0.2990 -0.4529 -0.6864
 2745TIP3    H129726   5.404   5.368  14.165  0.1631 -0.3551 -1.0700
 2745TIP3    H229727   5.401   5.320  14.021  0.1765 -1.2760 -0.7682
 2746TIP3   OH229728   3.265   2.623   5.559  0.0799  0.3914 -0.1742
 2746TIP3    H129729   3.259   2.587   5.471  0.5647 -0.0148 -0.0441
 2746TIP3    H229730   3.353   2.601   5.588 -0.6770 -1.0790  1.1169
 2747TIP3   OH229731   1.321   1.706  14.003 -0.3561  0.0102  0.0581
 2747TIP3    H129732   1.331   1.769  13.932 -1.5955 -0.8091 -0.8909
 2747TIP3    H229733   1.240   1.731  14.046 -0.0694 -0.0378  0.6367
 2748TIP3   OH229734   2.886   6.110  12.027 -0.3230 -0.4963 -0.0233
 2748TIP3    H129735   2.801   6.096  11.984  0.1683 -1.4683 -0.7071
 2748TIP3    H229736   2.869   6.178  12.092 -1.4282 -0.0517 -0.7507
 2749TIP3   OH229737   5.626   2.161  12.120  0.1457 -0.0466  0.4978
 2749TIP3    H129738   5.718   2.187  12.118  0.0793  0.2461 -1.4331
 2749TIP3    H229739   5.580   2.238  12.155  0.6507 -0.2940  1.7158
 2750TIP3   OH229740   5.387   4.533   1.159 -0.4253  0.2872 -0.7268
 2750TIP3    H129741   5.451   4.599   1.132  0.8256 -0.4156  0.3648
 2750TIP3    H229742   5.379   4.474   1.084  1.9888 -0.9020 -0.1555
 2751TIP3   OH229743   2.388   6.408  14.716  0.7347  0.2330 -0.5437
 2751TIP3    H129744   2.359   6.363  14.795 -2.0141 -2.7754 -2.9869
 2751TIP3    H229745   2.478   6.379  14.703  0.9101  0.0317  0.9080
 2752TIP3   OH229746   0.865   1.662   5.034 -0.1723 -0.0991  0.7985
 2752TIP3    H129747   0.959   1.668   5.017 -0.1433  0.2969  1.0825
 2752TIP3    H229748   0.831   1.749   5.010 -0.1494  0.4408  2.6238
 2753TIP3   OH229749   5.168   0.819  15.574 -0.0640 -0.3845  0.4240
 2753TIP3    H129750   5.119   0.888  15.617  0.4317  1.1136 -1.2830
 2753TIP3    H229751   5.249   0.861  15.545  0.5188 -1.8337 -0.1445
 2754TIP3   OH229752   3.278   5.466  13.697 -0.5581 -0.1083  0.1568
 2754TIP3    H129753   3.342   5.437  13.632 -0.2210 -0.8047  0.7853
 2754TIP3    H229754   3.229   5.387  13.719  0.0712 -0.1181  1.5658
 2755TIP3   OH229755   6.311   4.145   0.021  0.0774 -0.1438 -0.3401
 2755TIP3    H129756   6.370   4.070   0.032 -0.2767 -0.3148  0.4963
 2755TIP3    H229757   6.282   4.166   0.110 -1.1268 -0.0701 -0.7290
 2756TIP3   OH229758   4.400   2.827   5.639 -0.0275 -0.1387  0.3747
 2756TIP3    H129759   4.446   2.751   5.675  0.5167 -0.1083 -0.2343
 2756TIP3    H229760   4.355   2.793   5.562 -1.3459 -0.2464  1.1747
 2757TIP3   OH229761   5.996   6.357  11.574  0.3216 -0.1600 -0.8735
 2757TIP3    H129762   5.908   6.335  11.544 -0.0875  0.3834 -0.1000
 2757TIP3    H229763   6.035   6.404  11.500 -0.5155  0.7701 -0.7450
 2758TIP3   OH229764   3.978   0.787   3.988 -0.6200  0.1059  0.4184
 2758TIP3    H129765   3.925   0.854   4.032 -1.0146  0.2373 -0.2312
 2758TIP3    H229766   3.945   0.788   3.897  0.5391  0.2248 -0.0135
 2759TIP3   OH229767   0.313   3.470  11.067 -0.3387  0.3054  0.1966
 2759TIP3    H129768   0.257   3.420  11.007  0.2850  0.7881 -0.8262
 2759TIP3    H229769   0.272   3.556  11.071  0.6435  0.8743 -1.0907
 2760TIP3   OH229770   1.086   6.685  13.847 -0.4833 -0.0899  0.4398
 2760TIP3    H129771   1.099   6.621  13.778 -1.0527 -0.1612  0.3935
 2760TIP3    H229772   1.015   6.741  13.816 -1.1624 -0.4975  1.2260
 2761TIP3   OH229773   3.726   4.672   0.750  0.2859  0.5004  0.6007
 2761TIP3    H129774   3.650   4.717   0.788 -0.2892  1.4003 -1.4263
 2761TIP3    H229775   3.759   4.616   0.820 -2.8563 -0.6831  1.3035
 2762TIP3   OH229776   2.776   4.609   5.403 -0.4140 -0.2307 -0.1316
 2762TIP3    H129777   2.752   4.558   5.325 -1.5081  1.1483 -0.7404
 2762TIP3    H229778   2.863   4.577   5.427  0.4475  0.0530 -2.5658
 2763TIP3   OH229779   5.002   0.994  11.295 -0.2233 -0.3867 -0.1985
 2763TIP3    H129780   4.978   0.906  11.326 -0.4170  0.2358  1.5702
 2763TIP3    H229781   4.934   1.016  11.231 -0.7762 -1.1344  0.1061
 2764TIP3   OH229782   5.902   3.414  12.689 -0.0946  0.0267  0.2280
 2764TIP3    H129783   5.958   3.389  12.615  2.3511  2.4706  1.1070
 2764TIP3    H229784   5.912   3.343  12.751 -1.0424 -1.3706 -1.1365
 2765TIP3   OH229785   0.094   5.622  15.922 -0.1819  0.3106  0.1669
 2765TIP3    H129786   0.146   5.657  15.850 -0.6126  0.1109 -0.2504
 2765TIP3    H229787   0.085   5.695  15.984 -1.6847  1.1983 -1.0313
 2766TIP3   OH229788   3.247   2.231  15.308  0.0664 -0.3293  0.3624
 2766TIP3    H129789   3.278   2.200  15.223  1.2940  0.3376  0.5478
 2766TIP3    H229790   3.303   2.187  15.372 -0.0346  0.1281  0.7691
 2767TIP3   OH229791   0.146   3.627  15.963  0.6853 -0.6909  0.2075
 2767TIP3    H129792   0.094   3.554  15.996  1.2596 -2.1816 -1.9586
 2767TIP3    H229793   0.083   3.697  15.949  0.1445 -0.6383  2.4867
 2768TIP3   OH229794   4.455   0.872   0.031 -0.0037 -0.1586  0.2779
 2768TIP3    H129795   4.451   0.784   0.070  0.7612  1.1942  3.7665
 2768TIP3    H229796   4.526   0.866  -0.032 -0.2961 -2.1414  0.0436
 2769TIP3   OH229797   0.404   4.640   0.076  0.0330 -0.3771  0.2425
 2769TIP3    H129798   0.382   4.568   0.135 -0.1695  0.2048  0.8834
 2769TIP3    H229799   0.350   4.624  -0.002  1.5280 -2.0799 -0.5087
 2770TIP3   OH229800   5.186   1.634  13.117  0.1286 -0.1790 -0.2211
 2770TIP3    H129801   5.120   1.570  13.144  0.5180 -0.9041 -0.9723
 2770TIP3    H229802   5.192   1.694  13.191 -2.6664  0.9680 -0.7793
 2771TIP3   OH229803   0.039   2.931  14.773 -0.2666  0.1929  0.5264
 2771TIP3    H129804  -0.038   2.898  14.819 -0.5434 -0.1317 -0.1517
 2771TIP3    H229805   0.064   2.860  14.714  0.3095  0.4517  0.4476
 2772TIP3   OH229806   3.391   6.074  12.455 -0.2302  0.0184  0.0253
 2772TIP3    H129807   3.396   6.154  12.403 -1.2772 -1.3222 -2.3179
 2772TIP3    H229808   3.476   6.031  12.442  0.3816  0.7730  1.3917
 2773TIP3   OH229809   2.834   0.043  10.668 -0.4315 -0.2513 -0.1829
 2773TIP3    H129810   2.815   0.135  10.648  0.0604 -0.5507 -2.1758
 2773TIP3    H229811   2.926   0.032  10.642 -1.4280 -2.1520 -3.4240
 2774TIP3   OH229812   6.650   5.382  14.986 -0.1165 -0.8110  0.6485
 2774TIP3    H129813   6.642   5.354  14.895 -0.7471 -1.1020  0.7835
 2774TIP3    H229814   6.731   5.341  15.017  3.1090  3.4018 -1.2059
 2775TIP3   OH229815   6.664   3.050   4.364 -0.5988  0.3319 -0.2140
 2775TIP3    H129816   6.585   2.996   4.356  0.0577 -0.4734 -1.9261
 2775TIP3    H229817   6.732   3.000   4.319  0.5767  1.6165  0.0447
 2776TIP3   OH229818   3.245   4.467   2.472 -0.0578 -0.0370  0.2397
 2776TIP3    H129819   3.276   4.434   2.556  0.3495 -1.1344 -0.3236
 2776TIP3    H229820   3.295   4.418   2.407 -3.0943 -2.1237 -0.7285
 2777TIP3   OH229821   1.286   4.772  13.088 -0.0236 -0.1579 -0.0311
 2777TIP3    H129822   1.314   4.716  13.016 -3.1506 -0.5529 -1.0993
 2777TIP3    H229823   1.307   4.861  13.059 -0.0249 -0.4142 -0.8303
 2778TIP3   OH229824   2.606   5.621  13.823 -0.6635  0.3032 -0.2944
 2778TIP3    H129825   2.526   5.597  13.870 -0.7812  2.0204  0.4387
 2778TIP3    H229826   2.635   5.539  13.784 -2.8036 -0.3725 -0.6285
 2779TIP3   OH229827   3.936   2.034  13.219 -0.3863  0.3819 -0.5057
 2779TIP3    H129828   4.019   2.079  13.200  0.5928 -1.7536 -1.6738
 2779TIP3    H229829   3.963   1.951  13.258 -1.8648 -1.1943 -2.6751
 2780TIP3   OH229830   6.574   3.711   6.357  0.1608  0.6457  0.0454
 2780TIP3    H129831   6.589   3.649   6.285 -0.8755 -0.1960  0.5250
 2780TIP3    H229832   6.650   3.768   6.356  2.0667 -1.7255  0.6922
 2781TIP3   OH229833   6.758   1.124   3.646  0.0921  0.0820 -0.0558
 2781TIP3    H129834   6.670   1.159   3.629 -0.3038 -0.9415 -0.2575
 2781TIP3    H229835   6.787   1.168   3.726 -1.5339 -1.1149  1.2788
 2782TIP3   OH229836   1.758   3.776   5.629 -0.0871  0.0285  0.0379
 2782TIP3    H129837   1.733   3.750   5.541  0.1603  0.8179 -0.2713
 2782TIP3    H229838   1.688   3.836   5.657  0.2824  0.4619  0.0409
 2783TIP3   OH229839   1.447   4.913   1.497  0.2004  0.0947  0.0301
 2783TIP3    H129840   1.428   4.828   1.537 -0.6741  0.3042  0.0687
 2783TIP3    H229841   1.462   4.893   1.405 -2.6689  0.1745 -0.5482
 2784TIP3   OH229842   3.008   6.270  14.779 -0.2123  0.1482  0.6537
 2784TIP3    H129843   2.973   6.359  14.789  0.1695  0.3478  0.2332
 2784TIP3    H229844   2.966   6.236  14.701 -0.4670 -0.0959  0.8961
 2785TIP3   OH229845   6.791   0.298  13.339 -0.0596  0.1945  1.0481
 2785TIP3    H129846   6.750   0.214  13.361 -0.4904  0.4722  1.3312
 2785TIP3    H229847   6.719   0.352  13.307  0.4204  0.0679 -0.2826
 2786TIP3   OH229848   6.307   5.568  15.970  0.0632  0.1388  0.2079
 2786TIP3    H129849   6.309   5.505  16.043 -0.1820  1.1815  1.1488
 2786TIP3    H229850   6.221   5.556  15.930  1.2418 -2.4975 -1.8465
 2787TIP3   OH229851   6.764   4.602  17.083  0.6769 -0.0674  0.1173
 2787TIP3    H129852   6.685   4.607  17.138 -0.0171 -0.9882 -0.7478
 2787TIP3    H229853   6.787   4.693  17.066  0.1782  0.2187  0.9213
 2788TIP3   OH229854   4.094   5.912   2.587  0.1316 -0.1691 -0.4643
 2788TIP3    H129855   4.180   5.875   2.568  0.7691  1.0452 -0.0264
 2788TIP3    H229856   4.097   5.935   2.679 -1.5796 -2.4128  0.2644
 2789TIP3   OH229857   2.928   5.697  15.423 -0.0608  0.1854 -0.4462
 2789TIP3    H129858   3.021   5.689  15.404  0.5779  1.5603  1.7771
 2789TIP3    H229859   2.919   5.670  15.514 -2.1247 -1.3295 -1.0087
 2790TIP3   OH229860   5.027   1.215   1.520  0.0978 -0.2926  0.7086
 2790TIP3    H129861   5.080   1.291   1.496 -2.1165  1.6199  1.4693
 2790TIP3    H229862   5.005   1.230   1.612 -1.4605 -1.1586  0.5137
 2791TIP3   OH229863   3.463   4.493  16.587 -0.5325  0.2561 -0.3102
 2791TIP3    H129864   3.536   4.553  16.604  1.4799 -1.6602 -1.5764
 2791TIP3    H229865   3.422   4.527  16.508  0.9435 -0.2493 -1.3437
 2792TIP3   OH229866   5.593   0.824   4.281 -0.2092  0.2053 -0.1724
 2792TIP3    H129867   5.620   0.908   4.318  0.7860 -0.5445  0.8683
 2792TIP3    H229868   5.520   0.846   4.224 -0.5081  1.6687  0.7153
 2793TIP3   OH229869   4.833   0.652   1.444 -0.4109  0.2708 -0.0995
 2793TIP3    H129870   4.767   0.680   1.507 -1.2020 -1.0852 -0.2895
 2793TIP3    H229871   4.914   0.645   1.496 -1.3610 -2.3397  1.2012
 2794TIP3   OH229872   2.840   6.790  12.789 -0.3858 -0.2440  0.6520
 2794TIP3    H129873   2.815   6.833  12.708 -2.0583 -1.0974  0.6547
 2794TIP3    H229874   2.901   6.850  12.831 -2.0460  1.7954  0.3129
 2795TIP3   OH229875   6.666   4.825   4.282 -0.3533 -0.0682 -0.1413
 2795TIP3    H129876   6.683   4.887   4.354  1.2624 -1.5664  0.8544
 2795TIP3    H229877   6.742   4.834   4.225 -0.9009  0.0092 -0.8694
 2796TIP3   OH229878   5.430   6.597  16.026  0.4291  0.1740 -0.1561
 2796TIP3    H129879   5.428   6.610  16.121 -0.5708 -0.5424 -0.0710
 2796TIP3    H229880   5.395   6.679  15.990  0.7057  0.4046  0.0877
 2797TIP3   OH229881   4.104   1.977  13.674 -0.1839  0.5119  0.0834
 2797TIP3    H129882   4.074   1.887  13.660 -1.2087  0.8630 -0.0417
 2797TIP3    H229883   4.148   1.974  13.759 -0.7346  0.0084  0.3589
 2798TIP3   OH229884   2.447   5.051  12.544 -0.1048  0.2709  0.3077
 2798TIP3    H129885   2.532   5.069  12.584  1.2356 -0.0990 -2.1836
 2798TIP3    H229886   2.468   4.999  12.466 -2.5589  0.7696 -0.7556
 2799TIP3   OH229887   3.009   4.474   3.390 -0.2786  0.7531 -0.0792
 2799TIP3    H129888   2.950   4.405   3.360  0.0967  0.1060  0.6447
 2799TIP3    H229889   3.082   4.472   3.328  0.0165  0.0924  0.2822
 2800TIP3   OH229890   4.432   1.396   2.024 -0.6848 -0.3229  0.0804
 2800TIP3    H129891   4.416   1.303   2.042 -0.6547 -0.4377 -0.4614
 2800TIP3    H229892   4.427   1.403   1.928  0.8583 -0.0557  0.0018
 2801TIP3   OH229893   5.870   4.220  11.198 -0.0465 -0.0625 -0.0877
 2801TIP3    H129894   5.788   4.195  11.154 -1.2095  1.2967  1.1926
 2801TIP3    H229895   5.847   4.299  11.247  2.3165  0.9233 -0.4781
 2802TIP3   OH229896   5.168   0.082  15.511 -0.4942 -0.1116 -0.0535
 2802TIP3    H129897   5.123   0.122  15.585 -1.5519 -0.4372 -0.5021
 2802TIP3    H229898   5.126   0.121  15.434 -0.6267 -1.0953 -0.4857
 2803TIP3   OH229899   1.596   1.264  16.720 -0.3131 -0.6431  0.4914
 2803TIP3    H129900   1.643   1.346  16.706 -1.5584 -0.2523 -1.7758
 2803TIP3    H229901   1.506   1.290  16.736 -1.4533 -1.5170 -3.4924
 2804TIP3   OH229902   6.804   5.739   4.781  0.3508 -0.1442  0.8016
 2804TIP3    H129903   6.806   5.713   4.873  0.8749 -1.2247  0.5070
 2804TIP3    H229904   6.755   5.670   4.738 -1.1689  1.0927  0.4549
 2805TIP3   OH229905   5.898   5.979  11.260 -0.4879 -0.5162 -0.0986
 2805TIP3    H129906   5.956   5.903  11.272 -0.8167 -0.7105  0.2673
 2805TIP3    H229907   5.811   5.942  11.253 -0.3225 -0.5026 -3.8457
 2806TIP3   OH229908   2.377   6.380   5.236 -0.4718 -0.3191  0.3378
 2806TIP3    H129909   2.371   6.469   5.202 -0.4844 -0.1190  0.8599
 2806TIP3    H229910   2.308   6.374   5.302  0.8487 -0.0305  1.8168
 2807TIP3   OH229911   2.940   0.722  15.043 -0.0656 -0.4842 -0.2062
 2807TIP3    H129912   2.914   0.805  15.004 -2.8461 -0.2864  1.7738
 2807TIP3    H229913   2.997   0.746  15.115  1.0615 -0.5208 -1.0536
 2808TIP3   OH229914   4.817   0.568  15.279 -0.1545 -0.4793 -0.2169
 2808TIP3    H129915   4.853   0.656  15.283  1.4168 -1.0213 -1.5594
 2808TIP3    H229916   4.724   0.582  15.259  0.2412  0.8709 -1.3122
 2809TIP3   OH229917   6.686   3.021   4.726 -0.2233 -0.0595  0.2450
 2809TIP3    H129918   6.760   2.987   4.675 -0.7779  0.0341 -0.6477
 2809TIP3    H229919   6.718   3.104   4.762 -0.2362  0.5138 -1.0274
 2810TIP3   OH229920   1.751   3.500   4.690 -0.1348 -0.1399 -0.3595
 2810TIP3    H129921   1.683   3.553   4.646 -0.7382 -1.8691 -1.6261
 2810TIP3    H229922   1.832   3.548   4.674 -0.0160 -1.4149 -5.0372
 2811TIP3   OH229923   4.565   1.801   5.442  0.4999 -0.1795  0.1786
 2811TIP3    H129924   4.598   1.820   5.354  3.4420  2.2854  1.6254
 2811TIP3    H229925   4.629   1.740   5.479  0.6643  0.6713  1.3643
 2812TIP3   OH229926   3.492   6.491   1.351  0.3162 -0.0395  0.3904
 2812TIP3    H129927   3.481   6.472   1.258  0.4847 -1.4891  0.6444
 2812TIP3    H229928   3.403   6.485   1.387  0.1001  1.4610  0.1959
 2813TIP3   OH229929   1.856   3.217   2.622 -0.4043  0.3465  0.2193
 2813TIP3    H129930   1.867   3.305   2.587  2.1657  0.0936  0.2181
 2813TIP3    H229931   1.765   3.214   2.651 -0.5340  3.0299  0.3290
 2814TIP3   OH229932   2.009   5.369   1.663 -0.1285  0.0463 -0.5000
 2814TIP3    H129933   1.972   5.288   1.698  0.5620 -0.3939 -0.7580
 2814TIP3    H229934   1.937   5.431   1.665 -0.8457 -0.7467 -0.8808
 2815TIP3   OH229935   4.363   5.181  12.712 -0.6087  0.3526  0.2663
 2815TIP3    H129936   4.397   5.264  12.680  0.9862  0.2628  1.6205
 2815TIP3    H229937   4.295   5.205  12.774  0.5282  0.7319  1.4210
 2816TIP3   OH229938   2.653   5.000   0.946  0.2421 -0.2639 -0.3379
 2816TIP3    H129939   2.675   5.087   0.979 -0.7024  0.2214 -0.9432
 2816TIP3    H229940   2.586   5.016   0.880 -0.6954 -1.5303  0.2625
 2817TIP3   OH229941   0.839   0.533   3.482  0.2486  0.4367  0.3010
 2817TIP3    H129942   0.924   0.579   3.483  0.3691  0.4738 -2.4811
 2817TIP3    H229943   0.847   0.472   3.409 -1.1122 -1.7244  1.8676
 2818TIP3   OH229944   6.160   5.429  13.911  0.0305 -0.3523  0.1966
 2818TIP3    H129945   6.112   5.386  13.981 -0.2930 -1.2403 -0.5474
 2818TIP3    H229946   6.203   5.358  13.864 -0.5872  0.1117 -1.1203
 2819TIP3   OH229947   2.653   1.954   0.893  0.4226 -0.1863  0.2724
 2819TIP3    H129948   2.725   1.948   0.830 -0.0537  0.3953 -0.3384
 2819TIP3    H229949   2.596   1.880   0.872 -0.3403  0.6752 -0.7630
 2820TIP3   OH229950   4.280   0.123  11.465 -0.1194 -0.0171 -0.0056
 2820TIP3    H129951   4.314   0.060  11.402  1.0457  0.8616 -0.2887
 2820TIP3    H229952   4.185   0.119  11.454 -0.1239 -2.0172  0.2928
 2821TIP3   OH229953   6.490   1.788   5.954  0.4999 -0.1039  0.0863
 2821TIP3    H129954   6.427   1.802   5.883  0.2961 -0.2553  0.2370
 2821TIP3    H229955   6.442   1.737   6.019  0.3748  0.8904  0.7837
 2822TIP3   OH229956   3.448   4.034   2.588 -0.0553  0.4638  0.4434
 2822TIP3    H129957   3.365   4.014   2.632  0.9451 -0.1652  2.1795
 2822TIP3    H229958   3.489   4.100   2.644  0.2942  1.3070 -0.7929
 2823TIP3   OH229959   2.025   5.808  14.797  0.3050 -0.2721 -0.2572
 2823TIP3    H129960   2.086   5.735  14.809 -0.3672 -1.0886 -1.5799
 2823TIP3    H229961   1.939   5.768  14.800 -0.1954  0.8047  1.0911
 2824TIP3   OH229962   3.625   6.393  11.920  0.0995 -0.0241 -0.0676
 2824TIP3    H129963   3.693   6.443  11.965 -1.1318  1.1881  0.5255
 2824TIP3    H229964   3.619   6.433  11.834  0.4857 -0.4709 -0.3049
 2825TIP3   OH229965   2.585   0.682  11.699 -0.4083  0.1672  0.3241
 2825TIP3    H129966   2.562   0.768  11.664  0.5238  0.6037  0.7464
 2825TIP3    H229967   2.511   0.626  11.676 -0.9211  1.0246 -0.1624
 2826TIP3   OH229968   6.000   2.775   2.456 -0.4156 -0.3296 -0.5246
 2826TIP3    H129969   5.912   2.767   2.493 -0.3651  1.5318  0.1062
 2826TIP3    H229970   6.015   2.869   2.450  0.8089 -0.5970 -2.4265
 2827TIP3   OH229971   5.416   4.484   2.706 -0.0839  0.3207 -0.1800
 2827TIP3    H129972   5.505   4.491   2.670 -0.0811  0.2757 -0.1830
 2827TIP3    H229973   5.369   4.558   2.668  0.4391  1.4297  1.2864
 2828TIP3   OH229974   0.922   0.843  10.665  0.2408  0.5601  0.3590
 2828TIP3    H129975   0.907   0.752  10.691  1.0124  0.3380  0.0549
 2828TIP3    H229976   1.018   0.851  10.661  0.1627  1.0191 -0.8982
 2829TIP3   OH229977   6.832   4.056  11.818 -0.4663  0.3085  0.5414
 2829TIP3    H129978   6.770   4.014  11.758 -1.5912 -0.9454  2.4789
 2829TIP3    H229979   6.786   4.135  11.848 -0.8150 -0.1807  1.3342
 2830TIP3   OH229980   5.555   0.278   5.433  0.0133 -0.0143  0.1682
 2830TIP3    H129981   5.579   0.192   5.468 -0.4284  0.0114  0.5442
 2830TIP3    H229982   5.462   0.287   5.453  0.0930  0.6169  0.2746
 2831TIP3   OH229983   0.226   4.691   4.109 -0.6462  0.0857 -0.0668
 2831TIP3    H129984   0.231   4.774   4.063  2.4238 -1.2514 -2.5062
 2831TIP3    H229985   0.142   4.654   4.083 -0.6254  1.0315 -1.5591
 2832TIP3   OH229986   5.600   0.859  16.184  0.1679 -0.0443  0.6951
 2832TIP3    H129987   5.620   0.860  16.090  1.0810 -1.1590  0.8431
 2832TIP3    H229988   5.510   0.827  16.189 -0.3857  1.3886  0.1509
 2833TIP3   OH229989   5.394   5.958   2.443  0.3271 -0.5501 -0.6129
 2833TIP3    H129990   5.483   5.993   2.437  0.1132 -0.2114 -3.4072
 2833TIP3    H229991   5.339   6.034   2.461  0.6140 -0.9439  2.4895
 2834TIP3   OH229992   2.734   5.534   3.383  0.2615 -0.2821 -0.2907
 2834TIP3    H129993   2.818   5.563   3.348 -0.0740  1.6185  0.3320
 2834TIP3    H229994   2.755   5.492   3.467  0.6552 -0.5962 -0.5466
 2835TIP3   OH229995   3.691   4.460   2.275 -0.2061  0.0621  0.0892
 2835TIP3    H129996   3.712   4.539   2.324  1.7308 -1.7842  2.5100
 2835TIP3    H229997   3.762   4.452   2.210  1.5493 -1.2363  2.0100
 2836TIP3   OH229998   2.483   3.641   3.119  0.8617  0.5389  0.0999
 2836TIP3    H129999   2.492   3.659   3.025 -0.9238 -1.6330 -0.5956
 2836TIP3    H230000   2.539   3.564   3.134  0.3614  0.2599  0.5670
 2837TIP3   OH230001   2.546   4.340   4.687  0.3744 -0.4768  0.4942
 2837TIP3    H130002   2.459   4.306   4.668  0.6814 -0.5492 -0.8981
 2837TIP3    H230003   2.549   4.425   4.644  0.3531  0.4069  2.1533
 2838TIP3   OH230004   2.582   1.802   3.003 -0.0103 -0.1010  0.1042
 2838TIP3    H130005   2.582   1.747   3.081  0.0335 -1.0931 -0.5754
 2838TIP3    H230006   2.615   1.887   3.033 -3.2919  0.6958  1.9202
 2839TIP3   OH230007   5.725   1.262   2.400 -0.3262  1.4564  0.0560
 2839TIP3    H130008   5.799   1.211   2.435 -0.8637 -0.0348 -0.8949
 2839TIP3    H230009   5.670   1.280   2.476 -0.5723 -0.1930  0.3078
 2840TIP3   OH230010   3.649   3.076  13.808 -0.5264  0.3190  0.3194
 2840TIP3    H130011   3.665   3.132  13.733 -1.2500 -0.2258 -0.2546
 2840TIP3    H230012   3.613   3.134  13.875 -0.0875  0.7642  0.1771
 2841TIP3   OH230013   0.053   4.117  15.477 -0.6465  0.1057  0.3637
 2841TIP3    H130014  -0.008   4.185  15.505 -1.2867 -0.7787  1.1582
 2841TIP3    H230015   0.007   4.071  15.406 -0.5185  0.0224  0.3328
 2842TIP3   OH230016   4.065   2.722  14.244  0.3585 -0.2801  0.6638
 2842TIP3    H130017   3.983   2.678  14.267  1.3660 -1.3193  2.4950
 2842TIP3    H230018   4.083   2.780  14.317  1.7816 -0.8851  0.8380
 2843TIP3   OH230019   6.540   1.042   2.901 -0.2154 -0.2607 -0.2144
 2843TIP3    H130020   6.523   1.121   2.851 -0.6503 -0.4809 -0.4249
 2843TIP3    H230021   6.627   1.055   2.939 -0.3486  0.3760 -0.1259
 2844TIP3   OH230022   4.426   0.182   0.897  0.5592  0.4034 -0.0827
 2844TIP3    H130023   4.367   0.141   0.834  0.3699 -1.5057  1.2408
 2844TIP3    H230024   4.389   0.159   0.982  2.6672 -0.0509  0.7636
 2845TIP3   OH230025   1.904   6.247   1.552  0.1145  0.2563  0.3114
 2845TIP3    H130026   1.982   6.214   1.596 -0.0718 -1.4020 -0.5341
 2845TIP3    H230027   1.855   6.293   1.621  2.1483  1.9992  0.6971
 2846TIP3   OH230028   0.557   0.442   4.597  0.2235  0.0765  0.6707
 2846TIP3    H130029   0.563   0.509   4.529 -0.9720  0.7203  1.1635
 2846TIP3    H230030   0.517   0.367   4.553  1.4798 -0.3190  0.1413
 2847TIP3   OH230031   2.572   2.105  11.004 -0.5999 -0.4638 -0.3660
 2847TIP3    H130032   2.611   2.192  11.016 -1.6857 -0.0170  0.0216
 2847TIP3    H230033   2.589   2.084  10.912  0.6132 -0.3253 -0.1934
 2848TIP3   OH230034   1.140   5.796  14.875 -0.4020  0.0115 -0.4852
 2848TIP3    H130035   1.169   5.871  14.928  2.9393 -0.0279 -2.0001
 2848TIP3    H230036   1.064   5.828  14.827 -0.2777  1.7541  0.4042
 2849TIP3   OH230037   2.592   2.985  14.125  0.4205  0.2168 -0.4530
 2849TIP3    H130038   2.596   3.033  14.042 -0.0769  1.9178  0.4446
 2849TIP3    H230039   2.502   2.998  14.155  1.1328  1.4378  1.3305
 2850TIP3   OH230040   2.792   5.212   2.547  0.3725  0.0434  0.2427
 2850TIP3    H130041   2.863   5.149   2.559 -1.0479 -1.5675  0.6426
 2850TIP3    H230042   2.726   5.164   2.497  0.5515  2.3035 -2.3900
 2851TIP3   OH230043   1.260   3.556   1.887  0.0803 -0.2646  0.3571
 2851TIP3    H130044   1.204   3.482   1.911  1.2922 -0.8108  1.5900
 2851TIP3    H230045   1.254   3.616   1.961  1.8140 -0.7509  0.9229
 2852TIP3   OH230046   6.776   1.858   0.560  0.0092  0.5239 -0.7074
 2852TIP3    H130047   6.762   1.807   0.640  0.8879  1.0450 -0.2049
 2852TIP3    H230048   6.871   1.862   0.551 -0.0823  0.1119 -2.0292
 2853TIP3   OH230049   0.675   2.748   1.713  0.1188 -0.3674 -0.4945
 2853TIP3    H130050   0.716   2.808   1.776 -1.2494 -1.4522  1.5190
 2853TIP3    H230051   0.599   2.795   1.680  0.9293  0.2678 -1.5672
 2854TIP3   OH230052   6.460   1.726   3.480  0.1611 -0.4317 -0.2986
 2854TIP3    H130053   6.476   1.787   3.409 -1.4810  1.3707  0.7717
 2854TIP3    H230054   6.495   1.769   3.558 -0.9148 -0.8751  0.4620
 2855TIP3   OH230055   4.495   5.297   4.198  0.2714 -0.1271  0.2057
 2855TIP3    H130056   4.422   5.235   4.209  1.3491 -1.6548 -0.8017
 2855TIP3    H230057   4.512   5.295   4.104  2.3610 -0.7306  0.5594
 2856TIP3   OH230058   0.534   4.391  16.246 -0.0030 -0.2120 -0.4502
 2856TIP3    H130059   0.471   4.464  16.247 -0.1691 -0.3162  1.5773
 2856TIP3    H230060   0.516   4.344  16.328  2.3286 -0.5806 -0.0939
 2857TIP3   OH230061   4.171   6.245  15.530 -0.1323  0.4029 -0.1396
 2857TIP3    H130062   4.182   6.315  15.465 -0.8480  0.7754  0.1263
 2857TIP3    H230063   4.084   6.210  15.513  0.7340 -1.3718 -1.1590
 2858TIP3   OH230064   6.358   1.147   1.321  0.1473 -0.8901  0.1019
 2858TIP3    H130065   6.283   1.088   1.328 -1.0348  0.6479  1.2094
 2858TIP3    H230066   6.391   1.153   1.411 -0.4811  0.9876  0.2407
 2859TIP3   OH230067   1.307   0.181   2.574  0.0449  0.2701 -0.5576
 2859TIP3    H130068   1.351   0.096   2.578  0.7067  0.6439  0.4584
 2859TIP3    H230069   1.218   0.163   2.604  0.0930 -0.1279 -0.6511
 2860TIP3   OH230070   2.664   4.838  16.345 -0.7851  0.4338 -0.2640
 2860TIP3    H130071   2.630   4.780  16.276 -1.9256  0.1221  0.5393
 2860TIP3    H230072   2.758   4.838  16.331 -0.8436 -0.9081 -0.8372
 2861TIP3   OH230073   0.705   0.432  15.002  0.0048  0.8053  0.2921
 2861TIP3    H130074   0.783   0.378  15.015  0.0826  0.3612 -1.6806
 2861TIP3    H230075   0.740   0.521  14.988  0.1028  0.7626  0.2629
 2862TIP3   OH230076   0.766   3.309   3.755  0.8785 -0.3829 -0.3816
 2862TIP3    H130077   0.754   3.404   3.753  1.2366 -0.3297 -0.0629
 2862TIP3    H230078   0.677   3.274   3.759  0.7710 -0.0005  1.8422
 2863TIP3   OH230079   4.963   3.905  14.921 -0.1308 -0.2650 -0.4212
 2863TIP3    H130080   5.031   3.959  14.880 -0.5170  1.1083  0.6846
 2863TIP3    H230081   5.009   3.859  14.992  0.1320 -1.1942 -1.1721
 2864TIP3   OH230082   5.410   0.447   0.787 -0.3788  0.3821  0.1126
 2864TIP3    H130083   5.378   0.506   0.855  0.8388  0.5580  0.5530
 2864TIP3    H230084   5.335   0.391   0.768 -1.2805  1.4641  0.3361
 2865TIP3   OH230085   0.014   3.133   3.774 -0.5492 -0.5176 -0.0105
 2865TIP3    H130086   0.095   3.153   3.727 -0.9763 -0.5165 -0.7746
 2865TIP3    H230087  -0.036   3.215   3.771 -0.0636 -0.1279  1.5739
 2866TIP3   OH230088   3.882   2.230  14.343  0.1622 -0.3211 -0.2063
 2866TIP3    H130089   3.820   2.171  14.300 -0.4707  0.0711  0.1519
 2866TIP3    H230090   3.964   2.181  14.345  0.0181 -0.6331 -1.1942
 2867TIP3   OH230091   1.590   2.314   0.162 -0.9448  0.4017 -0.2722
 2867TIP3    H130092   1.648   2.294   0.088  0.5525 -0.5715  1.0873
 2867TIP3    H230093   1.636   2.383   0.210 -1.3742  0.2814  0.3192
 2868TIP3   OH230094   1.425   4.428  14.933  0.2197 -0.2955 -0.4380
 2868TIP3    H130095   1.343   4.396  14.972  0.2200  0.2468  0.0127
 2868TIP3    H230096   1.400   4.509  14.889  0.3508 -0.5678 -1.0248
 2869TIP3   OH230097   2.761   2.381  17.097 -0.3574 -0.6245 -0.4837
 2869TIP3    H130098   2.762   2.312  17.030 -0.1918 -0.9851 -0.1077
 2869TIP3    H230099   2.680   2.429  17.079 -1.6092 -2.2224  0.5779
 2870TIP3   OH230100   1.227   0.862   0.165 -0.4686 -0.4559 -0.2098
 2870TIP3    H130101   1.144   0.912   0.163 -0.8280 -1.0171  0.2422
 2870TIP3    H230102   1.278   0.905   0.234 -0.5990 -0.4326 -0.1259
 2871TIP3   OH230103   2.380   3.527  16.564 -0.0638 -0.2507  0.3620
 2871TIP3    H130104   2.337   3.464  16.506  1.5200 -0.7231 -0.3615
 2871TIP3    H230105   2.333   3.519  16.647 -3.0544  1.1597 -1.0683
 2872TIP3   OH230106   0.453   4.544   4.604  0.3292 -0.5987 -0.0168
 2872TIP3    H130107   0.514   4.610   4.572 -1.8329  1.6305  0.1425
 2872TIP3    H230108   0.423   4.499   4.525 -0.1760  0.4952 -0.4732
 2873TIP3   OH230109   1.515   5.642  13.976 -0.6760  0.2363  0.0825
 2873TIP3    H130110   1.520   5.732  13.941 -2.4535  0.6332  0.7391
 2873TIP3    H230111   1.451   5.598  13.919  0.5322 -0.7800 -0.5262
 2874TIP3   OH230112   2.598   3.089   3.916  0.3318 -0.1939  0.0637
 2874TIP3    H130113   2.643   3.101   3.833  1.5853 -1.5158  0.4990
 2874TIP3    H230114   2.505   3.095   3.895  0.6591  0.3237 -1.2752
 2875TIP3   OH230115   6.212   3.968   3.535 -0.0135 -0.3266  0.3801
 2875TIP3    H130116   6.213   4.057   3.569  1.3280 -0.8651  1.8994
 2875TIP3    H230117   6.172   3.916   3.605  0.4790 -1.0977  0.1114
 2876TIP3   OH230118   5.051   4.979   1.171 -0.2327  0.4281  0.1289
 2876TIP3    H130119   5.113   5.039   1.128  0.1476  0.6152  0.9304
 2876TIP3    H230120   5.102   4.902   1.192 -0.1290  0.7968  1.2787
 2877TIP3   OH230121   4.918   3.451  16.442 -0.3084  0.0999  0.2513
 2877TIP3    H130122   4.893   3.524  16.498  0.0275  0.5331 -0.1531
 2877TIP3    H230123   4.849   3.386  16.454 -0.3050  0.2416  1.0672
 2878TIP3   OH230124   1.894   0.439   0.127 -0.2960  0.4210 -0.7597
 2878TIP3    H130125   1.848   0.483   0.056 -0.3098 -0.7360 -1.4888
 2878TIP3    H230126   1.833   0.372   0.158  0.2800 -0.0736 -0.6692
 2879TIP3   OH230127   6.180   3.270   1.365  0.2931  0.0048 -0.1913
 2879TIP3    H130128   6.174   3.272   1.461  1.8539 -0.1051 -0.0758
 2879TIP3    H230129   6.168   3.177   1.342 -0.3199  0.0644 -0.1338
 2880TIP3   OH230130   0.856   3.036   6.282 -0.0964  1.1126 -0.1083
 2880TIP3    H130131   0.827   3.105   6.342 -0.5464  2.1032 -1.4309
 2880TIP3    H230132   0.877   2.962   6.340  0.8608  2.4838  1.3856
 2881TIP3   OH230133   5.716   1.253  11.627 -0.4128 -0.7109  0.2290
 2881TIP3    H130134   5.778   1.312  11.670 -0.9841 -0.2373  0.4276
 2881TIP3    H230135   5.754   1.166  11.637  0.1293 -0.4492  0.4992
 2882TIP3   OH230136   2.660   5.308   3.872  0.3629  0.4643  0.5264
 2882TIP3    H130137   2.752   5.292   3.896  0.7281 -0.4369 -1.2469
 2882TIP3    H230138   2.639   5.393   3.910  2.1950  1.0485  0.3283
 2883TIP3   OH230139   3.382   6.310  11.454  0.3897  0.5833 -0.0240
 2883TIP3    H130140   3.439   6.235  11.472  0.6263  0.8683  0.4374
 2883TIP3    H230141   3.295   6.271  11.438  0.3927  0.2503  0.7486
 2884TIP3   OH230142   6.182   0.877  10.754  0.2848 -0.3903  0.1070
 2884TIP3    H130143   6.250   0.886  10.821  1.0141 -0.6407 -0.5774
 2884TIP3    H230144   6.230   0.848  10.676 -0.6282 -0.6379 -0.3680
 2885TIP3   OH230145   3.120   1.797   3.711 -0.2676 -0.3587  0.4539
 2885TIP3    H130146   3.148   1.746   3.635 -0.6413 -1.1740  0.8601
 2885TIP3    H230147   3.040   1.755   3.741 -0.2813  0.1271  1.1378
 2886TIP3   OH230148   3.217   2.656   3.266 -0.2120 -0.2510 -0.4673
 2886TIP3    H130149   3.224   2.561   3.268 -0.7617 -0.2919 -0.2665
 2886TIP3    H230150   3.305   2.687   3.285 -0.5536 -0.7141  2.2761
 2887TIP3   OH230151   0.530   6.556  11.523 -0.2863 -0.0524  0.3790
 2887TIP3    H130152   0.623   6.541  11.508  0.2166  0.7104  2.4637
 2887TIP3    H230153   0.512   6.641  11.484 -0.2946 -0.5035 -0.6313
 2888TIP3   OH230154   5.918   5.140   2.714  0.9192  0.4914 -0.1024
 2888TIP3    H130155   6.006   5.169   2.692  0.7192  1.3975  0.2384
 2888TIP3    H230156   5.884   5.105   2.632  1.9033 -0.7134 -0.0154
 2889TIP3   OH230157   2.094   0.162   5.398 -0.0068 -0.2551  0.3797
 2889TIP3    H130158   2.033   0.234   5.415  0.8618  0.4908  0.4562
 2889TIP3    H230159   2.053   0.086   5.439 -0.8314  0.2417  0.5148
 2890TIP3   OH230160   5.960   3.817  14.354  0.7935  0.4849  0.3703
 2890TIP3    H130161   5.929   3.848  14.269  0.1998 -0.0009  0.4063
 2890TIP3    H230162   5.900   3.855  14.418 -0.5933 -1.5206  0.3410
 2891TIP3   OH230163   5.211   4.134   1.635 -0.2684 -0.2422 -0.6053
 2891TIP3    H130164   5.146   4.200   1.613  0.6453  1.1250  0.5799
 2891TIP3    H230165   5.250   4.165   1.717  1.4381 -1.3102 -0.9478
 2892TIP3   OH230166   0.734   6.579  12.903 -0.9068  0.1027 -0.4390
 2892TIP3    H130167   0.815   6.612  12.863 -0.7471 -0.3681 -0.5093
 2892TIP3    H230168   0.764   6.518  12.970 -1.2101 -1.1173 -1.3723
 2893TIP3   OH230169   2.513   3.695   2.792 -0.3936  0.7505  0.1357
 2893TIP3    H130170   2.505   3.630   2.722  0.3524  0.5957  0.1879
 2893TIP3    H230171   2.489   3.778   2.750  0.4170  0.7159 -0.4167
 2894TIP3   OH230172   6.071   0.162   5.677 -0.4486  0.0662  0.4208
 2894TIP3    H130173   5.999   0.194   5.731 -2.0523  0.6503 -1.9227
 2894TIP3    H230174   6.135   0.233   5.678  0.7616 -0.9089  3.4553
 2895TIP3   OH230175   1.881   5.201   2.243  0.6417 -0.4110 -0.3624
 2895TIP3    H130176   1.840   5.152   2.314 -0.2604  0.6037 -0.1485
 2895TIP3    H230177   1.820   5.191   2.169  1.4482 -1.2493 -0.9391
 2896TIP3   OH230178   0.918   2.869  12.135 -0.1837 -0.5585  0.2546
 2896TIP3    H130179   0.907   2.870  12.040 -0.8091 -2.1240  0.2762
 2896TIP3    H230180   1.001   2.914  12.150  0.6057 -1.4617 -1.1564
 2897TIP3   OH230181   4.733   3.553   4.036 -0.0388 -0.0030  0.3971
 2897TIP3    H130182   4.755   3.645   4.040  0.0309 -0.0494  1.2590
 2897TIP3    H230183   4.786   3.512   4.105 -1.0752 -0.4603  0.9591
 2898TIP3   OH230184   3.341   3.375   3.282  0.2773  0.0487  0.2374
 2898TIP3    H130185   3.287   3.300   3.306 -1.9660  1.7872  1.0084
 2898TIP3    H230186   3.386   3.347   3.202 -2.8165 -1.1227 -1.2662
 2899TIP3   OH230187   0.641   6.464   2.688  0.2060 -0.5994 -0.4829
 2899TIP3    H130188   0.689   6.388   2.720 -3.5493 -1.3733  4.4674
 2899TIP3    H230189   0.658   6.532   2.753 -3.6051 -0.3883  0.5445
 2900TIP3   OH230190   3.276   6.408  11.206 -0.0412  0.4904  0.4066
 2900TIP3    H130191   3.188   6.401  11.244 -0.2530  0.6925 -0.0325
 2900TIP3    H230192   3.333   6.366  11.269 -0.4739  0.2382  0.6343
 2901TIP3   OH230193   5.872   0.706  14.895  0.1195 -0.2116  0.2549
 2901TIP3    H130194   5.930   0.705  14.818 -1.0865 -0.7527 -0.6802
 2901TIP3    H230195   5.842   0.615  14.903 -0.9047  0.1330  0.4704
 2902TIP3   OH230196   0.314   5.579   2.045 -0.1436  0.2531  0.1338
 2902TIP3    H130197   0.293   5.566   1.953  2.5327  0.8718 -0.6625
 2902TIP3    H230198   0.358   5.498   2.071  1.3513  1.0321  0.1034
 2903TIP3   OH230199   5.184   6.285  13.179  0.0483 -0.2836  0.4189
 2903TIP3    H130200   5.108   6.264  13.125 -0.1932 -1.8026  1.2674
 2903TIP3    H230201   5.259   6.254  13.127 -0.1112 -0.8946  0.5377
 2904TIP3   OH230202   5.079   0.393   2.062 -0.2758 -0.5632  0.1539
 2904TIP3    H130203   5.071   0.488   2.062  1.2202 -0.3938  1.3274
 2904TIP3    H230204   5.152   0.375   2.003  2.3420 -0.5697  3.1316
 2905TIP3   OH230205   5.706   3.698  12.284 -0.4430  0.4669 -0.1623
 2905TIP3    H130206   5.625   3.747  12.266 -0.4421  1.2679  1.7956
 2905TIP3    H230207   5.756   3.705  12.203 -1.4586  1.7082 -0.7231
 2906TIP3   OH230208   0.516   0.652  10.883  0.1100  0.2768 -0.2095
 2906TIP3    H130209   0.519   0.748  10.875 -1.7098  0.4006  0.1000
 2906TIP3    H230210   0.494   0.622  10.795  1.5331  0.0600 -0.5088
 2907TIP3   OH230211   1.647   2.693   2.170 -0.4429 -0.2502  0.1085
 2907TIP3    H130212   1.742   2.701   2.160 -0.2069 -0.8507  1.6057
 2907TIP3    H230213   1.634   2.606   2.207 -1.5995 -0.2334 -0.2249
 2908TIP3   OH230214   3.912   1.536  16.464 -0.0544 -0.5491 -0.5034
 2908TIP3    H130215   3.948   1.557  16.378  0.2535  0.4760 -0.1383
 2908TIP3    H230216   3.986   1.501  16.513 -0.3801 -1.7738 -0.8467
 2909TIP3   OH230217   6.715   3.730   3.679 -0.3777 -0.6422 -0.0238
 2909TIP3    H130218   6.670   3.648   3.658 -1.5267 -0.4484  1.5370
 2909TIP3    H230219   6.675   3.795   3.622 -1.1165 -0.7473  0.3571
 2910TIP3   OH230220   4.976   4.246  12.853  0.2351  0.2963  0.3181
 2910TIP3    H130221   4.915   4.245  12.779  0.4872 -2.4880  0.0689
 2910TIP3    H230222   5.060   4.269  12.813  0.0420  0.5352  0.0435
 2911TIP3   OH230223   6.369   2.565   3.448  0.3003 -0.1136  0.2475
 2911TIP3    H130224   6.455   2.523   3.456 -0.0581 -1.4355 -1.8874
 2911TIP3    H230225   6.388   2.658   3.448  1.4072 -0.2751  2.6223
 2912TIP3   OH230226   2.399   5.371  13.366  0.0586  0.7111 -1.0722
 2912TIP3    H130227   2.348   5.350  13.444  1.1436  0.2402 -0.4700
 2912TIP3    H230228   2.333   5.394  13.300 -1.0538 -1.5206 -0.8455
 2913TIP3   OH230229   2.216   4.787  11.687  0.2625 -0.3835 -0.1609
 2913TIP3    H130230   2.140   4.800  11.629 -2.2585 -2.6893  2.3583
 2913TIP3    H230231   2.254   4.704  11.659  0.6627 -0.2026 -0.1594
 2914TIP3   OH230232   3.032   5.353  14.020 -0.6224  0.2748  0.2184
 2914TIP3    H130233   2.986   5.431  14.051  0.1235  0.0884  1.8748
 2914TIP3    H230234   3.121   5.362  14.055 -0.4352 -1.1611  0.1485
 2915TIP3   OH230235   6.091   2.851  11.256 -0.2521 -0.3736  0.1557
 2915TIP3    H130236   6.169   2.802  11.284 -0.3973 -0.9554 -0.4397
 2915TIP3    H230237   6.124   2.939  11.238  0.8299 -1.2505 -2.6663
 2916TIP3   OH230238   3.219   1.459   1.589 -0.9155 -0.3146 -0.1718
 2916TIP3    H130239   3.156   1.409   1.538 -0.8121  1.2224 -1.8937
 2916TIP3    H230240   3.272   1.506   1.524  0.6231  0.0818  1.2893
 2917TIP3   OH230241   5.384   1.198   0.370  0.0501  0.2777  0.1874
 2917TIP3    H130242   5.454   1.158   0.318  0.1750  0.6287  0.0835
 2917TIP3    H230243   5.413   1.187   0.461  0.3585  0.6270  0.1371
 2918TIP3   OH230244   6.758   4.914  13.825  0.0340 -0.6341 -0.1508
 2918TIP3    H130245   6.807   4.970  13.885 -1.2793 -0.6253  0.9467
 2918TIP3    H230246   6.822   4.848  13.796  1.8805  1.8446 -2.1642
 2919TIP3   OH230247   2.627   6.036  15.632 -0.1381 -0.2768 -0.9632
 2919TIP3    H130248   2.581   5.953  15.617 -2.7320  1.2462 -2.1188
 2919TIP3    H230249   2.623   6.082  15.548  2.0742  0.6954 -0.6155
 2920TIP3   OH230250   4.577   5.709   4.938 -0.1855  0.3562 -0.2287
 2920TIP3    H130251   4.494   5.662   4.929  0.4246 -1.0210  0.9112
 2920TIP3    H230252   4.553   5.796   4.970 -1.1522 -0.2423  0.7397
 2921TIP3   OH230253   5.301   2.186   3.381 -0.2732 -0.1113 -0.5672
 2921TIP3    H130254   5.372   2.246   3.403 -0.4194  0.0977 -0.6645
 2921TIP3    H230255   5.329   2.143   3.300 -0.7429  0.7733 -1.2166
 2922TIP3   OH230256   0.833   4.113   5.865  0.1894  0.2553  0.0698
 2922TIP3    H130257   0.899   4.046   5.884  0.1447  0.0717 -0.4287
 2922TIP3    H230258   0.758   4.065   5.832  0.5802  0.6330 -1.4435
 2923TIP3   OH230259   4.575   0.750  16.903  0.0917 -0.6410 -0.5082
 2923TIP3    H130260   4.492   0.753  16.856  0.1262 -1.0536 -0.5972
 2923TIP3    H230261   4.618   0.672  16.870  1.2687  0.4715 -1.7243
 2924TIP3   OH230262   6.302   1.512   5.878 -0.1517  0.0764 -0.2252
 2924TIP3    H130263   6.271   1.427   5.909 -1.1421  1.2156  2.1953
 2924TIP3    H230264   6.231   1.573   5.900  2.1275  2.1602  1.9451
 2925TIP3   OH230265   3.653   3.984  16.717  0.6527 -0.1481 -0.2760
 2925TIP3    H130266   3.626   3.978  16.626  1.5727 -3.2867 -0.4898
 2925TIP3    H230267   3.573   3.975  16.768  0.3427 -0.3811 -0.8048
 2926TIP3   OH230268   6.096   3.203   4.271  0.0886  0.6149  0.7237
 2926TIP3    H130269   6.100   3.264   4.197 -2.3445  0.1019  0.0515
 2926TIP3    H230270   6.011   3.160   4.261  0.9552 -1.5998  2.1923
 2927TIP3   OH230271   4.121   1.785  11.352 -0.1526 -0.4337  0.2151
 2927TIP3    H130272   4.165   1.869  11.364  0.6077 -0.7036 -0.5277
 2927TIP3    H230273   4.083   1.791  11.264  0.7944 -1.2342 -0.2697
 2928TIP3   OH230274   0.567   3.900   4.342  0.1371 -0.2701 -0.2411
 2928TIP3    H130275   0.534   3.989   4.332  0.5126 -0.3733 -3.3646
 2928TIP3    H230276   0.619   3.885   4.263  2.5516 -2.2755  1.5613
 2929TIP3   OH230277   6.693   0.050  11.881  0.0585  0.0417  0.0525
 2929TIP3    H130278   6.634   0.030  11.953 -1.4398  0.2781 -1.0741
 2929TIP3    H230279   6.744  -0.030  11.868 -0.4518 -0.3816  0.6368
 2930TIP3   OH230280   5.395   5.214  15.577 -0.2686  0.1890  0.1505
 2930TIP3    H130281   5.404   5.251  15.665 -0.4649 -1.7670  1.0411
 2930TIP3    H230282   5.484   5.206  15.544 -0.1181 -0.0095  0.5982
 2931TIP3   OH230283   5.767   2.805  13.856  0.7951  0.0881 -0.2539
 2931TIP3    H130284   5.723   2.731  13.898 -1.4798  0.9441 -0.9764
 2931TIP3    H230285   5.700   2.872  13.849  2.1859  1.4148 -1.6650
 2932TIP3   OH230286   2.800   0.301  11.414 -0.0160  0.4150  0.4224
 2932TIP3    H130287   2.706   0.293  11.427  0.0144  1.1306  1.1514
 2932TIP3    H230288   2.813   0.391  11.386  0.0646 -0.6723 -3.6262
 2933TIP3   OH230289   0.147   2.588  11.367  0.4889 -0.4094  0.3854
 2933TIP3    H130290   0.152   2.572  11.272 -0.4568 -0.5751  0.3540
 2933TIP3    H230291   0.055   2.606  11.383  0.8028  0.5732  1.1371
 2934TIP3   OH230292   6.669   1.951  13.570 -0.5379 -0.4117  0.1293
 2934TIP3    H130293   6.655   1.934  13.476 -1.5013  0.5299  0.0814
 2934TIP3    H230294   6.760   1.980  13.575 -0.7703  0.5234 -0.6798
 2935TIP3   OH230295   1.171   5.391   1.850 -0.1508  0.5914  0.1725
 2935TIP3    H130296   1.124   5.317   1.811 -3.2270  2.2250  0.4733
 2935TIP3    H230297   1.128   5.469   1.814  2.2702  2.2763  0.6653
 2936TIP3   OH230298   6.195   1.748  11.992  0.2329 -0.0341  0.3601
 2936TIP3    H130299   6.217   1.700  11.912 -1.8624 -0.8888  0.2258
 2936TIP3    H230300   6.221   1.838  11.974  2.6507 -0.7331 -0.0572
 2937TIP3   OH230301   2.690   1.300   6.409  0.1786 -0.3751  0.3578
 2937TIP3    H130302   2.780   1.280   6.384  0.5603 -0.8564  2.0018
 2937TIP3    H230303   2.681   1.394   6.394  1.6721  0.1145  2.1655
 2938TIP3   OH230304   6.002   0.492   1.981  0.1138 -0.0655 -0.0222
 2938TIP3    H130305   5.968   0.434   2.049  1.3098 -0.9793 -0.1868
 2938TIP3    H230306   5.924   0.519   1.932 -0.3667 -2.9493 -1.0509
 2939TIP3   OH230307   0.406   5.177   0.500 -0.2690  0.0836 -0.0255
 2939TIP3    H130308   0.443   5.135   0.578  0.6531  0.1753 -0.4078
 2939TIP3    H230309   0.367   5.259   0.533  0.3216  0.2350  0.3069
 2940TIP3   OH230310   3.182   4.909   2.481  0.1486 -0.0874  0.4004
 2940TIP3    H130311   3.208   4.833   2.533 -0.2477  0.4235  1.3627
 2940TIP3    H230312   3.243   4.908   2.406  1.2750 -0.3602  1.2917
 2941TIP3   OH230313   3.224   1.544   2.858 -0.1462 -0.0942 -0.1987
 2941TIP3    H130314   3.229   1.505   2.946 -0.9082  0.1645 -0.0324
 2941TIP3    H230315   3.309   1.524   2.818  0.1297 -0.4021  0.5190
 2942TIP3   OH230316   5.741   2.987   6.861 -0.1414 -0.2889 -0.1486
 2942TIP3    H130317   5.695   2.945   6.933  1.4808 -0.7805  0.6580
 2942TIP3    H230318   5.825   2.941   6.856  0.8444  1.4561 -0.6100
 2943TIP3   OH230319   2.819   5.707  12.049 -0.1633  0.1514  0.5303
 2943TIP3    H130320   2.786   5.644  11.985 -1.5072 -0.6841  1.9717
 2943TIP3    H230321   2.888   5.661  12.096 -1.3448 -0.4381  1.7839
 2944TIP3   OH230322   0.679   6.240   1.079  0.3347 -0.4032 -0.1614
 2944TIP3    H130323   0.704   6.252   1.170  0.2672 -0.9968 -0.0626
 2944TIP3    H230324   0.760   6.250   1.030  0.3350  0.1214 -0.0558
 2945TIP3   OH230325   6.517   6.791   1.929 -0.5960  0.2643 -0.5910
 2945TIP3    H130326   6.444   6.841   1.964 -0.2021 -0.6357  1.6797
 2945TIP3    H230327   6.488   6.700   1.933  0.6469 -0.1119  0.4008
 2946TIP3   OH230328   1.921   0.716  16.116  0.7685 -0.1583 -0.0274
 2946TIP3    H130329   1.926   0.706  16.211  0.3818 -0.7771 -0.0617
 2946TIP3    H230330   1.876   0.636  16.086 -0.5801  0.7516 -0.5590
 2947TIP3   OH230331   3.886   4.532  15.083 -0.0942  0.1162  0.1811
 2947TIP3    H130332   3.951   4.535  15.153 -1.1187 -1.3537  1.2543
 2947TIP3    H230333   3.934   4.499  15.007  0.9235  1.2796  0.2871
 2948TIP3   OH230334   1.557   4.975  16.299 -0.2898  0.1620  0.1174
 2948TIP3    H130335   1.606   5.057  16.287  0.2522 -0.2556 -0.5862
 2948TIP3    H230336   1.474   4.990  16.253 -0.0179  0.1582 -0.3700
 2949TIP3   OH230337   6.153   5.709  14.466  0.0585  0.0698  0.2974
 2949TIP3    H130338   6.160   5.736  14.374  3.1551 -0.8373  0.1345
 2949TIP3    H230339   6.172   5.789  14.515  1.0659  0.0143  0.0289
 2950TIP3   OH230340   3.928   1.906  15.345 -0.4816  0.6294 -0.1431
 2950TIP3    H130341   3.849   1.957  15.327 -1.0954 -0.1072  0.4386
 2950TIP3    H230342   3.937   1.848  15.270  0.8027  2.2511 -1.3271
 2951TIP3   OH230343   0.000   0.874  13.620 -0.3288  0.1821  0.8122
 2951TIP3    H130344  -0.091   0.886  13.648 -0.3634  0.6917  0.4906
 2951TIP3    H230345   0.038   0.962  13.621  0.5673 -0.1813  2.2757
 2952TIP3   OH230346   6.662   0.022   2.184 -0.0642 -0.2477 -0.3477
 2952TIP3    H130347   6.667  -0.016   2.272  0.9473 -0.7241 -0.5991
 2952TIP3    H230348   6.630  -0.049   2.129  3.0147 -1.2832 -1.0546
 2953TIP3   OH230349   3.409   4.454   4.708  0.1047  0.3914  0.2909
 2953TIP3    H130350   3.341   4.511   4.744 -1.1866 -2.2207  2.2452
 2953TIP3    H230351   3.364   4.372   4.689  2.3527 -0.7947 -0.2051
 2954TIP3   OH230352   5.209   2.780   5.975 -0.0006 -0.2638 -0.9253
 2954TIP3    H130353   5.136   2.830   5.939  0.3024  0.2580 -0.8279
 2954TIP3    H230354   5.187   2.767   6.067  0.9520  1.6805 -0.3649
 2955TIP3   OH230355   6.484   4.714   0.331  0.6204 -0.5482  0.0986
 2955TIP3    H130356   6.466   4.627   0.295 -0.8097 -0.7743  1.2893
 2955TIP3    H230357   6.423   4.772   0.286  0.5607 -0.4030  0.3682
 2956TIP3   OH230358   3.306   3.665   1.412 -0.3723 -0.6221  0.2895
 2956TIP3    H130359   3.392   3.626   1.430 -2.4001 -4.7943  2.1955
 2956TIP3    H230360   3.285   3.713   1.493  0.1715  0.6117 -0.2715
 2957TIP3   OH230361   1.668   2.489   4.329 -0.9269 -0.1552 -0.3399
 2957TIP3    H130362   1.701   2.490   4.419  1.3696 -1.1232 -1.1205
 2957TIP3    H230363   1.602   2.559   4.328 -0.8543  0.0399  2.0059
 2958TIP3   OH230364   0.091   3.536   0.825 -0.2066 -0.1521  0.1497
 2958TIP3    H130365   0.154   3.470   0.853 -0.8128 -0.5573  0.5700
 2958TIP3    H230366   0.060   3.576   0.906 -1.1814 -0.5955  0.0077
 2959TIP3   OH230367   3.804   2.474  14.759 -0.0548  0.1293  0.1459
 2959TIP3    H130368   3.729   2.527  14.786  0.4687  0.0492  1.9188
 2959TIP3    H230369   3.872   2.495  14.823  0.9340 -0.9398 -0.5199
 2960TIP3   OH230370   3.912   0.093   4.447 -0.1736 -0.5030  0.0624
 2960TIP3    H130371   3.972   0.123   4.378  0.2749 -0.3156  0.5241
 2960TIP3    H230372   3.885   0.172   4.492 -0.5812 -0.6114  0.0053
 2961TIP3   OH230373   1.383   1.652   3.665  0.1503  0.4401 -0.1764
 2961TIP3    H130374   1.408   1.733   3.710  2.0652 -1.0804  1.6691
 2961TIP3    H230375   1.341   1.599   3.732 -1.9799  0.2105 -1.6075
 2962TIP3   OH230376   3.501   0.313   0.866  0.3635  1.0105  0.2508
 2962TIP3    H130377   3.554   0.317   0.787  0.0245  0.4224 -0.0200
 2962TIP3    H230378   3.564   0.303   0.938  0.6077 -0.4680 -0.1342
 2963TIP3   OH230379   0.688   2.286  17.010 -0.5773  0.0666 -0.0643
 2963TIP3    H130380   0.686   2.315  17.102 -2.6358 -0.9479  0.2509
 2963TIP3    H230381   0.688   2.191  17.015 -0.3577  0.0021 -1.1323
 2964TIP3   OH230382   5.726   2.428   6.373  0.2628 -0.4574  0.0220
 2964TIP3    H130383   5.725   2.335   6.397 -2.4808 -1.4913 -3.1833
 2964TIP3    H230384   5.642   2.462   6.405  0.2155  0.2623 -0.8252
 2965TIP3   OH230385   1.652   4.074   5.506 -0.2852 -0.3225 -0.0747
 2965TIP3    H130386   1.605   4.006   5.458 -0.0059  0.0231 -0.8435
 2965TIP3    H230387   1.667   4.143   5.442  2.8065 -1.1314 -0.3809
 2966TIP3   OH230388   0.876   3.609  13.457  0.4381  0.0977  0.0581
 2966TIP3    H130389   0.907   3.529  13.499  2.1952  1.2378  1.0575
 2966TIP3    H230390   0.817   3.649  13.520 -0.6209 -0.4895 -0.5342
 2967TIP3   OH230391   2.845   4.281   0.864 -0.3857  0.5033  0.3576
 2967TIP3    H130392   2.796   4.332   0.929 -1.7148 -2.4096  1.8427
 2967TIP3    H230393   2.779   4.251   0.803  0.1902 -0.2961  0.1195
 2968TIP3   OH230394   2.902   5.152  15.516  0.0968  0.1853  0.4158
 2968TIP3    H130395   2.883   5.128  15.607  0.3123  0.8143  0.6336
 2968TIP3    H230396   2.876   5.244  15.510  1.7311  0.6735  0.3349
 2969TIP3   OH230397   6.603   4.132   1.010 -0.4831 -0.7596 -0.0110
 2969TIP3    H130398   6.541   4.103   0.942 -0.6543 -1.1263  0.3034
 2969TIP3    H230399   6.555   4.122   1.092 -0.3322 -0.1602  0.1548
 2970TIP3   OH230400   3.781   3.966   2.133 -0.7068  0.0784 -0.4241
 2970TIP3    H130401   3.795   3.895   2.070 -3.5319 -1.3280  0.3802
 2970TIP3    H230402   3.830   3.939   2.211  1.1791  0.8762 -1.2517
 2971TIP3   OH230403   6.729   0.052  12.777 -0.1494 -0.3057 -0.4480
 2971TIP3    H130404   6.671   0.074  12.705  0.6577  0.1209 -0.9787
 2971TIP3    H230405   6.813   0.032  12.736 -0.1619 -1.9202  0.2208
 2972TIP3   OH230406   6.307   5.839   1.954  0.1548  0.0724  0.2044
 2972TIP3    H130407   6.316   5.809   2.044  0.0461 -0.5521  0.0115
 2972TIP3    H230408   6.348   5.770   1.902 -0.0092  0.3109 -0.2416
 2973TIP3   OH230409   5.301   6.597   4.297  0.2056 -0.3807 -0.4113
 2973TIP3    H130410   5.266   6.541   4.366 -0.2434 -0.8747 -1.0309
 2973TIP3    H230411   5.335   6.536   4.231  0.4253  0.0812 -0.7382
 2974TIP3   OH230412   6.201   4.011  16.871  0.0343  0.4431 -0.2913
 2974TIP3    H130413   6.244   4.070  16.933 -0.3268  0.5065 -0.0961
 2974TIP3    H230414   6.272   3.973  16.819  0.4970 -0.7471  1.1406
 2975TIP3   OH230415   5.379   2.991  13.068 -0.1447 -0.2998  0.5682
 2975TIP3    H130416   5.427   2.917  13.107  1.1522 -0.4381 -1.1957
 2975TIP3    H230417   5.398   3.065  13.126 -1.1328 -1.2050  2.1378
 2976TIP3   OH230418   2.248   4.901   0.541 -0.0197 -0.3589 -0.6622
 2976TIP3    H130419   2.185   4.854   0.487 -3.1584 -0.7901  3.0049
 2976TIP3    H230420   2.289   4.833   0.594  0.8136  0.3501 -0.3764
 2977TIP3   OH230421   4.847   3.153   4.165 -0.4147  0.3661  0.2069
 2977TIP3    H130422   4.782   3.209   4.124 -1.2359 -1.2817 -0.8740
 2977TIP3    H230423   4.847   3.179   4.258 -0.2059  2.5870 -0.3674
 2978TIP3   OH230424   3.280   4.634   3.786 -0.1413 -0.2189 -0.0185
 2978TIP3    H130425   3.313   4.545   3.774 -1.4265 -0.6695 -0.3979
 2978TIP3    H230426   3.256   4.662   3.697  1.0192  0.8418 -0.0254
 2979TIP3   OH230427   5.199   2.968  16.403 -0.2422 -0.2353 -0.3232
 2979TIP3    H130428   5.242   2.952  16.319  0.6434  0.4765 -0.0267
 2979TIP3    H230429   5.268   2.956  16.468 -1.4542 -3.2973  0.5814
 2980TIP3   OH230430   3.367   2.911   0.756 -0.4373 -0.4523 -0.7327
 2980TIP3    H130431   3.454   2.921   0.717 -0.5726 -1.7353 -1.4038
 2980TIP3    H230432   3.321   2.852   0.696 -1.6197 -0.1565 -0.1344
 2981TIP3   OH230433   6.766   2.176   2.642 -0.0376 -0.3655 -0.4366
 2981TIP3    H130434   6.813   2.118   2.702 -0.3225 -0.4470 -0.2933
 2981TIP3    H230435   6.807   2.161   2.557  1.1811  0.6007 -0.0680
 2982TIP3   OH230436   1.472   1.992  14.546  0.2836  0.1911 -0.5348
 2982TIP3    H130437   1.447   1.941  14.623  0.9971 -1.5332 -1.3942
 2982TIP3    H230438   1.514   1.928  14.488 -0.4200  1.3939 -2.4427
 2983TIP3   OH230439   2.806   5.720  10.854  0.1028  0.5005  0.1965
 2983TIP3    H130440   2.760   5.647  10.814 -0.9009  1.1844  0.0404
 2983TIP3    H230441   2.814   5.696  10.946 -1.0692  0.5758  0.3402
 2984TIP3   OH230442   5.534   4.388   2.100 -0.2855  0.3002 -0.1417
 2984TIP3    H130443   5.485   4.381   2.182 -0.5064 -0.0151 -0.2974
 2984TIP3    H230444   5.616   4.432   2.125  0.6122 -1.6900  0.6904
 2985TIP3   OH230445   0.768   4.659   3.843 -0.0986  0.1226  0.6939
 2985TIP3    H130446   0.727   4.680   3.758 -0.6404 -0.3479  0.8367
 2985TIP3    H230447   0.737   4.572   3.864 -1.0945  0.7734  2.0582
 2986TIP3   OH230448   3.765   1.871   2.036  0.7731 -0.5222 -0.1969
 2986TIP3    H130449   3.789   1.780   2.049  0.9267 -0.8267 -2.3138
 2986TIP3    H230450   3.670   1.870   2.025  0.5899 -0.2125  1.1086
 2987TIP3   OH230451   2.826   4.608   3.970 -0.0164  0.0294 -0.0806
 2987TIP3    H130452   2.911   4.635   4.005 -1.0240  0.7129  2.0408
 2987TIP3    H230453   2.835   4.514   3.954  0.6664 -0.2594  1.7534
 2988TIP3   OH230454   2.132   3.730  16.161 -0.4330 -0.1882 -0.1670
 2988TIP3    H130455   2.169   3.808  16.119 -1.4897  1.2327  1.4141
 2988TIP3    H230456   2.177   3.723  16.245  0.2636 -1.8372 -0.6354
 2989TIP3   OH230457   6.479   6.152   4.367  0.0995 -0.1681  0.4400
 2989TIP3    H130458   6.573   6.172   4.376 -0.1148  0.5972  1.1529
 2989TIP3    H230459   6.438   6.238   4.352 -0.5388 -0.4402  0.6018
 2990TIP3   OH230460   4.284   0.705   4.127 -0.0032  0.1792 -0.1350
 2990TIP3    H130461   4.365   0.732   4.168  1.5981  1.6976 -3.8911
 2990TIP3    H230462   4.310   0.639   4.063 -2.1560 -1.1690  0.2607
 2991TIP3   OH230463   2.344   5.771  11.466  0.0139  0.1025  0.6281
 2991TIP3    H130464   2.282   5.710  11.506  0.1805  0.6643  1.8172
 2991TIP3    H230465   2.430   5.733  11.487  0.1319  0.9492  1.7849
 2992TIP3   OH230466   0.941   6.146   3.441  0.2048  0.1132 -0.2916
 2992TIP3    H130467   0.961   6.127   3.533 -0.7950 -1.0254 -0.2879
 2992TIP3    H230468   1.026   6.163   3.401  0.5996  1.2953  0.9784
 2993TIP3   OH230469   4.204   6.759   4.853 -0.1759 -0.5747 -0.0424
 2993TIP3    H130470   4.196   6.706   4.774 -0.9517 -0.5096 -0.0183
 2993TIP3    H230471   4.271   6.716   4.904  0.3564 -0.6045 -0.7486
 2994TIP3   OH230472   4.468   4.686   2.980  0.1274 -0.2773 -0.7235
 2994TIP3    H130473   4.561   4.705   2.994 -0.3727  1.4760  0.5042
 2994TIP3    H230474   4.461   4.669   2.886  1.7441 -0.8996 -0.7672
 2995TIP3   OH230475   1.612   6.469   1.736 -0.0504 -0.3964  0.1043
 2995TIP3    H130476   1.690   6.418   1.759  0.5391  0.1052 -0.7242
 2995TIP3    H230477   1.572   6.492   1.820  0.5985 -0.8033  0.5322
 2996TIP3   OH230478   5.958   5.964  13.757 -0.0904  0.1132  0.1458
 2996TIP3    H130479   6.012   5.980  13.680 -1.4944 -0.4800 -1.0129
 2996TIP3    H230480   5.926   6.051  13.782  1.1008  0.4270  0.6466
 2997TIP3   OH230481   0.343   3.118  15.771  0.0045 -0.6916  0.4692
 2997TIP3    H130482   0.307   3.202  15.743  0.2248 -0.7755 -0.0928
 2997TIP3    H230483   0.270   3.072  15.811 -0.3039 -0.5263  0.1032
 2998TIP3   OH230484   5.424   3.987   4.063  0.0115 -0.3475 -0.1244
 2998TIP3    H130485   5.465   4.038   4.133 -0.6425 -0.2530  0.1909
 2998TIP3    H230486   5.489   3.919   4.042  0.9914  0.7326 -0.7137
 2999TIP3   OH230487   0.345   0.925   5.284 -0.8037  0.1851 -0.0250
 2999TIP3    H130488   0.265   0.916   5.334 -0.1150  2.5615  1.7028
 2999TIP3    H230489   0.369   1.017   5.294  0.3217  0.4049 -3.3800
 3000TIP3   OH230490   5.428   2.045   2.001  0.6253  0.0939 -0.0771
 3000TIP3    H130491   5.505   2.051   2.057  1.0993  2.6583 -0.8659
 3000TIP3    H230492   5.385   2.130   2.010 -1.3226 -0.7582 -0.7786
 3001TIP3   OH230493   3.297   5.055   1.796 -0.1378  0.3758 -0.7094
 3001TIP3    H130494   3.343   5.000   1.733  0.7178 -0.2644  0.4315
 3001TIP3    H230495   3.298   5.004   1.878 -1.5401  1.0112 -0.2557
 3002TIP3   OH230496   4.428   5.513   0.141  0.3265 -0.1103  0.2854
 3002TIP3    H130497   4.336   5.515   0.170  0.7157  0.4329  1.5870
 3002TIP3    H230498   4.449   5.605   0.125 -0.1915 -0.4408 -3.0156
 3003TIP3   OH230499   2.511   5.901   0.445  0.2209  0.1182  0.2394
 3003TIP3    H130500   2.583   5.919   0.506 -0.0113 -0.0581  0.5661
 3003TIP3    H230501   2.548   5.837   0.383  1.1043  1.7857 -1.0356
 3004TIP3   OH230502   4.020   3.771  13.982 -0.3185  0.1266 -0.3558
 3004TIP3    H130503   4.100   3.719  13.971 -0.7581 -0.3097 -1.5895
 3004TIP3    H230504   3.963   3.716  14.036 -0.1780  0.0098 -0.3248
 3005TIP3   OH230505   2.131   4.540   1.662  0.1324  0.2008 -0.2203
 3005TIP3    H130506   2.205   4.600   1.659  0.1293  0.3155  1.1731
 3005TIP3    H230507   2.158   4.472   1.723 -0.7226 -0.0203 -0.0769
 3006TIP3   OH230508   1.339   5.850  12.701 -0.4709 -0.2088  0.0291
 3006TIP3    H130509   1.356   5.773  12.757  2.0371 -0.5900 -1.1276
 3006TIP3    H230510   1.388   5.921  12.742  0.1640 -0.1287 -0.8429
 3007TIP3   OH230511   0.474   4.992  16.836  0.2220  0.0251 -0.7330
 3007TIP3    H130512   0.402   4.942  16.797 -0.5773  0.2325  0.4133
 3007TIP3    H230513   0.543   4.928  16.851 -0.2545 -0.4523 -0.5732
 3008TIP3   OH230514   3.999   5.466  10.832  0.3661  0.1600 -0.1945
 3008TIP3    H130515   3.976   5.555  10.858  2.0254  0.6708 -0.3566
 3008TIP3    H230516   4.085   5.451  10.873  0.4834 -1.0535 -0.8530
 3009TIP3   OH230517   5.815   2.677  10.940  0.4664 -0.4408 -0.1359
 3009TIP3    H130518   5.869   2.671  11.019 -0.6623 -1.2692  0.6173
 3009TIP3    H230519   5.733   2.716  10.970  0.2711 -0.1218 -1.0481
 3010TIP3   OH230520   1.546   2.791   6.119  0.0592  0.5473  0.1574
 3010TIP3    H130521   1.621   2.843   6.089 -0.7011  2.5254  1.5192
 3010TIP3    H230522   1.586   2.710   6.153  1.2864  0.2725 -1.7581
 3011TIP3   OH230523   3.065   1.215  15.319  0.0190  0.2574 -0.2066
 3011TIP3    H130524   3.113   1.297  15.306  0.2896 -0.0821 -1.3895
 3011TIP3    H230525   2.981   1.243  15.356  0.2124  1.0446 -0.3363
 3012TIP3   OH230526   1.527   3.299   4.546  0.0653 -0.2240  0.2875
 3012TIP3    H130527   1.440   3.279   4.580  0.2663 -1.3564  0.1640
 3012TIP3    H230528   1.564   3.360   4.610 -0.6223 -0.1189  0.6008
 3013TIP3   OH230529   0.772   2.745   3.978 -0.0699 -0.3461  0.1122
 3013TIP3    H130530   0.820   2.808   4.031 -1.7729  1.3866 -0.3113
 3013TIP3    H230531   0.838   2.704   3.923  1.1248  0.8801  0.5872
 3014TIP3   OH230532   6.775   1.383  10.429  0.0517 -0.6067 -0.6211
 3014TIP3    H130533   6.862   1.345  10.423 -0.2453 -1.2888 -0.7912
 3014TIP3    H230534   6.784   1.456  10.489  0.0505 -2.8227  2.3178
 3015TIP3   OH230535   6.163   4.712  15.215 -0.6484  0.1637  0.0196
 3015TIP3    H130536   6.256   4.714  15.194 -0.8008 -1.6113 -0.9886
 3015TIP3    H230537   6.139   4.619  15.210 -2.4034  0.5426  0.6118
 3016TIP3   OH230538   3.712   3.190   2.626  0.4239  0.1841 -0.7399
 3016TIP3    H130539   3.686   3.108   2.583 -1.1188  0.2434  0.0308
 3016TIP3    H230540   3.807   3.181   2.638  0.3160 -1.3962 -0.8615
 3017TIP3   OH230541   0.931   2.551   3.516 -0.2480  0.5124 -1.0245
 3017TIP3    H130542   0.871   2.485   3.552 -1.8874  2.1971 -0.4738
 3017TIP3    H230543   0.931   2.535   3.422 -0.0793 -0.6705 -0.8403
 3018TIP3   OH230544   0.102   0.509   4.289  0.3132  0.5958  0.1009
 3018TIP3    H130545   0.033   0.449   4.261  1.4639 -1.4682  1.4352
 3018TIP3    H230546   0.059   0.569   4.350 -0.6055  0.2457 -0.1958
 3019TIP3   OH230547   0.219   3.585  12.526  0.4649  0.2915  0.2510
 3019TIP3    H130548   0.148   3.644  12.501  1.0314  0.8123 -0.1552
 3019TIP3    H230549   0.176   3.514  12.574 -0.8053 -1.2496 -2.8812
 3020TIP3   OH230550   4.886   4.875   6.535  0.1283  0.2025 -0.0629
 3020TIP3    H130551   4.824   4.842   6.600  1.2995 -0.0711  0.9611
 3020TIP3    H230552   4.970   4.837   6.561  0.7241  0.5370 -1.4308
 3021TIP3   OH230553   4.643   6.723  13.382 -0.4921  0.4629  0.0983
 3021TIP3    H130554   4.695   6.788  13.428 -0.4013  0.9985 -0.7412
 3021TIP3    H230555   4.651   6.643  13.435 -0.2404  1.0066  0.8927
 3022TIP3   OH230556   0.284   2.165  15.841  0.4230 -0.1979  0.0540
 3022TIP3    H130557   0.378   2.157  15.826  0.5275  2.4245 -1.2114
 3022TIP3    H230558   0.271   2.256  15.866 -1.7708 -0.5653  0.5039
 3023TIP3   OH230559   4.493   0.061  13.784  0.6203  0.0851  0.0818
 3023TIP3    H130560   4.537  -0.023  13.769  1.0689  0.2880  0.2451
 3023TIP3    H230561   4.401   0.042  13.767  0.8253 -0.2235 -0.7851
 3024TIP3   OH230562   4.558   5.574  14.184 -0.4915  0.3961 -0.4633
 3024TIP3    H130563   4.584   5.527  14.263  0.4964 -0.2153 -1.1325
 3024TIP3    H230564   4.561   5.666  14.209  0.8975  0.2712 -0.0820
 3025TIP3   OH230565   5.699   4.736  11.349  0.2262  0.2345  0.0418
 3025TIP3    H130566   5.645   4.813  11.330 -0.0239 -0.3946 -2.0647
 3025TIP3    H230567   5.638   4.663  11.344  0.9320 -0.3235 -0.5546
 3026TIP3   OH230568   4.902   1.672   5.623 -0.0895 -0.4081 -0.4289
 3026TIP3    H130569   4.864   1.728   5.690 -0.4619  0.5301 -1.4041
 3026TIP3    H230570   4.830   1.653   5.563  0.7892  0.8885 -1.9555
 3027TIP3   OH230571   1.525   1.943   2.739  0.1934  0.0995 -0.1825
 3027TIP3    H130572   1.479   1.981   2.664 -1.1104  0.9931  1.0272
 3027TIP3    H230573   1.595   2.005   2.759 -0.1596  0.4208  0.0433
 3028TIP3   OH230574   2.819   1.015   1.359  0.5566  0.0448 -0.4921
 3028TIP3    H130575   2.842   1.106   1.342 -0.6808  0.6985  1.1154
 3028TIP3    H230576   2.825   0.972   1.273 -2.1289  2.3634 -2.0022
 3029TIP3   OH230577   6.384   5.892   1.478  0.4822  0.5701 -0.2910
 3029TIP3    H130578   6.433   5.872   1.399  0.5418 -3.6568  0.5708
 3029TIP3    H230579   6.450   5.893   1.548 -0.1227 -2.8226  0.5348
 3030TIP3   OH230580   6.410   3.509  14.819  0.2192 -0.0323 -0.2196
 3030TIP3    H130581   6.468   3.436  14.838 -1.0093 -0.6925  1.1994
 3030TIP3    H230582   6.363   3.483  14.740  0.1796 -0.5448 -0.0268
 3031TIP3   OH230583   4.313   0.416  11.521  0.1563 -0.3097 -0.7488
 3031TIP3    H130584   4.318   0.321  11.517  2.4786 -0.2096 -1.8090
 3031TIP3    H230585   4.361   0.439  11.601 -1.0706 -0.0336 -0.0702
 3032TIP3   OH230586   2.754   4.300   1.884 -0.0925 -0.2570  0.6817
 3032TIP3    H130587   2.777   4.256   1.802 -1.0337 -1.6137  1.1163
 3032TIP3    H230588   2.671   4.344   1.865  0.9809  1.6504  0.1647
 3033TIP3   OH230589   4.188   0.941  11.565 -0.4457  0.0622  0.0575
 3033TIP3    H130590   4.153   0.999  11.632 -0.0990  1.6004 -1.0342
 3033TIP3    H230591   4.131   0.954  11.489  1.5216  1.5374 -1.2781
 3034TIP3   OH230592   6.181   1.853  12.229 -0.3359  0.6354  0.2342
 3034TIP3    H130593   6.200   1.804  12.149 -0.0797 -1.5974  1.5664
 3034TIP3    H230594   6.205   1.943  12.208  2.0368 -0.2679 -1.4655
 3035TIP3   OH230595   2.093   0.221   2.314  0.3629  0.0180  0.4951
 3035TIP3    H130596   2.016   0.165   2.301  2.0135 -2.3178  0.2192
 3035TIP3    H230597   2.116   0.209   2.406  0.7645  0.2027  0.4205
 3036TIP3   OH230598   4.085   4.298  10.457  0.2368 -0.0496  0.3365
 3036TIP3    H130599   4.052   4.367  10.515  0.3962  1.6882 -1.5198
 3036TIP3    H230600   4.152   4.342  10.405 -1.6433 -0.7457 -2.9034
 3037TIP3   OH230601   5.432   4.380   6.402 -0.5744 -0.2135  0.1101
 3037TIP3    H130602   5.406   4.433   6.477 -0.8326 -2.0981  1.4195
 3037TIP3    H230603   5.525   4.397   6.392 -0.4832 -0.1150  1.0248
 3038TIP3   OH230604   5.088   3.744   5.276  0.0942  0.9533  0.4913
 3038TIP3    H130605   5.136   3.778   5.200  0.3191  0.8838  0.6008
 3038TIP3    H230606   5.112   3.803   5.348  0.5477  0.5232  0.6995
 3039TIP3   OH230607   2.192   2.800  12.842  0.1484 -0.0813  0.4176
 3039TIP3    H130608   2.224   2.712  12.824 -0.1089 -0.5948  2.2581
 3039TIP3    H230609   2.101   2.799  12.811  0.2641 -0.3329  0.0816
 3040TIP3   OH230610   3.880   5.140   2.699  0.2950 -0.4510  0.0738
 3040TIP3    H130611   3.921   5.096   2.773 -0.4534 -2.7732 -0.7985
 3040TIP3    H230612   3.922   5.102   2.622 -1.0785 -0.3662 -0.7447
 3041TIP3   OH230613   2.378   5.248  11.513 -0.2259  1.0659  0.0407
 3041TIP3    H130614   2.287   5.225  11.534 -0.0141  0.7323  0.6322
 3041TIP3    H230615   2.430   5.192  11.571  0.3390  1.7328  0.1882
 3042TIP3   OH230616   1.446   6.651  14.376  0.0398 -0.1015  0.2083
 3042TIP3    H130617   1.502   6.585  14.336 -0.1974  0.7069 -1.5130
 3042TIP3    H230618   1.396   6.688  14.304  0.6876  2.4819  0.9697
 3043TIP3   OH230619   6.482   1.154   2.144 -0.0896 -0.5716  0.1938
 3043TIP3    H130620   6.530   1.080   2.183 -0.3975 -1.4194 -0.9629
 3043TIP3    H230621   6.535   1.178   2.067  0.5753  1.1446  1.1401
 3044TIP3   OH230622   2.410   3.572   5.455  0.1047  0.5932  0.1998
 3044TIP3    H130623   2.485   3.542   5.505 -0.2514 -1.2020 -0.2646
 3044TIP3    H230624   2.334   3.534   5.501 -0.2857 -0.2122 -1.0583
 3045TIP3   OH230625   6.043   0.384   1.296  0.1438  0.2534 -0.3983
 3045TIP3    H130626   6.099   0.318   1.255 -0.5004 -0.2276 -0.5352
 3045TIP3    H230627   6.102   0.437   1.349  0.7791  0.0053 -0.8518
 3046TIP3   OH230628   0.103   3.384  13.558 -0.0122  0.4377  0.3007
 3046TIP3    H130629   0.171   3.362  13.494  0.2431 -0.2720  0.8098
 3046TIP3    H230630   0.118   3.325  13.632 -1.5757 -0.1960  0.1618
 3047TIP3   OH230631   3.599   5.445  11.827  0.0776 -0.4108 -0.0542
 3047TIP3    H130632   3.634   5.363  11.792  0.0729 -0.1415 -0.7015
 3047TIP3    H230633   3.504   5.438  11.812  0.1106 -0.1574 -0.3958
 3048TIP3   OH230634   2.149   0.956  17.024 -0.2008 -0.0769 -0.1521
 3048TIP3    H130635   2.149   0.893  17.096  1.0549  0.5476  0.4274
 3048TIP3    H230636   2.110   1.035  17.063 -2.2192 -0.5750 -1.0045
 3049TIP3   OH230637   2.803   6.273  12.222  0.3036  0.1907 -0.2669
 3049TIP3    H130638   2.871   6.248  12.285 -1.4868 -1.5554  1.0967
 3049TIP3    H230639   2.759   6.348  12.263  0.4377  0.3513 -0.4167
 3050TIP3   OH230640   5.602   0.355   1.904  0.1549  0.7837  0.5298
 3050TIP3    H130641   5.512   0.357   1.871 -0.9795 -0.0750  3.2208
 3050TIP3    H230642   5.650   0.305   1.839 -1.9816 -1.1137  0.2678
 3051TIP3   OH230643   6.583   1.455   2.119  0.1246 -0.2230  0.4226
 3051TIP3    H130644   6.595   1.430   2.027 -0.2403 -0.0799  0.3348
 3051TIP3    H230645   6.624   1.384   2.168  1.0502  0.1062  0.1430
 3052TIP3   OH230646   0.565   6.796   1.080 -0.2732  0.2479  0.1808
 3052TIP3    H130647   0.632   6.834   1.137  0.3857 -2.2558  1.2113
 3052TIP3    H230648   0.588   6.827   0.992  2.0318 -0.2360  0.5617
 3053TIP3   OH230649   4.432   4.544   4.043  0.0511  0.1019 -0.1122
 3053TIP3    H130650   4.444   4.473   4.106  2.4909  0.7743  0.2829
 3053TIP3    H230651   4.377   4.608   4.089 -0.2993 -0.5259  0.3532
 3054TIP3   OH230652   0.834   6.439   4.441 -0.0759  0.0516  0.0799
 3054TIP3    H130653   0.862   6.347   4.437 -1.3396 -0.3233 -0.8253
 3054TIP3    H230654   0.876   6.479   4.364 -0.1923  0.0323  0.0062
 3055TIP3   OH230655   2.787   1.064  11.151 -0.9074 -0.6586 -0.6075
 3055TIP3    H130656   2.851   0.997  11.127 -1.1296 -0.9596 -0.3674
 3055TIP3    H230657   2.830   1.113  11.222 -0.7506 -0.5510 -0.7748
 3056TIP3   OH230658   3.171   4.771   2.937  0.0353 -0.1324 -0.0979
 3056TIP3    H130659   3.098   4.757   2.997 -0.5609  0.5403 -0.6518
 3056TIP3    H230660   3.213   4.852   2.967 -0.8624  0.7560 -1.1403
 3057TIP3   OH230661   1.218   6.639  15.711  0.3011  0.5618 -0.1433
 3057TIP3    H130662   1.200   6.732  15.695  0.7965  0.9528  1.3238
 3057TIP3    H230663   1.265   6.609  15.633  0.6407  1.7059 -0.3971
 3058TIP3   OH230664   5.649   5.819  11.637 -0.0070  0.1198 -0.1214
 3058TIP3    H130665   5.638   5.914  11.640  0.8874  0.2135  0.7426
 3058TIP3    H230666   5.723   5.804  11.577  0.0349 -0.0098 -0.0393
 3059TIP3   OH230667   1.079   3.138   6.482 -0.0780 -0.5750 -0.5042
 3059TIP3    H130668   1.088   3.073   6.552 -0.3376  0.4365  0.4886
 3059TIP3    H230669   0.985   3.157   6.480  0.1359  0.5962 -0.0046
 3060TIP3   OH230670   2.015   2.161   1.126 -0.4445 -0.1941  0.4193
 3060TIP3    H130671   1.983   2.231   1.069 -0.3005 -1.2131 -0.9880
 3060TIP3    H230672   2.096   2.132   1.084 -0.7323 -1.4932  0.7263
 3061TIP3   OH230673   3.114   0.718   2.616  0.1231 -0.4185  0.8287
 3061TIP3    H130674   3.200   0.716   2.658 -0.1998 -4.4920  1.6540
 3061TIP3    H230675   3.124   0.667   2.536 -1.2478  0.2160  0.2103
 3062TIP3   OH230676   3.473   1.061  14.574 -0.1677 -0.2471  0.2356
 3062TIP3    H130677   3.469   1.015  14.490  0.4186 -1.9681  1.1072
 3062TIP3    H230678   3.422   1.006  14.633  0.4549  0.2976  1.2960
 3063TIP3   OH230679   3.048   5.910  14.031 -0.0969 -0.1574  0.0845
 3063TIP3    H130680   3.013   5.976  14.090 -0.8088  0.5590 -1.0987
 3063TIP3    H230681   2.976   5.890  13.972  0.7301 -0.5174 -0.8309
 3064TIP3   OH230682   2.715   0.435   6.358 -0.0765 -0.2387 -0.4310
 3064TIP3    H130683   2.720   0.343   6.385 -0.7869 -0.5657 -1.3233
 3064TIP3    H230684   2.806   0.465   6.355  0.1235 -0.7490  0.4034
 3065TIP3   OH230685   0.718   3.169  11.455  0.3703  0.3970 -0.0475
 3065TIP3    H130686   0.635   3.139  11.418  0.7195 -0.0440 -0.4998
 3065TIP3    H230687   0.768   3.088  11.469  0.8456  0.6799 -0.0853
 3066TIP3   OH230688   4.022   2.640   4.045 -0.4169 -0.4882 -0.3710
 3066TIP3    H130689   4.061   2.707   3.989 -0.0205 -0.0333  0.4441
 3066TIP3    H230690   3.967   2.589   3.985 -1.3374  1.0193 -0.8875
 3067TIP3   OH230691   6.802   5.098  14.177 -0.5944  0.3759 -0.3078
 3067TIP3    H130692   6.891   5.099  14.213 -0.6003 -1.4056 -0.1412
 3067TIP3    H230693   6.804   5.028  14.111 -2.1356 -0.4803  0.4923
 3068TIP3   OH230694   4.524   6.093   4.473 -0.3287  0.1111 -0.5441
 3068TIP3    H130695   4.472   6.086   4.393  1.5734  0.4283 -1.8690
 3068TIP3    H230696   4.507   6.182   4.504 -0.2011  0.3836 -1.2390
 3069TIP3   OH230697   6.836   2.973   2.025  0.4055 -0.1634 -0.3632
 3069TIP3    H130698   6.799   2.889   2.052 -2.8518  1.3496  0.4759
 3069TIP3    H230699   6.773   3.007   1.960  1.1459  1.9582 -0.0546
 3070TIP3   OH230700   2.686   2.503  14.581  0.3411 -0.1969  0.0780
 3070TIP3    H130701   2.618   2.565  14.609  1.2470 -0.1303  2.3591
 3070TIP3    H230702   2.694   2.517  14.487 -1.2986  1.3065  0.1084
 3071TIP3   OH230703   3.402   4.767   4.575 -0.1215  0.0040 -0.3172
 3071TIP3    H130704   3.362   4.847   4.608 -1.5336 -1.1166  0.8910
 3071TIP3    H230705   3.338   4.732   4.513  0.4212 -0.2468 -0.7411
 3072TIP3   OH230706   4.177   0.739  15.561 -0.8813 -0.2869 -0.5404
 3072TIP3    H130707   4.108   0.706  15.619 -0.9202  0.7072 -0.0058
 3072TIP3    H230708   4.236   0.788  15.619 -1.0917  0.9904 -1.3870
 3073TIP3   OH230709   6.038   0.091   3.358  0.1701  0.2442  0.0633
 3073TIP3    H130710   5.980   0.046   3.420  2.0133  0.7232  2.2482
 3073TIP3    H230711   6.126   0.068   3.387  1.1366  0.5514 -2.4098
 3074TIP3   OH230712   5.484   6.810  11.142 -0.2442  0.1014 -0.0313
 3074TIP3    H130713   5.400   6.765  11.146 -0.1708 -0.2155 -1.3555
 3074TIP3    H230714   5.466   6.899  11.170 -0.8185 -0.2166  0.6245
 3075TIP3   OH230715   1.783   0.571  16.991 -0.1108 -0.0174 -0.0511
 3075TIP3    H130716   1.700   0.615  17.009  0.9483  2.1769 -0.1795
 3075TIP3    H230717   1.848   0.641  16.991  1.7284 -1.6286 -0.2055
 3076TIP3   OH230718   1.252   5.861  14.384  0.3631  0.2381  0.2493
 3076TIP3    H130719   1.261   5.769  14.407  0.3256 -0.1045 -1.0560
 3076TIP3    H230720   1.264   5.864  14.289  1.4348  1.7122  0.3892
 3077TIP3   OH230721   5.821   5.411  16.114 -0.6515 -0.4383 -0.3684
 3077TIP3    H130722   5.863   5.459  16.185  1.0601 -2.2999 -0.0194
 3077TIP3    H230723   5.876   5.427  16.038 -1.9551  0.7865 -1.1041
 3078TIP3   OH230724   0.802   1.914   4.939  0.2419 -0.0343 -0.2386
 3078TIP3    H130725   0.774   2.002   4.913 -0.7370 -1.0839 -3.1727
 3078TIP3    H230726   0.867   1.889   4.872  0.1520 -1.7118  0.2544
 3079TIP3   OH230727   6.737   0.682  14.046  0.0792 -0.0386  0.3018
 3079TIP3    H130728   6.717   0.774  14.061 -1.1654 -0.4293  1.1735
 3079TIP3    H230729   6.800   0.660  14.115  1.2807  0.4244 -0.6090
 3080TIP3   OH230730   4.831   4.250  14.736 -0.0324 -0.5765  0.2236
 3080TIP3    H130731   4.860   4.331  14.777 -0.8223  0.6882 -1.5784
 3080TIP3    H230732   4.900   4.230  14.672  1.2971 -2.6357  2.1257
 3081TIP3   OH230733   6.277   5.837  13.532  0.2705  0.4078  0.2797
 3081TIP3    H130734   6.216   5.766  13.550  0.7557 -0.4279 -1.2242
 3081TIP3    H230735   6.222   5.915  13.521 -0.6788 -0.5276 -2.1622
 3082TIP3   OH230736   1.271   0.493  11.817  0.1672  0.3990 -0.5374
 3082TIP3    H130737   1.218   0.538  11.883  2.5943 -0.1559  1.9683
 3082TIP3    H230738   1.261   0.547  11.738 -1.8822  1.8102  0.5756
 3083TIP3   OH230739   5.383   4.976  12.080  0.2288 -0.1321 -0.2516
 3083TIP3    H130740   5.303   5.029  12.076 -0.5131 -1.2564 -0.9881
 3083TIP3    H230741   5.454   5.040  12.088 -0.6924  0.9271 -0.2892
 3084TIP3   OH230742   0.980   5.463   5.981  0.4327  0.3531  0.2875
 3084TIP3    H130743   1.029   5.396   6.030 -1.1610 -0.0776  1.3547
 3084TIP3    H230744   1.048   5.523   5.950  1.8987 -1.6057 -0.5021
 3085TIP3   OH230745   1.391   1.337   3.307 -0.6729 -0.1350 -0.1179
 3085TIP3    H130746   1.408   1.251   3.345 -1.0297  0.0384  0.4392
 3085TIP3    H230747   1.433   1.399   3.366 -0.9928  0.1161 -0.1472
 3086TIP3   OH230748   4.272   1.541  15.711  0.5814 -0.2768  0.1416
 3086TIP3    H130749   4.308   1.557  15.798  0.8435  2.9902 -0.4540
 3086TIP3    H230750   4.318   1.603  15.654 -1.1395 -0.7862 -1.9315
 3087TIP3   OH230751   2.745   4.500   1.037  0.3460  0.2648  0.2813
 3087TIP3    H130752   2.715   4.590   1.049  4.4292  1.8915 -0.1683
 3087TIP3    H230753   2.739   4.461   1.124 -0.7520  1.2070  0.6479
 3088TIP3   OH230754   0.826   5.080   3.002 -0.1130  0.2889  0.2694
 3088TIP3    H130755   0.909   5.057   3.044 -0.0156  1.2777  0.6361
 3088TIP3    H230756   0.807   5.168   3.033 -0.2015  0.9271 -1.4848
 3089TIP3   OH230757   2.457   0.583  14.873 -0.3725 -0.4536 -0.0755
 3089TIP3    H130758   2.463   0.667  14.918  0.4885 -0.5286 -0.0319
 3089TIP3    H230759   2.422   0.605  14.787 -0.6007 -0.1138  0.1004
 3090TIP3   OH230760   0.309   6.429   4.687  0.4702 -0.0354  0.4231
 3090TIP3    H130761   0.227   6.381   4.699 -1.1300  2.5970  0.6949
 3090TIP3    H230762   0.357   6.378   4.621 -1.1912 -1.8144  0.5061
 3091TIP3   OH230763   2.992   5.790  14.835  0.1715  0.3367 -0.0127
 3091TIP3    H130764   2.910   5.740  14.834  0.6256 -0.4735  0.8701
 3091TIP3    H230765   3.013   5.801  14.928  2.1807 -1.4397 -0.1575
 3092TIP3   OH230766   5.948   6.276  13.588  0.2864  0.3248  0.1529
 3092TIP3    H130767   5.863   6.232  13.581  0.6014 -0.2712  0.0913
 3092TIP3    H230768   5.927   6.360  13.629 -0.1102 -0.5492  1.8542
 3093TIP3   OH230769   0.194   4.342  10.463  0.1340 -0.6709 -0.3613
 3093TIP3    H130770   0.131   4.359  10.532 -0.4916  0.6773 -1.2427
 3093TIP3    H230771   0.274   4.315  10.510 -0.5320 -0.6308  0.8264
 3094TIP3   OH230772   2.987   3.405   1.440 -0.0335  0.5969 -0.7870
 3094TIP3    H130773   3.008   3.476   1.379  1.9499  0.9781  0.2272
 3094TIP3    H230774   2.984   3.326   1.386 -0.7131  1.2241 -1.6976
 3095TIP3   OH230775   2.882   6.519  12.820  0.3428 -0.3074 -0.1720
 3095TIP3    H130776   2.819   6.460  12.779  0.5244 -0.5059 -0.1741
 3095TIP3    H230777   2.855   6.607  12.794  0.2431 -0.4110 -0.4173
 3096TIP3   OH230778   2.296   1.149   5.450  0.0524 -0.0479 -0.5605
 3096TIP3    H130779   2.210   1.188   5.466 -0.2402 -0.5940 -0.7545
 3096TIP3    H230780   2.280   1.055   5.452 -0.0526 -0.2335 -4.0265
 3097TIP3   OH230781   1.580   2.767  14.664 -0.2405  0.1637  0.6156
 3097TIP3    H130782   1.644   2.698  14.650  0.5811  1.3446 -2.0340
 3097TIP3    H230783   1.631   2.841  14.696 -0.5236  0.5854  0.1169
 3098TIP3   OH230784   4.866   0.779  15.729  0.0581 -0.3071 -0.0282
 3098TIP3    H130785   4.902   0.824  15.806 -0.3991 -1.3355  0.8089
 3098TIP3    H230786   4.941   0.737  15.688  0.2671  0.0308  0.0046
 3099TIP3   OH230787   0.057   2.981  16.683  0.2681  0.2316 -0.2078
 3099TIP3    H130788  -0.012   3.033  16.725 -0.0458  0.0340 -0.4823
 3099TIP3    H230789   0.050   2.895  16.723  1.0918  0.5172  0.5895
 3100TIP3   OH230790   5.513   2.635   2.661  0.4223  0.2254  0.0482
 3100TIP3    H130791   5.421   2.638   2.638  1.1241 -0.2118 -3.3063
 3100TIP3    H230792   5.516   2.585   2.743 -2.1122 -1.9358 -1.0431
 3101TIP3   OH230793   4.795   2.683  12.002 -0.7768  0.4433 -0.3405
 3101TIP3    H130794   4.828   2.689  12.092  0.0333  0.2848 -0.6206
 3101TIP3    H230795   4.760   2.594  11.996  0.8694 -0.2132 -0.7304
 3102TIP3   OH230796   0.036   5.063  11.198 -1.0759 -0.0179  0.4284
 3102TIP3    H130797   0.085   5.037  11.119 -1.7114 -0.0910  0.0495
 3102TIP3    H230798   0.030   4.983  11.250  0.4269  0.3176  1.1506
 3103TIP3   OH230799   5.552   3.042  13.895 -0.3721  0.0996  0.2077
 3103TIP3    H130800   5.480   3.055  13.833  0.2971 -0.9744 -0.8357
 3103TIP3    H230801   5.618   3.106  13.869  0.2777 -0.9484 -0.7972
 3104TIP3   OH230802   2.435   6.557   0.950  0.2436 -0.3164 -0.5421
 3104TIP3    H130803   2.476   6.471   0.959 -0.9298 -0.8522 -0.0175
 3104TIP3    H230804   2.343   6.537   0.931  0.2551  0.8320 -1.9043
 3105TIP3   OH230805   6.465   1.276  10.944  0.1287  0.3645  0.0868
 3105TIP3    H130806   6.398   1.300  11.008 -0.8023 -0.4323 -0.5629
 3105TIP3    H230807   6.446   1.330  10.868  1.3265  1.4182  0.5176
 3106TIP3   OH230808   6.793   2.275  12.563  0.0637 -0.4935  0.5154
 3106TIP3    H130809   6.740   2.219  12.619 -0.8811 -1.1985 -0.9968
 3106TIP3    H230810   6.877   2.282  12.607 -1.0931  0.2169  2.7239
 3107TIP3   OH230811   2.433   5.688   2.377  0.2566  0.2505 -0.2033
 3107TIP3    H130812   2.400   5.606   2.413  0.3395  0.1265 -0.4116
 3107TIP3    H230813   2.527   5.686   2.394 -0.0404  1.3693  1.9417
 3108TIP3   OH230814   3.281   0.256  13.487  0.5164  0.1054 -0.2158
 3108TIP3    H130815   3.186   0.266  13.492  0.5194 -0.0026  0.0491
 3108TIP3    H230816   3.316   0.324  13.544  0.5516 -0.9842  1.1023
 3109TIP3   OH230817   4.511   6.346   4.594 -0.0849 -0.2648  0.0482
 3109TIP3    H130818   4.522   6.431   4.551 -1.4524 -0.7562 -1.3631
 3109TIP3    H230819   4.573   6.348   4.667 -0.0521  1.9228  0.0316
 3110TIP3   OH230820   5.524   2.596   4.726  0.8174 -0.2106  0.6107
 3110TIP3    H130821   5.577   2.593   4.646 -2.8574  0.8054 -2.1032
 3110TIP3    H230822   5.542   2.682   4.764  1.0440  0.1614 -0.3183
 3111TIP3   OH230823   5.866   1.342  13.296  0.3244 -0.5021  0.0754
 3111TIP3    H130824   5.810   1.363  13.222  0.5229 -1.3235 -0.3305
 3111TIP3    H230825   5.811   1.355  13.373 -0.6074 -1.7883 -0.3401
 3112TIP3   OH230826   2.831   6.766  15.894  0.2437  0.4006 -0.5740
 3112TIP3    H130827   2.850   6.680  15.931 -2.0880  0.7096  1.6742
 3112TIP3    H230828   2.798   6.749  15.806  1.1083 -0.8525 -0.6718
 3113TIP3   OH230829   6.572   0.216  11.700 -0.4004 -0.2577  0.1352
 3113TIP3    H130830   6.630   0.197  11.774  0.0607  0.9324  0.1024
 3113TIP3    H230831   6.483   0.208  11.735 -0.1817  0.4254  0.8650
 3114TIP3   OH230832   5.152   0.440   3.632  0.3346  0.0043 -0.0828
 3114TIP3    H130833   5.148   0.421   3.538 -0.1080  0.3323 -0.1329
 3114TIP3    H230834   5.241   0.418   3.657 -0.0104 -1.6801 -0.2322
 3115TIP3   OH230835   6.661   0.893   2.237  0.2785  0.1155 -0.4237
 3115TIP3    H130836   6.596   0.845   2.288  1.4668  0.4329  1.5226
 3115TIP3    H230837   6.694   0.829   2.174  1.0255 -1.3610  1.3657
 3116TIP3   OH230838   2.223   5.657  12.796 -0.1367  0.2411  0.5686
 3116TIP3    H130839   2.277   5.643  12.719 -0.2756  1.7055  0.1609
 3116TIP3    H230840   2.135   5.633  12.769 -0.0030 -0.3274  0.6335
 3117TIP3   OH230841   4.736   0.107   1.797  0.2166  0.8519  0.1640
 3117TIP3    H130842   4.738   0.201   1.817 -2.3890  0.7965  1.0937
 3117TIP3    H230843   4.673   0.099   1.725  1.1567 -0.1307 -0.5969
 3118TIP3   OH230844   4.706   0.971   0.489  0.5503 -0.1452  0.2743
 3118TIP3    H130845   4.725   0.999   0.578 -0.0819 -1.1271  0.7326
 3118TIP3    H230846   4.612   0.956   0.488  0.1251  2.0165 -1.2012
 3119TIP3   OH230847   5.086   3.572  12.463  0.3163  0.3045  0.5716
 3119TIP3    H130848   4.996   3.544  12.450  0.3619  0.3346  0.1946
 3119TIP3    H230849   5.089   3.661  12.430  0.7587 -0.0934 -0.4866
 3120TIP3   OH230850   4.691   2.794  13.748 -0.2417 -0.0719 -0.1925
 3120TIP3    H130851   4.692   2.873  13.693  1.0522  1.2679  1.6510
 3120TIP3    H230852   4.634   2.817  13.822 -0.0370 -0.9655  0.2507
 3121TIP3   OH230853   3.557   6.468   0.514 -0.5255 -0.5101 -0.3751
 3121TIP3    H130854   3.642   6.426   0.503 -0.7213 -0.6960 -1.2713
 3121TIP3    H230855   3.568   6.526   0.590  0.4801 -0.3086 -0.6655
 3122TIP3   OH230856   4.818   5.770   0.970  0.2330  0.0403 -0.0626
 3122TIP3    H130857   4.913   5.757   0.959  0.3967  0.9532  0.2248
 3122TIP3    H230858   4.779   5.700   0.918  1.0745 -0.8680  0.4797
 3123TIP3   OH230859   1.992   2.570   0.056 -0.1882 -0.2687 -0.3470
 3123TIP3    H130860   2.077   2.534   0.029  0.9084  1.2350  0.9295
 3123TIP3    H230861   1.968   2.629  -0.015  1.4423  1.7332  0.6658
 3124TIP3   OH230862   0.058   1.996   2.800  0.3420  0.7078  0.1644
 3124TIP3    H130863  -0.006   1.958   2.860  1.1045  0.4778  0.8551
 3124TIP3    H230864   0.127   2.030   2.858  1.2624  0.1694 -0.5849
 3125TIP3   OH230865   0.481   3.286   1.465  0.8747 -0.1873 -0.4684
 3125TIP3    H130866   0.514   3.220   1.404 -0.2698 -1.9485  0.7355
 3125TIP3    H230867   0.420   3.239   1.521  0.8831  1.6611  1.2043
 3126TIP3   OH230868   2.252   6.415  14.494  0.1260 -0.3145  0.9005
 3126TIP3    H130869   2.164   6.416  14.532 -0.1140  3.2082  0.5441
 3126TIP3    H230870   2.310   6.435  14.567  0.2395  0.8551  0.5080
 3127TIP3   OH230871   4.963   4.642   2.627  0.3117  0.0746 -0.1850
 3127TIP3    H130872   4.890   4.660   2.568  0.3871 -0.2352 -0.3772
 3127TIP3    H230873   4.944   4.555   2.663 -0.1473  0.5993  0.8740
 3128TIP3   OH230874   5.315   0.285   2.323  0.2393 -0.0987 -0.4063
 3128TIP3    H130875   5.324   0.375   2.294 -0.7700 -0.4192 -1.8160
 3128TIP3    H230876   5.396   0.242   2.295  0.6060  0.2939  0.0367
 3129TIP3   OH230877   6.825   6.687   1.604  0.5494  0.2469 -0.1852
 3129TIP3    H130878   6.831   6.737   1.685  0.6442 -0.7192  0.4117
 3129TIP3    H230879   6.887   6.615   1.615 -0.6415 -0.8485 -0.4289
 3130TIP3   OH230880   4.320   1.098  13.831 -0.1450 -0.4133 -0.5089
 3130TIP3    H130881   4.338   1.109  13.738  0.7582  0.6716 -0.2182
 3130TIP3    H230882   4.387   1.036  13.861 -0.5715 -0.9358 -0.6052
 3131TIP3   OH230883   0.782   0.412   5.442 -0.1081 -0.5707  1.0725
 3131TIP3    H130884   0.817   0.482   5.497 -1.9857  0.4565  1.0574
 3131TIP3    H230885   0.841   0.339   5.456  1.1210  0.5720  2.1945
 3132TIP3   OH230886   0.592   5.304   1.825  0.4455  0.4584  0.0230
 3132TIP3    H130887   0.552   5.391   1.825 -1.1756 -0.2069  1.9577
 3132TIP3    H230888   0.518   5.244   1.834  1.6897 -0.9716  1.1470
 3133TIP3   OH230889   1.654   0.282  13.006 -0.0384 -0.0486 -0.1677
 3133TIP3    H130890   1.721   0.338  12.966  0.1558 -0.1325  0.0411
 3133TIP3    H230891   1.580   0.287  12.945  0.3507 -0.3984 -0.6876
 3134TIP3   OH230892   3.320   2.921   3.117 -0.5505 -0.4655 -0.8970
 3134TIP3    H130893   3.351   2.943   3.029 -0.3768 -0.7725 -0.9151
 3134TIP3    H230894   3.312   2.826   3.116 -1.3758 -0.3976 -0.8498
 3135TIP3   OH230895   5.897   1.987  13.173  0.1868 -0.1222  0.6304
 3135TIP3    H130896   5.848   1.933  13.112  1.7867  0.0743 -0.9032
 3135TIP3    H230897   5.945   1.925  13.228  3.2856 -0.4704 -2.1590
 3136TIP3   OH230898   2.645   0.585   1.454  0.3038  0.3839  0.0766
 3136TIP3    H130899   2.716   0.555   1.397 -0.9630 -1.1233 -0.7720
 3136TIP3    H230900   2.685   0.592   1.540  1.4997 -0.3797 -0.3935
 3137TIP3   OH230901   3.566   3.406   1.390  0.1951 -0.1325  0.1693
 3137TIP3    H130902   3.572   3.462   1.312 -0.2958  0.5705  0.6225
 3137TIP3    H230903   3.625   3.333   1.372  0.8224  0.5132 -0.4613
 3138TIP3   OH230904   3.667   0.737  13.910 -0.2221  0.4353 -0.4036
 3138TIP3    H130905   3.672   0.819  13.861  0.5118  0.3316 -0.5087
 3138TIP3    H230906   3.711   0.756  13.993 -0.4234  0.2688 -0.2573
 3139TIP3   OH230907   4.866   5.818  15.932  0.2363  0.5111 -0.4248
 3139TIP3    H130908   4.903   5.892  15.883 -1.0906 -0.2472 -2.6859
 3139TIP3    H230909   4.777   5.846  15.953 -0.5901 -0.7432 -2.0911
 3140TIP3   OH230910   4.758   5.383  16.148 -0.2980 -0.2370 -0.1980
 3140TIP3    H130911   4.751   5.455  16.210 -0.5709 -1.1950  0.9352
 3140TIP3    H230912   4.711   5.413  16.070  0.7775  1.3235 -0.2868
 3141TIP3   OH230913   0.360   3.895  12.146  0.0733  0.1202  0.0158
 3141TIP3    H130914   0.288   3.886  12.083 -0.8436  2.7386  0.5840
 3141TIP3    H230915   0.392   3.805  12.158 -2.7902 -1.1043 -0.5943
 3142TIP3   OH230916   4.489   4.528  15.577 -0.6139  0.3096  0.7805
 3142TIP3    H130917   4.414   4.575  15.540 -0.7650  0.1759  0.9147
 3142TIP3    H230918   4.564   4.583  15.557 -0.5477 -0.2851 -0.7076
 3143TIP3   OH230919   3.449   6.264  12.209  0.4298 -0.2706  1.0053
 3143TIP3    H130920   3.471   6.349  12.246  1.1002  0.0846 -0.1642
 3143TIP3    H230921   3.353   6.259  12.218  0.5094  0.0776  2.1614
 3144TIP3   OH230922   1.691   3.410  13.285  0.0024 -0.5169 -0.4657
 3144TIP3    H130923   1.617   3.449  13.238 -1.2786 -1.4461  0.7004
 3144TIP3    H230924   1.765   3.467  13.264 -1.6598  2.3039  0.7859
 3145TIP3   OH230925   2.880   5.858   6.004 -0.2805  0.6166  0.0270
 3145TIP3    H130926   2.832   5.937   6.029  0.1178  1.9838 -3.0683
 3145TIP3    H230927   2.954   5.891   5.953  2.3634 -1.5909  2.1347
 3146TIP3   OH230928   0.156   6.781  11.992  0.1861 -0.2455  0.0094
 3146TIP3    H130929   0.108   6.823  12.063  1.0523  2.5007 -0.9036
 3146TIP3    H230930   0.088   6.751  11.932 -0.4788 -0.8147  1.0129
 3147TIP3   OH230931   1.607   2.393  15.384  0.7797 -0.4585 -0.6302
 3147TIP3    H130932   1.694   2.423  15.357  0.5515 -0.0507 -0.9247
 3147TIP3    H230933   1.593   2.312  15.336 -0.1528  0.8870 -2.8168
 3148TIP3   OH230934   3.408   5.908   2.762 -0.5571 -0.4027  0.6802
 3148TIP3    H130935   3.403   5.975   2.831  1.9624  0.0082  0.5755
 3148TIP3    H230936   3.428   5.827   2.808 -3.3592 -1.1309  0.7804
 3149TIP3   OH230937   4.388   4.955  11.378 -0.4063  0.1486  0.3446
 3149TIP3    H130938   4.315   4.972  11.437 -1.2568  1.1435 -0.9208
 3149TIP3    H230939   4.385   5.028  11.316  2.4023  0.8776  0.9395
 3150TIP3   OH230940   2.862   4.703   4.418 -0.9544  0.0120  0.0551
 3150TIP3    H130941   2.805   4.736   4.349 -1.0390 -1.4820 -0.6310
 3150TIP3    H230942   2.825   4.739   4.499 -2.0875  0.1444 -0.5015
 3151TIP3   OH230943   3.460   5.653  15.800 -0.1290 -0.0857 -0.4174
 3151TIP3    H130944   3.407   5.614  15.869  0.1653  1.8488  0.9900
 3151TIP3    H230945   3.508   5.724  15.843  1.8046 -0.2280 -2.1429
 3152TIP3   OH230946   2.235   4.290  15.488 -0.6538  0.4156 -0.0644
 3152TIP3    H130947   2.210   4.219  15.548 -0.2651 -0.1806 -0.6039
 3152TIP3    H230948   2.207   4.369  15.533 -0.4187 -0.0280  0.8932
 3153TIP3   OH230949   1.141   6.012   6.235 -0.1234  0.6166 -0.0795
 3153TIP3    H130950   1.236   6.003   6.242  0.0392  0.2447 -2.1378
 3153TIP3    H230951   1.110   5.923   6.215 -0.6972  1.0242 -1.0881
 3154TIP3   OH230952   3.543   6.493   6.068  0.1060  0.3710 -0.5073
 3154TIP3    H130953   3.456   6.491   6.028 -0.3431  0.5302  0.4414
 3154TIP3    H230954   3.560   6.585   6.085  0.3535  0.3171 -0.4564
 3155TIP3   OH230955   5.533   3.918  12.266  0.2310  0.4490  0.0933
 3155TIP3    H130956   5.493   4.004  12.253  0.6071  0.4150 -1.5055
 3155TIP3    H230957   5.515   3.896  12.358 -0.9158  1.6862  0.1889
 3156TIP3   OH230958   1.273   2.144   5.495  0.0303  0.1326  0.0552
 3156TIP3    H130959   1.215   2.111   5.564 -1.8525  1.0640 -1.0332
 3156TIP3    H230960   1.215   2.179   5.428  1.8553  1.8746 -0.7310
 3157TIP3   OH230961   5.026   3.537  13.151  0.0271 -0.2628  0.4858
 3157TIP3    H130962   5.067   3.621  13.170  0.0270 -0.3493  0.8703
 3157TIP3    H230963   5.065   3.510  13.068  2.8367 -1.6318  2.0875
 3158TIP3   OH230964   0.325   6.680  17.074 -0.3996 -0.7198  0.3466
 3158TIP3    H130965   0.319   6.586  17.090  1.1939 -0.4041  3.4362
 3158TIP3    H230966   0.252   6.717  17.124  0.3593 -0.1912  1.0936
 3159TIP3   OH230967   4.365   2.176  16.425 -0.1242  0.7459 -0.1219
 3159TIP3    H130968   4.380   2.119  16.500 -1.3182  2.1864  1.2953
 3159TIP3    H230969   4.453   2.199  16.393  0.3782 -0.7487  0.1150
 3160TIP3   OH230970   5.471   5.207   1.192 -0.1228 -0.2454  0.1163
 3160TIP3    H130971   5.547   5.220   1.135  0.8287 -1.2852  1.0897
 3160TIP3    H230972   5.504   5.151   1.262 -0.4803  3.0188  3.1586
 3161TIP3   OH230973   0.771   3.265  10.462 -0.2349 -0.0276  0.1815
 3161TIP3    H130974   0.742   3.355  10.474  1.2808  0.3315  1.4575
 3161TIP3    H230975   0.814   3.243  10.545 -1.1305 -2.1571  0.1576
 3162TIP3   OH230976   1.737   0.948   4.237 -0.5197  0.5631  0.3620
 3162TIP3    H130977   1.661   0.907   4.278 -1.4713  0.7508 -1.1532
 3162TIP3    H230978   1.703   0.987   4.157  1.3752 -0.3113 -0.9428
 3163TIP3   OH230979   3.905   4.219   3.338  0.0998  0.0118  0.0738
 3163TIP3    H130980   3.809   4.216   3.340  0.0649  0.0039 -1.0013
 3163TIP3    H230981   3.926   4.307   3.369 -0.2286 -0.1268  0.7188
 3164TIP3   OH230982   0.566   0.979   3.632 -0.8118  0.1631  0.2016
 3164TIP3    H130983   0.584   0.899   3.583  0.2979  1.3167 -1.4060
 3164TIP3    H230984   0.483   1.010   3.596 -0.2641  0.7261 -0.6300
 3165TIP3   OH230985   5.050   3.300   3.993 -0.2796 -0.3576 -0.0604
 3165TIP3    H130986   5.032   3.316   4.085 -2.6396 -0.0984 -0.5102
 3165TIP3    H230987   5.045   3.205   3.982 -2.5602 -0.2535 -0.3345
 3166TIP3   OH230988   2.340   1.624   4.426 -0.0539  0.0721 -0.0425
 3166TIP3    H130989   2.434   1.633   4.441  0.0770 -0.9620 -0.1650
 3166TIP3    H230990   2.332   1.557   4.359 -0.9014 -0.5208  0.6192
 3167TIP3   OH230991   3.105   0.070  14.290 -0.0489  0.7617  0.2497
 3167TIP3    H130992   3.045   0.052  14.362  1.4483  1.1037  1.6378
 3167TIP3    H230993   3.180   0.113  14.331  1.9228 -1.1463 -1.1482
 3168TIP3   OH230994   3.148   1.108   3.412  0.4941 -0.2226 -0.1594
 3168TIP3    H130995   3.214   1.171   3.440  0.5397 -0.8508  1.2334
 3168TIP3    H230996   3.173   1.084   3.323  1.0949  0.8957 -0.3009
 3169TIP3   OH230997   3.085   0.850  16.410 -0.4475  0.1508  0.2427
 3169TIP3    H130998   3.043   0.875  16.492 -1.2952 -0.9981  0.1887
 3169TIP3    H230999   3.043   0.767  16.386  0.4177  0.0154 -0.8894
 3170TIP3   OH231000   5.403   4.369  13.346  0.7136  0.1257 -0.2008
 3170TIP3    H131001   5.315   4.339  13.369  0.5627  0.7422  0.0378
 3170TIP3    H231002   5.406   4.364  13.250  1.2365 -2.1468 -0.1088
 3171TIP3   OH231003   6.692   6.047  12.764 -0.2026  0.2968 -0.8668
 3171TIP3    H131004   6.706   6.130  12.718  0.8073  0.6855  0.0631
 3171TIP3    H231005   6.695   6.071  12.857  0.4256 -0.8169 -0.5758
 3172TIP3   OH231006   3.782   2.615   1.138  0.3798 -0.1163 -0.0886
 3172TIP3    H131007   3.779   2.633   1.232 -0.0441 -0.6833  0.0112
 3172TIP3    H231008   3.736   2.532   1.128 -2.3497  1.3957 -1.1413
 3173TIP3   OH231009   3.197   2.251   5.800 -0.2769 -0.6031  0.4519
 3173TIP3    H131010   3.221   2.269   5.708  2.0649  0.0779  1.1059
 3173TIP3    H231011   3.155   2.332   5.829  1.6333  0.3762  0.7189
 3174TIP3   OH231012   3.950   3.541   4.458 -0.1282 -0.1022  0.6640
 3174TIP3    H131013   3.982   3.523   4.547 -0.4599 -0.6740  0.6763
 3174TIP3    H231014   3.878   3.603   4.471  1.2430  1.5557  0.5950
 3175TIP3   OH231015   3.333   5.721  12.547  0.1016  0.4120  0.0970
 3175TIP3    H131016   3.354   5.727  12.641  1.6546 -2.5690  0.0796
 3175TIP3    H231017   3.379   5.795  12.508  2.0342 -0.0113  1.4023
 3176TIP3   OH231018   4.477   4.515  16.179 -0.2756  0.1075  0.0378
 3176TIP3    H131019   4.512   4.511  16.268  2.2156  0.9692 -0.8123
 3176TIP3    H231020   4.510   4.436  16.136  0.7860  0.9672 -0.8037
 3177TIP3   OH231021   5.971   2.666   0.586  0.6539  0.0023 -0.3081
 3177TIP3    H131022   5.991   2.580   0.622 -1.2691  0.0807  1.1205
 3177TIP3    H231023   5.981   2.655   0.491  3.3508 -0.9146 -0.0084
 3178TIP3   OH231024   0.895   3.484   4.056 -0.1000  0.6355  0.1233
 3178TIP3    H131025   0.982   3.455   4.029 -0.2237  0.4324 -0.0562
 3178TIP3    H231026   0.837   3.459   3.984  0.0109  2.5621 -0.7029
 3179TIP3   OH231027   1.707   5.286   3.516 -0.1694  0.1414 -0.1842
 3179TIP3    H131028   1.749   5.202   3.534 -0.3113 -0.2073 -1.3946
 3179TIP3    H231029   1.696   5.326   3.603  3.1139  0.5055  0.2126
 3180TIP3   OH231030   2.845   5.627  11.600  0.0357  0.2377 -0.0652
 3180TIP3    H131031   2.924   5.644  11.652 -0.1149 -0.6270  0.4770
 3180TIP3    H231032   2.877   5.594  11.517  0.2701  1.1294 -0.3366
 3181TIP3   OH231033   0.081   5.965  13.349 -0.1268 -0.2274 -0.0679
 3181TIP3    H131034   0.171   5.996  13.349 -0.1252 -0.2115  0.6802
 3181TIP3    H231035   0.088   5.870  13.342 -0.0462 -0.2263 -0.0014
 3182TIP3   OH231036   1.526   5.367   2.283  0.0072  0.5647  0.3406
 3182TIP3    H131037   1.540   5.329   2.197  1.4288 -1.0640  1.2305
 3182TIP3    H231038   1.434   5.393   2.283 -0.5733 -1.2963 -0.9578
 3183TIP3   OH231039   4.617   5.655  16.132 -0.3316  0.3889  0.1065
 3183TIP3    H131040   4.680   5.713  16.177 -1.0694  0.7492  0.7049
 3183TIP3    H231041   4.532   5.692  16.154 -0.8648 -1.3384  1.1058
 3184TIP3   OH231042   0.415   4.870   2.580  0.2754 -0.6388  0.2975
 3184TIP3    H131043   0.320   4.855   2.586  0.2516 -0.6645 -0.1741
 3184TIP3    H231044   0.453   4.805   2.640 -0.0362 -0.2339  0.9497
 3185TIP3   OH231045   2.681   2.209  14.894 -0.4910 -0.2504  0.4240
 3185TIP3    H131046   2.723   2.172  14.816 -1.1474  1.0975 -0.6341
 3185TIP3    H231047   2.595   2.238  14.862  0.4990  3.5641  0.6592
 3186TIP3   OH231048   0.162   2.732   5.471 -0.0152 -0.0123  0.1705
 3186TIP3    H131049   0.155   2.703   5.562 -1.1139  0.1471  0.1493
 3186TIP3    H231050   0.237   2.791   5.470 -1.4126  1.9198  1.5038
 3187TIP3   OH231051   6.122   6.653  12.341  0.8351  0.7248 -0.0412
 3187TIP3    H131052   6.118   6.558  12.352  1.9753  0.2817 -2.6042
 3187TIP3    H231053   6.166   6.685  12.419 -1.9623 -0.4631  2.1891
 3188TIP3   OH231054   1.878   3.611  14.908 -0.0622 -0.1192  0.1483
 3188TIP3    H131055   1.955   3.585  14.957  1.4635  1.3540 -1.3588
 3188TIP3    H231056   1.871   3.705  14.921 -1.6958 -0.2361  0.3350
 3189TIP3   OH231057   1.434   1.792   4.648  0.6203  0.7926 -0.0469
 3189TIP3    H131058   1.369   1.824   4.711  0.4887  0.2697  0.0846
 3189TIP3    H231059   1.518   1.818   4.686  0.7586 -1.9290  1.8277
 3190TIP3   OH231060   5.143   6.136   5.275  0.1156 -0.4337 -0.1322
 3190TIP3    H131061   5.106   6.063   5.224  0.3542 -0.1134 -0.7698
 3190TIP3    H231062   5.235   6.139   5.249  0.4698 -0.8284  0.9898
 3191TIP3   OH231063   2.959   0.181  16.112 -0.3634 -0.2962  0.1324
 3191TIP3    H131064   2.946   0.159  16.020  1.4165  1.2752 -0.5630
 3191TIP3    H231065   2.916   0.265  16.123  1.6949  0.8530 -0.0415
 3192TIP3   OH231066   2.217   4.811  12.818  0.1279 -0.4362 -0.9321
 3192TIP3    H131067   2.263   4.796  12.901 -1.5958  0.7516  0.3159
 3192TIP3    H231068   2.241   4.737  12.763  1.6430 -1.0473  0.4872
 3193TIP3   OH231069   1.997   3.808  14.061  0.3212  0.4400  0.6653
 3193TIP3    H131070   2.026   3.851  14.142 -1.3029 -0.7433  1.9602
 3193TIP3    H231071   1.913   3.849  14.040  0.6488  0.6182 -0.3494
 3194TIP3   OH231072   2.044   5.153   5.393 -0.4221  0.6141  0.6131
 3194TIP3    H131073   2.070   5.132   5.482 -0.5074 -2.2043  0.0634
 3194TIP3    H231074   2.054   5.248   5.386  0.8886  0.7261  3.1711
 3195TIP3   OH231075   1.247   3.779   5.065  0.0936 -0.1815 -0.5326
 3195TIP3    H131076   1.169   3.774   5.121  0.9491  0.2720  0.7395
 3195TIP3    H231077   1.279   3.689   5.061 -0.5869 -0.4042 -1.2187
 3196TIP3   OH231078   5.959   0.277  14.544  0.8121 -0.0188  0.1655
 3196TIP3    H131079   5.967   0.256  14.451  0.7887  0.1045  0.1359
 3196TIP3    H231080   5.980   0.195  14.589 -1.1538 -0.6494  0.0181
 3197TIP3   OH231081   3.487   3.546   6.381  0.7287  0.0122 -0.3625
 3197TIP3    H131082   3.472   3.505   6.466  4.9157 -1.7923 -0.2435
 3197TIP3    H231083   3.527   3.631   6.402 -0.7414  0.7938 -0.6085
 3198TIP3   OH231084   5.174   5.695  15.073  0.4296 -1.1230  0.4060
 3198TIP3    H131085   5.244   5.760  15.081  0.2990 -0.9095 -0.1523
 3198TIP3    H231086   5.111   5.734  15.012  0.3986 -1.8169 -0.0192
 3199TIP3   OH231087   1.022   5.500  15.239  0.4195 -1.1118  0.7103
 3199TIP3    H131088   1.030   5.424  15.296  1.9477 -0.7499  1.0041
 3199TIP3    H231089   1.038   5.576  15.295  1.5496 -0.7294 -0.0847
 3200TIP3   OH231090   4.533   2.061   6.033 -0.0908  0.0841 -0.3116
 3200TIP3    H131091   4.506   2.016   6.113  1.1608  0.9347  0.6192
 3200TIP3    H231092   4.499   2.150   6.043 -0.5224  0.0162 -1.0667
 3201TIP3   OH231093   5.107   6.691   3.900 -0.4275  0.0131  0.7085
 3201TIP3    H131094   5.075   6.603   3.922 -1.1377 -0.2469 -1.1520
 3201TIP3    H231095   5.027   6.744   3.893  0.0290  0.9935  2.4095
 3202TIP3   OH231096   1.319   0.171   5.436 -0.5508 -0.0423  0.9259
 3202TIP3    H131097   1.340   0.256   5.476 -0.1659  1.4565 -2.1746
 3202TIP3    H231098   1.401   0.122   5.441 -0.3107  0.3858  1.3253
 3203TIP3   OH231099   0.994   1.894  12.989 -0.4270 -0.2388 -0.2549
 3203TIP3    H131100   0.918   1.842  13.016 -1.0098  1.0275  0.6487
 3203TIP3    H231101   0.957   1.977  12.960  0.5552  0.0387 -0.7393
 3204TIP3   OH231102   0.086   3.772   5.544  0.4132  0.1417  0.0424
 3204TIP3    H131103   0.004   3.814   5.518  0.8400  2.0530  1.5322
 3204TIP3    H231104   0.155   3.834   5.517  1.3680 -1.2158 -0.7786
 3205TIP3   OH231105   5.248   3.372  12.610 -0.2721 -0.9125 -0.2518
 3205TIP3    H131106   5.191   3.342  12.681 -0.4116  0.7527  0.3758
 3205TIP3    H231107   5.196   3.437  12.563  1.5506  1.8626  1.3036
 3206TIP3   OH231108   6.290   4.001  12.431  0.0280 -0.0174  0.1735
 3206TIP3    H131109   6.319   4.032  12.517 -1.4630  1.9671  0.0087
 3206TIP3    H231110   6.216   3.943  12.450  0.9124 -1.1477  0.2979
 3207TIP3   OH231111   0.358   3.423   4.280  0.4867 -0.0050  0.1570
 3207TIP3    H131112   0.400   3.337   4.283  0.8967  0.1871  0.0035
 3207TIP3    H231113   0.307   3.428   4.361 -0.1604 -0.6984 -0.1974
 3208TIP3   OH231114   0.731   4.898   5.336  0.1100  0.4931 -0.0057
 3208TIP3    H131115   0.748   4.922   5.427  1.6301 -1.9121  0.4589
 3208TIP3    H231116   0.818   4.877   5.300 -0.7398 -1.6136 -1.0174
 3209TIP3   OH231117   4.659   3.039   1.989  0.7413 -0.4240 -0.2449
 3209TIP3    H131118   4.596   3.060   1.919  1.3109  0.6090 -0.4714
 3209TIP3    H231119   4.655   2.944   1.996  2.4955 -0.8768 -3.4622
 3210TIP3   OH231120   3.873   3.035  14.165  0.1602 -0.0506 -0.1311
 3210TIP3    H131121   3.844   3.124  14.147 -0.6863 -0.8437 -3.2298
 3210TIP3    H231122   3.968   3.038  14.153 -0.1575 -0.1263 -3.7290
 3211TIP3   OH231123   3.026   0.524   2.395  0.6442  0.8812  0.0004
 3211TIP3    H131124   2.963   0.595   2.383  0.7070  1.1776  1.2582
 3211TIP3    H231125   3.008   0.463   2.324 -0.4108  1.4364 -0.2266
 3212TIP3   OH231126   3.789   4.387  11.730  0.0825 -0.5308 -0.1237
 3212TIP3    H131127   3.848   4.452  11.768 -0.0390 -1.0796  1.0577
 3212TIP3    H231128   3.838   4.349  11.658  1.1282 -0.8499  0.7316
 3213TIP3   OH231129   2.946   2.677  16.943 -0.0447  0.2646 -0.3923
 3213TIP3    H131130   2.949   2.605  16.880  1.2892  0.0165 -0.0822
 3213TIP3    H231131   2.882   2.649  17.009 -0.1657 -0.2514 -0.7203
 3214TIP3   OH231132   4.782   5.060   1.867 -0.4104  0.2162 -0.1361
 3214TIP3    H131133   4.821   5.063   1.955  1.6393 -2.3295 -0.8353
 3214TIP3    H231134   4.726   4.983   1.868  1.2450 -1.0793 -1.5797
 3215TIP3   OH231135   1.412   3.296  11.353  0.0817  0.3051  0.2992
 3215TIP3    H131136   1.389   3.359  11.421 -0.5859  0.4222 -0.0343
 3215TIP3    H231137   1.361   3.218  11.375 -0.3090  0.4177 -0.1873
 3216TIP3   OH231138   6.297   3.823   5.832 -0.0470  0.3099 -0.5197
 3216TIP3    H131139   6.350   3.848   5.757  3.7801 -1.3398  1.3401
 3216TIP3    H231140   6.359   3.820   5.905 -2.6289 -2.3022  1.8326
 3217TIP3   OH231141   5.641   6.596  16.765 -0.5603  0.0892 -0.0976
 3217TIP3    H131142   5.632   6.667  16.828 -1.4250  0.1372 -0.2492
 3217TIP3    H231143   5.584   6.622  16.692  0.5626  0.1255 -0.9861
 3218TIP3   OH231144   5.375   5.666   1.709  0.3890 -0.2876  0.9324
 3218TIP3    H131145   5.428   5.669   1.789 -0.4876  1.5111  1.4952
 3218TIP3    H231146   5.295   5.714   1.732 -1.3096 -2.4960 -0.0456
 3219TIP3   OH231147   3.080   3.085   2.772  0.6048  0.0093 -0.0290
 3219TIP3    H131148   3.102   2.993   2.782  0.4897 -0.0194 -0.0364
 3219TIP3    H231149   2.991   3.085   2.737  0.8233  0.1185 -0.5883
 3220TIP3   OH231150   4.760   1.197   0.136  0.1721  0.1347  0.2570
 3220TIP3    H131151   4.718   1.111   0.125  1.0182 -0.6365  2.5471
 3220TIP3    H231152   4.813   1.188   0.215  3.0273  1.7387 -1.3345
 3221TIP3   OH231153   1.327   4.585  16.226 -0.6069 -0.2334  0.4318
 3221TIP3    H131154   1.373   4.645  16.168  1.8936 -1.0408  1.4220
 3221TIP3    H231155   1.239   4.578  16.189  0.4080  0.4231 -2.3636
 3222TIP3   OH231156   0.488   5.269   5.694  0.1471 -0.7211  0.3318
 3222TIP3    H131157   0.570   5.303   5.658  1.0369 -1.8298  1.2240
 3222TIP3    H231158   0.423   5.337   5.675  0.9491 -0.4266 -1.6640
 3223TIP3   OH231159   5.982   4.534   2.092 -0.6830 -0.4382  0.4018
 3223TIP3    H131160   6.044   4.472   2.132  0.2501 -0.3927 -0.9415
 3223TIP3    H231161   6.002   4.533   1.999 -1.1519  1.3491  0.2397
 3224TIP3   OH231162   4.221   0.353  12.244 -0.1965 -0.1076 -0.3493
 3224TIP3    H131163   4.271   0.287  12.194  0.5852  0.7326 -0.7053
 3224TIP3    H231164   4.234   0.328  12.335  2.0288  0.8168 -0.3366
 3225TIP3   OH231165   6.839   4.909  15.145  0.0531 -0.2419  0.0081
 3225TIP3    H131166   6.764   4.966  15.160 -2.0087 -2.9527  0.8016
 3225TIP3    H231167   6.826   4.872  15.058  2.6402  2.0785 -1.5523
 3226TIP3   OH231168   0.934   4.642  14.380  0.1203 -0.6618 -0.0763
 3226TIP3    H131169   0.994   4.568  14.367  0.5613 -0.4272  0.5808
 3226TIP3    H231170   0.886   4.621  14.460 -0.4729 -0.7045 -0.4358
 3227TIP3   OH231171   3.048   0.321  14.158  0.0045 -1.1059 -0.2135
 3227TIP3    H131172   3.025   0.231  14.180  1.1089 -1.6747 -1.2548
 3227TIP3    H231173   2.988   0.344  14.087 -0.4434 -0.9255  0.2193
 3228TIP3   OH231174   0.482   3.709   4.905  0.2711 -0.0213  0.4810
 3228TIP3    H131175   0.492   3.739   4.995 -1.9678  0.9949  0.4667
 3228TIP3    H231176   0.427   3.776   4.864  1.2905 -0.4338 -1.6780
 3229TIP3   OH231177   4.948   6.530  15.908 -0.1734  0.2262 -0.1542
 3229TIP3    H131178   4.988   6.616  15.916  2.3670 -0.8094 -0.7944
 3229TIP3    H231179   4.998   6.474  15.968 -0.8128 -1.1023 -0.7975
 3230TIP3   OH231180   3.736   3.433  12.412 -0.4240 -0.0273  0.2052
 3230TIP3    H131181   3.697   3.406  12.495 -1.3783  0.5466 -0.0424
 3230TIP3    H231182   3.828   3.448  12.432 -0.1928 -1.8210  0.7180
 3231TIP3   OH231183   1.118   6.215  12.358 -0.0825 -0.1520  0.1096
 3231TIP3    H131184   1.114   6.197  12.264  0.8909 -1.1025  0.2322
 3231TIP3    H231185   1.126   6.128  12.398  0.8216  0.3217  0.9807
 3232TIP3   OH231186   3.529   3.903   3.097 -0.1912  0.2555 -0.5326
 3232TIP3    H131187   3.439   3.876   3.114 -0.6383  1.6839 -0.4779
 3232TIP3    H231188   3.557   3.849   3.023 -1.4997  0.5882 -1.2955
 3233TIP3   OH231189   2.587   2.572  15.423 -0.0453  0.3671  0.3466
 3233TIP3    H131190   2.553   2.646  15.374 -0.6757 -0.4312 -0.4444
 3233TIP3    H231191   2.622   2.513  15.357  0.8776  0.1609  1.0003
 3234TIP3   OH231192   6.050   2.927  14.671  0.4117 -0.5159 -0.3751
 3234TIP3    H131193   6.135   2.883  14.674  1.4508  1.2865 -1.5215
 3234TIP3    H231194   5.986   2.856  14.676  1.9714 -1.9693 -0.1663
 3235TIP3   OH231195   1.027   2.652  12.991 -0.6485 -0.2908  0.1609
 3235TIP3    H131196   0.980   2.618  13.067 -1.9783  0.1433 -0.4364
 3235TIP3    H231197   0.982   2.733  12.969 -0.1883 -0.3308 -0.9943
 3236TIP3   OH231198   2.729   2.883  12.606 -0.5384  0.3515  0.3344
 3236TIP3    H131199   2.732   2.965  12.557 -0.9231 -1.2512 -2.6793
 3236TIP3    H231200   2.807   2.835  12.576 -0.9829 -0.8526  1.0415
 3237TIP3   OH231201   2.392   6.688  14.055  0.4923  0.2093 -0.3529
 3237TIP3    H131202   2.352   6.654  13.975 -0.1872  2.3670 -1.0146
 3237TIP3    H231203   2.346   6.645  14.126  0.5850 -1.1927 -1.1164
 3238TIP3   OH231204   0.308   2.707   2.601 -0.0870 -0.0919 -0.6727
 3238TIP3    H131205   0.285   2.710   2.508  0.4160 -3.8993 -1.1051
 3238TIP3    H231206   0.238   2.656   2.641  0.8983 -0.5314  0.5474
 3239TIP3   OH231207   3.240   6.066  11.636 -0.7039  0.5624 -0.2513
 3239TIP3    H131208   3.220   5.986  11.684 -0.4122  1.4315  1.4174
 3239TIP3    H231209   3.164   6.081  11.580 -1.7295  0.2583  1.0144
 3240TIP3   OH231210   2.982   0.452  13.869  0.5936 -0.1335  0.0011
 3240TIP3    H131211   3.075   0.476  13.874  0.4742  0.1120  1.1098
 3240TIP3    H231212   2.936   0.524  13.910 -0.2124  0.3428 -1.6467
 3241TIP3   OH231213   6.161   0.184   4.380 -0.6803 -0.1254  0.0976
 3241TIP3    H131214   6.122   0.233   4.308  0.6374 -0.8795 -1.1616
 3241TIP3    H231215   6.167   0.247   4.451 -2.1875  0.5823 -0.3500
 3242TIP3   OH231216   0.733   6.688   2.844  0.4568  0.3270 -0.2327
 3242TIP3    H131217   0.764   6.629   2.913  0.0252  0.7556  0.3405
 3242TIP3    H231218   0.773   6.773   2.865 -1.6136  1.0877  0.9633
 3243TIP3   OH231219   0.947   2.341  15.006  0.5227  0.5981 -0.0213
 3243TIP3    H131220   0.952   2.263  14.951  1.9173  0.3478  0.4141
 3243TIP3    H231221   0.948   2.414  14.944  0.0002  0.2996 -0.3960
 3244TIP3   OH231222   4.400   0.853  13.398 -0.1206  0.1080  0.1019
 3244TIP3    H131223   4.323   0.797  13.404  0.0349 -0.0145  0.9705
 3244TIP3    H231224   4.474   0.792  13.393 -0.0640  0.2251 -0.7172
 3245TIP3   OH231225   5.307   2.977  14.954 -0.7959  0.2248 -0.6192
 3245TIP3    H131226   5.380   3.038  14.967 -0.7926 -0.0128  0.5881
 3245TIP3    H231227   5.318   2.946  14.864  1.3562 -0.7775 -0.0839
 3246TIP3   OH231228   3.865   3.240   3.897 -0.2732 -0.0243  0.3252
 3246TIP3    H131229   3.944   3.187   3.885 -0.3638 -0.0727 -0.0673
 3246TIP3    H231230   3.898   3.329   3.910 -0.1872  0.2772 -1.6204
 3247TIP3   OH231231   4.583   1.425  11.272  0.0160 -0.0218 -0.0215
 3247TIP3    H131232   4.617   1.480  11.343  0.1681 -1.0345  0.7128
 3247TIP3    H231233   4.646   1.437  11.200 -0.7962  1.9593 -0.4535
 3248TIP3   OH231234   2.360   6.798  14.392 -0.1438  0.5179 -0.7794
 3248TIP3    H131235   2.442   6.775  14.347  0.0399  0.7774 -0.5779
 3248TIP3    H231236   2.347   6.891  14.374 -0.0738  0.6222 -0.3064
 3249TIP3   OH231237   6.448   3.252   2.109  0.0457 -0.5819  0.0013
 3249TIP3    H131238   6.503   3.277   2.034 -1.0916  0.4250 -0.5436
 3249TIP3    H231239   6.510   3.239   2.181  1.1345 -1.2190 -1.0144
 3250TIP3   OH231240   3.994   3.309  12.739  0.3959 -0.4547 -0.5438
 3250TIP3    H131241   4.039   3.247  12.681  2.4512 -0.4422  0.9057
 3250TIP3    H231242   4.057   3.325  12.810 -2.2216 -1.0959  2.1476
 3251TIP3   OH231243   5.355   3.916  12.827  0.0396 -0.5152  0.3120
 3251TIP3    H131244   5.435   3.901  12.877 -0.8886 -0.0506  1.9948
 3251TIP3    H231245   5.284   3.891  12.886 -1.0915 -1.0174 -1.1676
 3252TIP3   OH231246   2.041   6.054   2.673 -0.1128  0.0262  0.0787
 3252TIP3    H131247   2.108   6.000   2.631  0.5241  1.2040 -0.4598
 3252TIP3    H231248   2.020   6.007   2.755  1.8234 -0.0417  0.5762
 3253TIP3   OH231249   3.424   5.692   4.000  0.3998  0.2799  0.1295
 3253TIP3    H131250   3.408   5.721   4.090  1.4802  1.5206 -0.0460
 3253TIP3    H231251   3.517   5.710   3.986 -0.0492  1.3863 -1.6869
 3254TIP3   OH231252   2.972   5.088   0.104  0.0394  0.4672 -0.2589
 3254TIP3    H131253   2.925   5.054   0.180 -1.1118  0.0878 -1.1036
 3254TIP3    H231254   2.909   5.080   0.032  1.3190  0.2144 -1.3841
 3255TIP3   OH231255   1.478   4.259   5.688  0.1701 -0.0498 -0.2142
 3255TIP3    H131256   1.568   4.258   5.655  0.4023 -0.7403  0.3938
 3255TIP3    H231257   1.486   4.290   5.778  0.0479 -1.8132  0.4437
 3256TIP3   OH231258   3.445   2.060  16.362 -0.0794  0.4097  0.0838
 3256TIP3    H131259   3.517   2.007  16.398 -1.0953  0.6167  2.6002
 3256TIP3    H231260   3.464   2.149  16.390 -1.2218  0.4911  0.6549
 3257TIP3   OH231261   0.657   5.162   4.021 -0.2936 -0.2428  0.2643
 3257TIP3    H131262   0.748   5.189   4.033 -0.5839  0.2614  1.4243
 3257TIP3    H231263   0.622   5.155   4.109 -1.6986  0.6663 -0.1984
 3258TIP3   OH231264   4.543   1.668   1.986 -0.3075 -0.0801 -0.1677
 3258TIP3    H131265   4.470   1.608   1.973  0.1706 -0.7912  0.3915
 3258TIP3    H231266   4.620   1.619   1.959 -0.0040  0.5840 -0.5306
 3259TIP3   OH231267   1.964   3.768  13.511 -0.2742 -0.6000  0.1026
 3259TIP3    H131268   1.932   3.856  13.491  1.2051 -0.1290 -0.3094
 3259TIP3    H231269   2.018   3.745  13.436 -0.6173 -1.8666  0.2268
 3260TIP3   OH231270   5.223   5.333   4.354 -0.6957  0.1107 -0.5421
 3260TIP3    H131271   5.263   5.281   4.424  1.3827 -0.1793 -1.8470
 3260TIP3    H231272   5.141   5.366   4.391 -1.2169 -2.5816  0.9690
 3261TIP3   OH231273   4.010   2.217   5.438  0.0500 -0.4509 -0.1183
 3261TIP3    H131274   4.048   2.289   5.388 -0.8990 -0.0257 -0.2521
 3261TIP3    H231275   4.040   2.231   5.528  1.7483 -1.2039 -0.5361
 3262TIP3   OH231276   0.705   4.218  12.829  0.4978 -0.3534 -0.2593
 3262TIP3    H131277   0.640   4.287  12.817  1.3354  0.5486  0.3154
 3262TIP3    H231278   0.756   4.218  12.747  2.0000  1.3465  0.6001
 3263TIP3   OH231279   2.572   6.430   3.880 -0.2576  0.4363 -0.1942
 3263TIP3    H131280   2.552   6.404   3.969 -1.1341  1.8101  0.0500
 3263TIP3    H231281   2.627   6.360   3.845 -0.7044 -0.5875  1.0957
 3264TIP3   OH231282   6.797   5.501   2.536 -0.0654 -0.0064 -0.1445
 3264TIP3    H131283   6.704   5.521   2.538 -0.0633 -0.0094  0.1615
 3264TIP3    H231284   6.804   5.416   2.579  0.0374 -0.1755 -0.4984
 3265TIP3   OH231285   5.827   4.188  16.602 -0.3512  0.2045  0.3695
 3265TIP3    H131286   5.866   4.111  16.560 -0.5285  1.2943 -1.9682
 3265TIP3    H231287   5.806   4.159  16.691 -0.3878 -2.4188 -0.4158
 3266TIP3   OH231288   3.864   2.505  14.281 -0.0756 -0.1622  1.1041
 3266TIP3    H131289   3.934   2.459  14.236  1.9703  0.4934  3.3624
 3266TIP3    H231290   3.825   2.440  14.339 -0.8251 -0.3170  0.4477
 3267TIP3   OH231291   1.808   3.143  11.102 -0.2634 -0.1297 -0.4442
 3267TIP3    H131292   1.902   3.127  11.106  0.1045  1.9520  0.5163
 3267TIP3    H231293   1.783   3.161  11.193 -1.5445 -0.3784 -0.7304
 3268TIP3   OH231294   5.262   2.272   4.548  0.2959 -0.4706  0.5699
 3268TIP3    H131295   5.181   2.226   4.570 -2.1039  2.2050 -1.9513
 3268TIP3    H231296   5.270   2.340   4.615  0.0533 -0.2762  0.4006
 3269TIP3   OH231297   6.214   2.399   3.616  0.1950 -0.4943  0.4262
 3269TIP3    H131298   6.253   2.443   3.692 -0.3773  1.1584 -0.1919
 3269TIP3    H231299   6.223   2.462   3.545 -0.7802 -1.3395 -0.4771
 3270TIP3   OH231300   1.325   6.465  15.520  0.1993 -0.0312 -0.4356
 3270TIP3    H131301   1.408   6.441  15.560 -0.0349 -1.1367 -0.5895
 3270TIP3    H231302   1.267   6.391  15.537 -0.4447  0.2619 -1.2471
 3271TIP3   OH231303   4.234   6.413  15.319  0.1924  0.1476 -0.2973
 3271TIP3    H131304   4.206   6.503  15.334 -1.3908 -0.0905 -1.4855
 3271TIP3    H231305   4.305   6.420  15.255  1.1473  0.6206  0.7845
 3272TIP3   OH231306   5.129   1.669   5.123  0.2644 -0.2288 -0.0284
 3272TIP3    H131307   5.034   1.682   5.127  0.5697  2.8139 -0.1459
 3272TIP3    H231308   5.144   1.587   5.169 -2.3252 -0.1925  1.0666
 3273TIP3   OH231309   1.661   0.396  12.638 -0.6550  0.2046 -0.1865
 3273TIP3    H131310   1.723   0.443  12.693  0.3713 -1.8426  0.5037
 3273TIP3    H231311   1.710   0.378  12.557 -0.6808 -0.5266 -0.0449
 3274TIP3   OH231312   4.732   5.574   3.285 -0.0599  0.5467  0.1475
 3274TIP3    H131313   4.772   5.506   3.340  1.7472  0.5510 -1.0732
 3274TIP3    H231314   4.704   5.641   3.348 -0.4669 -0.6093  1.2530
 3275TIP3   OH231315   5.650   5.959   3.520 -0.2800  0.1446 -0.0903
 3275TIP3    H131316   5.665   5.898   3.448 -2.3433 -2.1277  1.2706
 3275TIP3    H231317   5.559   5.944   3.546 -0.1689  2.2273  1.7807
 3276TIP3   OH231318   1.529   2.023  16.075 -0.0856 -0.4272  0.4199
 3276TIP3    H131319   1.443   2.064  16.059  0.2168  1.1226  2.4819
 3276TIP3    H231320   1.577   2.039  15.994 -1.6809 -1.2470 -0.7549
 3277TIP3   OH231321   3.059   5.023  13.068  0.0340  0.0088  0.3407
 3277TIP3    H131322   3.033   4.943  13.024  1.4840  1.2476 -3.0848
 3277TIP3    H231323   2.983   5.081  13.062  0.1194  0.0583 -0.3455
 3278TIP3   OH231324   2.517   2.439  16.183  0.2461  0.0465  0.1689
 3278TIP3    H131325   2.508   2.506  16.250 -1.0084  1.0091 -0.9169
 3278TIP3    H231326   2.427   2.420  16.156  0.7142 -0.4682 -1.0781
 3279TIP3   OH231327   1.458   0.781  15.589  0.2196 -0.5966  0.2492
 3279TIP3    H131328   1.507   0.808  15.667  0.2286  1.3141 -0.3469
 3279TIP3    H231329   1.487   0.843  15.521 -0.3105 -1.7616 -1.0823
 3280TIP3   OH231330   4.025   1.767  14.852 -0.0711 -0.4047  0.1678
 3280TIP3    H131331   3.984   1.824  14.787  2.2311 -0.3307 -1.3280
 3280TIP3    H231332   3.980   1.683  14.842 -1.2509  0.2153  0.0829
 3281TIP3   OH231333   6.670   3.121   3.094 -0.1430  0.3974 -0.6973
 3281TIP3    H131334   6.594   3.064   3.087 -0.0158  0.0887  0.3547
 3281TIP3    H231335   6.723   3.099   3.017 -0.3138 -0.5906 -0.5466
 3282TIP3   OH231336   1.204   3.056   5.406  0.3854  0.3045 -0.2575
 3282TIP3    H131337   1.140   2.986   5.420  1.7591 -0.4962  2.7871
 3282TIP3    H231338   1.195   3.111   5.484 -0.5106  3.5341 -2.4448
 3283TIP3   OH231339   6.012   6.760   3.801  0.1876  0.4992  0.4631
 3283TIP3    H131340   6.017   6.834   3.862 -0.4578  0.1474  0.9674
 3283TIP3    H231341   6.103   6.733   3.788  0.3129  0.2337  1.7279
 3284TIP3   OH231342   5.472   1.605  13.023  0.3665  0.2444  0.1512
 3284TIP3    H131343   5.380   1.619  13.045  0.2485  1.0039 -0.7571
 3284TIP3    H231344   5.475   1.516  12.987 -0.5828  1.2009 -2.5320
 3285TIP3   OH231345   4.076   3.396  10.956  0.3185  0.0130 -0.0954
 3285TIP3    H131346   4.116   3.333  10.896  0.4155 -0.5013  0.4928
 3285TIP3    H231347   4.145   3.458  10.975  0.6582 -0.5157  0.4258
 3286TIP3   OH231348   0.750   5.881   1.136 -1.0423 -0.6288 -0.6763
 3286TIP3    H131349   0.815   5.813   1.150  0.3600  0.8908  0.6630
 3286TIP3    H231350   0.801   5.960   1.116 -2.4239  0.6424  0.5487
 3287TIP3   OH231351   4.401   4.851  17.072 -0.3700  0.4872 -0.5601
 3287TIP3    H131352   4.340   4.909  17.118 -3.1264 -2.7474  0.3166
 3287TIP3    H231353   4.360   4.836  16.987 -0.3101 -0.9184 -0.3703
 3288TIP3   OH231354   6.502   1.220   3.667 -0.0490 -0.0794  0.5855
 3288TIP3    H131355   6.420   1.172   3.662  0.0562 -0.1614 -0.9954
 3288TIP3    H231356   6.487   1.287   3.733 -1.3828 -0.0880  0.3212
 3289TIP3   OH231357   3.705   3.090  13.214  0.3755 -0.6988  0.2311
 3289TIP3    H131358   3.767   3.110  13.284  0.7573 -2.5902  0.4783
 3289TIP3    H231359   3.629   3.052  13.259 -1.8555  3.0718  0.1426
 3290TIP3   OH231360   6.749   2.004  11.182 -0.3107 -0.2082  0.2225
 3290TIP3    H131361   6.765   2.036  11.093 -0.2463  0.5690  0.5078
 3290TIP3    H231362   6.659   1.972  11.181 -0.6805  0.8077  0.1632
 3291TIP3   OH231363   0.313   6.292  12.911 -0.2084  0.7784  0.0180
 3291TIP3    H131364   0.374   6.219  12.896 -0.4456  0.7668 -0.9293
 3291TIP3    H231365   0.368   6.370  12.911  0.1837  0.5487  1.9810
 3292TIP3   OH231366   2.960   4.880  15.468  0.4803  0.4823  0.0916
 3292TIP3    H131367   2.912   4.918  15.541  1.9620 -0.5084  1.6615
 3292TIP3    H231368   3.052   4.898  15.487  0.9955 -0.9256 -0.8281
 3293TIP3   OH231369   0.779   4.607   5.651 -0.1630  0.2680 -0.0319
 3293TIP3    H131370   0.845   4.631   5.586 -1.4342 -0.7172 -1.7792
 3293TIP3    H231371   0.806   4.521   5.683 -0.4418 -0.0301 -0.5746
 3294TIP3   OH231372   1.984   2.357   0.898  0.3703  0.0861 -0.6299
 3294TIP3    H131373   1.991   2.448   0.871  1.4881 -0.0766 -0.9468
 3294TIP3    H231374   1.892   2.334   0.884  0.4177  0.6969 -2.0630
 3295TIP3   OH231375   0.691   0.047  11.654  0.3200  0.3420  0.9623
 3295TIP3    H131376   0.733  -0.031  11.691 -0.3426 -0.2512  0.4840
 3295TIP3    H231377   0.605   0.050  11.695 -0.7144 -0.7417 -1.0172
 3296TIP3   OH231378   2.145   2.240   3.569  0.0593  0.0279 -0.3568
 3296TIP3    H131379   2.186   2.166   3.525 -0.8951 -0.3020 -0.7096
 3296TIP3    H231380   2.075   2.268   3.510  0.3439  1.1655 -0.1899
 3297TIP3   OH231381   2.190   4.160   0.453 -0.2812 -0.2887 -0.4229
 3297TIP3    H131382   2.272   4.162   0.502  0.2689 -0.1177 -1.3237
 3297TIP3    H231383   2.161   4.069   0.457 -0.7693 -0.0914  1.0446
 3298TIP3   OH231384   3.669   3.976  10.433  0.4556 -0.0758  0.0980
 3298TIP3    H131385   3.726   4.001  10.360  0.1821  1.0587  0.2482
 3298TIP3    H231386   3.671   4.051  10.492  0.3825 -0.8287  1.0891
 3299TIP3   OH231387   3.510   6.499  12.345 -0.0690  0.1620  0.5031
 3299TIP3    H131388   3.490   6.561  12.275  2.1175 -0.1346 -0.4841
 3299TIP3    H231389   3.525   6.554  12.422 -2.3431  0.5004  0.7699
 3300TIP3   OH231390   5.771   0.593   1.847 -0.3743 -0.0329 -0.5803
 3300TIP3    H131391   5.716   0.514   1.848 -0.0873 -0.3144  2.1064
 3300TIP3    H231392   5.722   0.657   1.898  0.7289  0.4744 -0.1150
 3301TIP3   OH231393   0.079   6.442   2.915  0.0767 -0.3232  0.5579
 3301TIP3    H131394   0.015   6.464   2.847  0.4707 -0.1459  0.2423
 3301TIP3    H231395   0.144   6.388   2.870  0.6126  0.2184  0.6707
 3302TIP3   OH231396   4.430   4.412  16.754  0.3178 -0.1455 -0.2349
 3302TIP3    H131397   4.345   4.453  16.741  0.6256  0.2642 -0.9996
 3302TIP3    H231398   4.435   4.396  16.848 -1.0309 -1.1148 -0.2965
 3303TIP3   OH231399   4.946   3.468  15.461  0.3967  0.0787 -0.0441
 3303TIP3    H131400   4.884   3.467  15.534  0.4932 -1.9954  0.0543
 3303TIP3    H231401   5.031   3.451  15.501  0.8453  1.3713 -0.3780
 3304TIP3   OH231402   2.028   5.722   5.689 -0.0934 -0.1456 -0.0306
 3304TIP3    H131403   2.035   5.627   5.682 -0.5332 -0.2727  1.0854
 3304TIP3    H231404   2.068   5.744   5.773  1.3007  0.8312 -0.9115
 3305TIP3   OH231405   6.439   5.113   6.111  0.4111 -0.3647 -0.2271
 3305TIP3    H131406   6.374   5.115   6.181  0.6868  2.4447  0.0496
 3305TIP3    H231407   6.523   5.107   6.157  0.5320  0.2356 -0.3664
 3306TIP3   OH231408   5.698   3.090  14.726 -0.5787  0.0068 -0.1890
 3306TIP3    H131409   5.779   3.089  14.674 -0.9638 -0.9802 -0.8020
 3306TIP3    H231410   5.628   3.085  14.662 -1.0917 -0.1939  0.3809
 3307TIP3   OH231411   1.698   5.318   2.527  0.6446 -0.2246 -0.3727
 3307TIP3    H131412   1.751   5.391   2.558 -0.0842 -0.4458  1.5287
 3307TIP3    H231413   1.658   5.350   2.446  0.8507  1.2374  0.0757
 3308TIP3   OH231414   4.731   0.592  11.215 -0.1780 -0.7278  0.8876
 3308TIP3    H131415   4.728   0.497  11.204 -1.7267 -0.6365  0.2927
 3308TIP3    H231416   4.710   0.606  11.307 -0.7470 -0.9352  0.7942
 3309TIP3   OH231417   0.416   5.863  13.009 -0.2001 -0.2240  0.3193
 3309TIP3    H131418   0.398   5.941  12.956  0.0742 -0.9838 -0.9345
 3309TIP3    H231419   0.476   5.811  12.955  2.2394  0.1668  2.4821
 3310TIP3   OH231420   3.917   1.433  12.839  0.3020  0.2592  0.1381
 3310TIP3    H131421   3.869   1.364  12.884 -0.5602  1.2557  0.8009
 3310TIP3    H231422   3.938   1.496  12.908  2.2275  0.0503 -0.2174
 3311TIP3   OH231423   6.291   1.537   3.420  0.6474 -0.0771  0.0106
 3311TIP3    H131424   6.347   1.613   3.435  0.2593  0.6478 -1.9053
 3311TIP3    H231425   6.352   1.466   3.400  0.9430  0.4882 -1.1820
 3312TIP3   OH231426   1.033   5.571   2.929 -0.2369 -0.0529  0.4221
 3312TIP3    H131427   1.032   5.498   2.867  1.9569 -0.4102  0.7508
 3312TIP3    H231428   1.067   5.645   2.878  2.0045 -0.4553  1.2392
 3313TIP3   OH231429   3.176   1.682  14.495  0.4974  0.1343 -0.0510
 3313TIP3    H131430   3.196   1.613  14.558  1.3253  0.7605  0.4026
 3313TIP3    H231431   3.167   1.761  14.548  0.1104  0.4775 -0.6154
 3314TIP3   OH231432   6.331   4.856   5.731 -0.3656 -0.7416 -0.2585
 3314TIP3    H131433   6.345   4.948   5.709  0.2923 -0.4907  1.1072
 3314TIP3    H231434   6.258   4.829   5.675 -1.4359  0.9538  0.2505
 3315TIP3   OH231435   2.178   2.918   2.370 -0.1054 -0.2898  0.2463
 3315TIP3    H131436   2.223   2.869   2.301 -1.6920  0.8502 -1.7296
 3315TIP3    H231437   2.242   2.983   2.399  0.3987 -0.3838 -0.6162
 3316TIP3   OH231438   5.903   2.549   1.795  0.1601  0.0481  0.2148
 3316TIP3    H131439   5.971   2.595   1.843  2.0708 -0.9871 -1.3465
 3316TIP3    H231440   5.917   2.457   1.815 -2.0813 -0.0881  1.4050
 3317TIP3   OH231441   2.171   0.354   4.360  0.0534 -0.3417  0.4346
 3317TIP3    H131442   2.240   0.338   4.296  1.1056 -1.1961  1.7378
 3317TIP3    H231443   2.093   0.316   4.321  0.3038  0.5497 -1.0223
 3318TIP3   OH231444   1.841   5.058   3.095  0.6834 -0.0177 -0.3329
 3318TIP3    H131445   1.852   5.025   3.184 -0.4531  1.6624  0.4758
 3318TIP3    H231446   1.931   5.069   3.062  1.1322  0.0947  0.8910
 3319TIP3   OH231447   5.684   1.175   0.796 -0.1429  0.1313 -0.1503
 3319TIP3    H131448   5.770   1.158   0.837  0.3466  1.5619 -0.5501
 3319TIP3    H231449   5.640   1.090   0.799 -0.0426  0.0400  3.0995
 3320TIP3   OH231450   6.424   0.306  14.081 -0.6647 -0.3315 -0.0374
 3320TIP3    H131451   6.475   0.343  14.153 -2.0996 -0.2217  0.9709
 3320TIP3    H231452   6.441   0.364  14.008  0.8733 -0.4768  0.1791
 3321TIP3   OH231453   2.413   6.710  11.299  0.5360  0.4072  0.3238
 3321TIP3    H131454   2.391   6.621  11.329  1.3851  0.6902  1.8899
 3321TIP3    H231455   2.465   6.747  11.371 -1.2904  2.8068  0.5237
 3322TIP3   OH231456   2.206   0.605  16.831  0.0898  0.3945 -0.4859
 3322TIP3    H131457   2.168   0.550  16.900  0.0712 -2.1691 -2.3898
 3322TIP3    H231458   2.132   0.625  16.773 -0.0487  3.1256  0.4764
 3323TIP3   OH231459   2.332   4.383  13.068 -0.0176  0.1255 -0.5566
 3323TIP3    H131460   2.266   4.445  13.036  0.7784  0.3205 -1.8562
 3323TIP3    H231461   2.370   4.427  13.145  0.5866  1.3254 -1.4971
 3324TIP3   OH231462   5.671   5.696  14.771 -0.2738  0.4832  0.7030
 3324TIP3    H131463   5.759   5.730  14.754  1.0078 -2.2847  1.2409
 3324TIP3    H231464   5.647   5.649  14.691 -1.6317  1.7911  0.2917
 3325TIP3   OH231465   2.114   4.288   0.822  0.2781  0.6928 -0.7040
 3325TIP3    H131466   2.201   4.260   0.793  1.1605  0.7636  1.6560
 3325TIP3    H231467   2.125   4.379   0.847 -0.1353  0.3828  0.7365
 3326TIP3   OH231468   6.588   4.270  16.159 -0.1387  0.0078 -0.3414
 3326TIP3    H131469   6.501   4.249  16.124 -0.4364  0.9779 -0.2178
 3326TIP3    H231470   6.628   4.326  16.092 -0.7269  1.9084  0.8057
 3327TIP3   OH231471   4.131   0.763  16.425 -0.2746 -0.2381  0.1964
 3327TIP3    H131472   4.226   0.774  16.419 -0.1342 -0.5706  1.4489
 3327TIP3    H231473   4.098   0.849  16.450 -0.2606 -0.2121  0.1246
 3328TIP3   OH231474   1.085   2.405   5.701 -0.1848  0.3852 -0.0921
 3328TIP3    H131475   1.180   2.399   5.714 -0.0623  0.7610 -0.7222
 3328TIP3    H231476   1.068   2.352   5.623 -0.7526 -1.0955  1.0139
 3329TIP3   OH231477   0.976   4.760   2.008  0.1278  0.0575  0.1466
 3329TIP3    H131478   1.000   4.678   2.051 -0.7470 -0.1197  0.3249
 3329TIP3    H231479   0.991   4.828   2.075 -0.9736 -0.1867  0.6591
 3330TIP3   OH231480   4.245   1.260   6.630 -0.0987 -0.0303 -0.2985
 3330TIP3    H131481   4.313   1.196   6.608  1.9853  0.8936  2.8388
 3330TIP3    H231482   4.282   1.345   6.604 -0.3484  0.4146  0.7345
 3331TIP3   OH231483   3.370   0.273   2.415  0.1348  0.2920 -0.7975
 3331TIP3    H131484   3.320   0.195   2.390  0.5354 -0.5174  0.7778
 3331TIP3    H231485   3.310   0.324   2.469 -0.1295  1.1350 -1.8299
 3332TIP3   OH231486   4.423   0.950  11.707  0.1698  0.1344  0.4870
 3332TIP3    H131487   4.405   0.903  11.789 -1.2804 -1.5361 -0.7348
 3332TIP3    H231488   4.340   0.949  11.660  1.1853  0.2981 -1.3907
 3333TIP3   OH231489   3.632   2.231   4.603 -0.2150  0.4723 -0.3245
 3333TIP3    H131490   3.591   2.174   4.538  0.4424  0.9225 -1.1640
 3333TIP3    H231491   3.560   2.281   4.641 -0.6639 -0.1454 -0.3552
 3334TIP3   OH231492   3.899   5.126  14.970  0.1168  0.8595  0.8951
 3334TIP3    H131493   3.970   5.128  14.905 -0.3985  0.6625  0.3147
 3334TIP3    H231494   3.910   5.042  15.015 -1.6005 -0.7178 -1.3588
 3335TIP3   OH231495   3.900   6.438  15.401 -0.1139  0.3315  0.1963
 3335TIP3    H131496   3.815   6.438  15.357 -0.1932 -1.5123  0.2421
 3335TIP3    H231497   3.964   6.458  15.332 -0.3389 -1.3813 -0.5638
 3336TIP3   OH231498   6.263   6.465   3.766 -0.6599 -0.8221  0.4572
 3336TIP3    H131499   6.354   6.486   3.787 -0.5039 -0.7864 -0.2372
 3336TIP3    H231500   6.243   6.390   3.822  0.6209 -2.4623 -1.1589
 3337TIP3   OH231501   5.432   0.357  15.283 -0.1241 -0.3893  0.6378
 3337TIP3    H131502   5.440   0.290  15.215 -0.6368  0.7631 -0.5967
 3337TIP3    H231503   5.349   0.399  15.265  1.1480  2.0185 -0.0016
 3338TIP3   OH231504   5.251   2.082   1.383  0.0047  0.2482  0.1913
 3338TIP3    H131505   5.207   2.062   1.301  2.3235 -0.5020 -0.9746
 3338TIP3    H231506   5.286   2.171   1.370 -1.7448  1.1666  1.4108
 3339TIP3   OH231507   1.498   1.964   3.470  0.3076 -0.2716 -0.2827
 3339TIP3    H131508   1.472   1.872   3.474  0.3236 -0.2638  0.1107
 3339TIP3    H231509   1.574   1.965   3.411 -0.6011 -0.2827 -1.4832
 3340TIP3   OH231510   2.211   0.920  11.058  0.1670  0.3554 -0.4655
 3340TIP3    H131511   2.146   0.989  11.069  0.6488  0.9030 -1.0284
 3340TIP3    H231512   2.163   0.848  11.018 -0.2814  0.4438 -0.0993
 3341TIP3   OH231513   4.027   1.057  11.767  0.0250 -0.3341  0.3508
 3341TIP3    H131514   3.933   1.061  11.785  0.1551  0.7564  0.9172
 3341TIP3    H231515   4.068   1.087  11.848  0.8724 -0.9096  0.1473
 3342TIP3   OH231516   6.063   4.655  15.874  0.5022  0.1455 -0.3815
 3342TIP3    H131517   6.096   4.576  15.831 -0.1055 -0.0880 -0.4300
 3342TIP3    H231518   6.127   4.672  15.943 -0.5422 -1.7685  1.1822
 3343TIP3   OH231519   0.941   4.846  13.912 -0.0959  0.2196 -0.3110
 3343TIP3    H131520   1.014   4.810  13.862 -0.5007 -2.4078  0.8449
 3343TIP3    H231521   0.871   4.859  13.847  0.4365 -0.0282 -0.9425
 3344TIP3   OH231522   0.004   4.468   5.708  0.2788  0.6664 -0.0725
 3344TIP3    H131523  -0.065   4.425   5.658  2.4835 -1.6960 -1.3585
 3344TIP3    H231524   0.026   4.546   5.658 -0.6185  0.7627 -0.3242
 3345TIP3   OH231525   3.703   0.175  14.259 -0.8377 -0.4489 -0.1706
 3345TIP3    H131526   3.745   0.247  14.213  0.0321 -1.1772 -0.5508
 3345TIP3    H231527   3.628   0.215  14.303 -1.2846  0.4007 -1.6334
 3346TIP3   OH231528   6.485   5.587  13.575 -0.5030  0.1665 -0.2628
 3346TIP3    H131529   6.557   5.554  13.521  0.5569  1.3660  0.3618
 3346TIP3    H231530   6.415   5.522  13.564  0.7189 -1.1222 -0.7614
 3347TIP3   OH231531   2.854   1.374   0.653 -0.0034 -0.0078  0.0699
 3347TIP3    H131532   2.944   1.362   0.622 -0.0684 -2.0304  0.5637
 3347TIP3    H231533   2.851   1.326   0.736 -1.2965  0.8413  0.5367
 3348TIP3   OH231534   0.396   4.664  10.950 -0.6616  1.1504  0.1882
 3348TIP3    H131535   0.445   4.582  10.941 -0.0157  1.5006  0.4484
 3348TIP3    H231536   0.456   4.723  10.995 -1.5661  1.3911  1.0975
 3349TIP3   OH231537   1.662   3.433  13.724  0.0540 -0.5719 -0.4082
 3349TIP3    H131538   1.681   3.479  13.806  0.3366 -0.3482 -0.5982
 3349TIP3    H231539   1.635   3.502  13.664 -1.7898 -0.9030 -0.0385
 3350TIP3   OH231540   1.121   3.491  12.563 -0.0676 -0.4738  0.9880
 3350TIP3    H131541   1.124   3.536  12.648  0.3475  0.5641  0.4454
 3350TIP3    H231542   1.056   3.540  12.513 -0.3263 -1.0974  0.7141
 3351TIP3   OH231543   1.303   1.622   0.786 -0.2279 -0.0418 -0.0316
 3351TIP3    H131544   1.392   1.640   0.815  0.8643 -2.9800 -1.2116
 3351TIP3    H231545   1.302   1.648   0.694 -1.0378  1.1997  0.3037
 3352TIP3   OH231546   0.074   6.609   4.830  0.5858  0.3347  0.2549
 3352TIP3    H131547   0.094   6.570   4.915 -1.7202  0.6187  0.9812
 3352TIP3    H231548   0.044   6.697   4.850  1.5665  1.0005 -1.0301
 3353TIP3   OH231549   6.571   0.139  10.675  0.6698  0.1271 -0.7701
 3353TIP3    H131550   6.586   0.092  10.757  1.9481 -0.8328 -1.5152
 3353TIP3    H231551   6.476   0.139  10.664  0.4231  0.8015  0.9887
 3354TIP3   OH231552   3.502   0.089   1.524  0.2087  0.1843  0.1988
 3354TIP3    H131553   3.418   0.115   1.562 -0.2653 -0.2753 -0.4965
 3354TIP3    H231554   3.566   0.150   1.561 -0.6920  1.6586 -0.6001
 3355TIP3   OH231555   1.594   4.636  11.081 -0.6496  0.0040  0.2458
 3355TIP3    H131556   1.622   4.552  11.044 -1.5870  0.0820 -0.6663
 3355TIP3    H231557   1.510   4.655  11.039 -0.5610  1.2968  0.6007
 3356TIP3   OH231558   5.327   4.173   6.061 -0.9311 -0.5739 -0.2560
 3356TIP3    H131559   5.334   4.086   6.024 -2.0366 -1.0373  0.5598
 3356TIP3    H231560   5.272   4.222   5.999 -0.7002 -0.5915 -0.4749
 3357TIP3   OH231561   0.515   4.205   3.647 -0.3222 -0.0065  0.4905
 3357TIP3    H131562   0.533   4.154   3.568 -1.1676 -1.8473  1.4336
 3357TIP3    H231563   0.436   4.255   3.626 -0.7185 -0.7188  0.2595
 3358TIP3   OH231564   1.250   0.275  16.920 -0.2965 -0.0198  0.3007
 3358TIP3    H131565   1.295   0.329  16.855  1.3672 -3.7998 -1.9861
 3358TIP3    H231566   1.166   0.252  16.879  0.7074 -2.3180 -0.6268
 3359TIP3   OH231567   3.183   1.652   3.464  0.0151 -0.5845 -0.6022
 3359TIP3    H131568   3.143   1.573   3.426  1.0914 -1.0427 -0.8144
 3359TIP3    H231569   3.273   1.651   3.432 -0.1278  1.1047 -1.1582
 3360TIP3   OH231570   2.811   6.809  12.309 -0.5756 -0.2896  0.0889
 3360TIP3    H131571   2.868   6.732  12.309  1.1792  0.9260  0.1004
 3360TIP3    H231572   2.849   6.867  12.243 -0.4725  1.4736  1.6004
 3361TIP3   OH231573   2.976   1.464   6.383 -0.1525  0.1263  0.0906
 3361TIP3    H131574   2.928   1.537   6.343  2.5116  1.1803 -1.4399
 3361TIP3    H231575   3.013   1.502   6.463  2.1882  0.9163 -1.2848
 3362TIP3   OH231576   0.143   0.975   5.055 -0.1769 -1.2449  0.3140
 3362TIP3    H131577   0.213   0.953   5.116  0.7039 -0.7238 -0.4938
 3362TIP3    H231578   0.135   1.070   5.060 -1.4015 -1.3604  1.0018
 3363TIP3   OH231579   1.746   6.118  16.287 -0.3462  0.0682 -0.4113
 3363TIP3    H131580   1.709   6.204  16.266 -0.6383  0.0550  0.0382
 3363TIP3    H231581   1.675   6.072  16.332 -0.3263 -0.5564 -1.0136
 3364TIP3   OH231582   5.119   4.751  14.427 -0.2470 -0.2688 -0.6999
 3364TIP3    H131583   5.194   4.787  14.380  0.7552 -0.7099  0.4956
 3364TIP3    H231584   5.157   4.695  14.494 -1.6900 -1.3014 -0.6845
 3365TIP3   OH231585   5.258   1.362  15.847  0.2244  0.1188 -0.3496
 3365TIP3    H131586   5.286   1.293  15.908 -2.2578 -0.5320  0.1474
 3365TIP3    H231587   5.288   1.331  15.762  3.4862  0.8926  0.3828
 3366TIP3   OH231588   4.925   4.166  11.954  0.2514 -0.4446  0.0235
 3366TIP3    H131589   4.863   4.236  11.935  0.7120 -0.1706 -0.4767
 3366TIP3    H231590   4.932   4.117  11.872  0.1114 -0.9406  0.3025
 3367TIP3   OH231591   5.715   4.410  11.357  0.1628  0.3564 -0.0250
 3367TIP3    H131592   5.643   4.447  11.307 -0.1558 -1.9960 -1.4935
 3367TIP3    H231593   5.674   4.375  11.436 -0.4965 -1.4104 -1.0792
 3368TIP3   OH231594   2.221   0.290   2.985 -0.4044  0.2626 -0.2045
 3368TIP3    H131595   2.293   0.353   2.989 -0.1368 -0.0403 -0.0872
 3368TIP3    H231596   2.174   0.302   3.067 -0.1586  0.0914 -0.0344
 3369TIP3   OH231597   5.072   3.400   2.149 -0.3775 -0.1540 -0.2529
 3369TIP3    H131598   5.032   3.317   2.123  1.2300 -1.1504  0.3536
 3369TIP3    H231599   5.124   3.379   2.227 -1.1896  1.7594  0.8910
 3370TIP3   OH231600   0.068   6.486  11.454 -0.0080 -0.0292  0.0744
 3370TIP3    H131601   0.096   6.515  11.541  0.1493 -1.0341  0.3779
 3370TIP3    H231602   0.021   6.404  11.470 -0.7088  0.1980 -0.7133
 3371TIP3   OH231603   3.593   0.377  15.741 -0.4864 -0.1497 -0.5095
 3371TIP3    H131604   3.662   0.392  15.676 -1.0498  0.9320 -0.8880
 3371TIP3    H231605   3.627   0.308  15.797  0.9817  0.4737 -0.5911
 3372TIP3   OH231606   3.662   6.085  15.069 -0.5475 -0.2745  0.5790
 3372TIP3    H131607   3.669   5.990  15.071 -1.0307 -0.3117  0.6622
 3372TIP3    H231608   3.735   6.114  15.014  3.2700 -0.2854  4.9982
 3373TIP3   OH231609   1.551   0.648   2.548  0.1859 -0.2773 -0.0836
 3373TIP3    H131610   1.640   0.647   2.512  1.7102  0.2990  3.3134
 3373TIP3    H231611   1.539   0.737   2.582 -1.5294 -0.4934 -0.0186
 3374TIP3   OH231612   0.722   5.985   1.377  0.2176  0.3187 -0.0822
 3374TIP3    H131613   0.630   6.012   1.371 -0.1648 -1.0724 -1.3359
 3374TIP3    H231614   0.746   5.964   1.287  1.1749 -1.1717  0.4842
 3375TIP3   OH231615   5.573   4.762   6.318  0.0430  0.7556 -0.1102
 3375TIP3    H131616   5.511   4.800   6.255 -0.2714  0.9563  0.3221
 3375TIP3    H231617   5.571   4.820   6.393  0.9489  0.8957 -0.1884
 3376TIP3   OH231618   1.549   3.398  12.943  0.3266  0.0428 -0.3819
 3376TIP3    H131619   1.568   3.331  12.877 -0.8851 -1.2840  0.5507
 3376TIP3    H231620   1.612   3.468  12.925  0.6073 -0.6511 -2.3714
 3377TIP3   OH231621   1.529   3.347  13.487  0.2022  0.2810 -0.5049
 3377TIP3    H131622   1.577   3.378  13.410  2.0811 -0.3236  0.3791
 3377TIP3    H231623   1.562   3.400  13.559 -0.7984  0.1478  0.0619
 3378TIP3   OH231624   0.306   0.790  14.296  0.1711 -0.2109 -0.1093
 3378TIP3    H131625   0.388   0.818  14.336  0.1596  0.4323 -0.5178
 3378TIP3    H231626   0.296   0.847  14.219 -0.5795 -0.3786 -0.1431
 3379TIP3   OH231627   3.882   1.456   2.379 -0.2546  0.3036 -0.1695
 3379TIP3    H131628   3.818   1.400   2.423 -0.3832  0.3702 -0.2696
 3379TIP3    H231629   3.955   1.398   2.359 -0.1670  0.2889  0.1930
 3380TIP3   OH231630   1.722   6.682  14.990 -0.0947 -1.0027  1.1467
 3380TIP3    H131631   1.759   6.677  14.902 -0.7885  0.8304  0.7208
 3380TIP3    H231632   1.696   6.592  15.010 -0.4769 -1.3624 -0.7629
 3381TIP3   OH231633   4.484   6.722   1.198  0.1073 -0.2901 -0.5259
 3381TIP3    H131634   4.430   6.685   1.267 -1.9325  0.0336 -1.8462
 3381TIP3    H231635   4.492   6.652   1.133  1.3862 -0.3566 -0.3224
 3382TIP3   OH231636   1.763   2.904  15.425 -0.0105  0.0129  0.2413
 3382TIP3    H131637   1.714   2.840  15.477  0.9832 -0.5936  0.4533
 3382TIP3    H231638   1.729   2.989  15.455 -0.5579 -0.3749  0.7529
 3383TIP3   OH231639   6.563   5.290   3.732  0.7507 -0.1842 -0.6284
 3383TIP3    H131640   6.574   5.361   3.668  0.5671  0.5947  0.1749
 3383TIP3    H231641   6.477   5.253   3.712  0.3756  0.5309 -0.3998
 3384TIP3   OH231642   4.958   5.281   5.122 -0.5593 -0.0649  0.2363
 3384TIP3    H131643   4.888   5.342   5.148 -2.0316 -1.9225  0.8996
 3384TIP3    H231644   4.937   5.258   5.032 -0.4248 -0.1331  0.2225
 3385TIP3   OH231645   2.414   2.298   4.268  0.7284  0.1404  0.0256
 3385TIP3    H131646   2.402   2.390   4.294  0.8670  0.5887 -1.4398
 3385TIP3    H231647   2.357   2.287   4.192 -1.1101 -1.6586  1.5183
 3386TIP3   OH231648   0.821   4.646   1.202  0.0148  0.1074  0.3597
 3386TIP3    H131649   0.808   4.593   1.280 -0.8435 -1.9520 -1.1050
 3386TIP3    H231650   0.741   4.699   1.195 -0.9072 -1.3187 -0.2797
 3387TIP3   OH231651   1.337   6.125   4.943 -0.5066 -0.2253 -0.5393
 3387TIP3    H131652   1.317   6.066   4.870 -0.7856  2.8429 -3.1754
 3387TIP3    H231653   1.431   6.144   4.933 -0.8036  1.1240 -0.8578
 3388TIP3   OH231654   1.619   3.800   1.840  0.3595  0.3791 -0.2500
 3388TIP3    H131655   1.539   3.852   1.843 -0.0773 -0.2999  0.3760
 3388TIP3    H231656   1.690   3.864   1.833 -0.3044  0.9454 -2.7876
 3389TIP3   OH231657   5.717   3.034  12.891 -0.2609 -0.2424  0.6265
 3389TIP3    H131658   5.726   3.076  12.976  1.1057 -0.3152  0.5384
 3389TIP3    H231659   5.651   3.086  12.845 -1.4552 -0.5489  1.9184
 3390TIP3   OH231660   2.947   6.175  13.889  0.3429  0.2210  0.3783
 3390TIP3    H131661   2.977   6.109  13.825  0.5108  0.6087  0.0510
 3390TIP3    H231662   2.852   6.166  13.889  0.3719 -0.1230  0.4482
 3391TIP3   OH231663   6.062   1.489   1.641  0.1627 -0.6131 -0.4466
 3391TIP3    H131664   6.121   1.564   1.633 -0.6612 -0.0949 -2.1798
 3391TIP3    H231665   6.054   1.475   1.736 -0.5450  2.2372  0.0371
 3392TIP3   OH231666   5.917   1.639  15.596  0.6356  0.1347  0.4210
 3392TIP3    H131667   5.940   1.640  15.503  1.4680  1.0530  0.6241
 3392TIP3    H231668   5.833   1.594  15.599  0.8530 -0.3805 -0.7152
 3393TIP3   OH231669   1.111   2.322  11.226  0.2941 -0.0377 -0.2936
 3393TIP3    H131670   1.134   2.407  11.187 -1.0310 -0.2971 -1.7574
 3393TIP3    H231671   1.055   2.343  11.300 -0.1784  0.3777 -0.7617
 3394TIP3   OH231672   3.632   3.977  14.457  0.1740 -0.8790 -0.4879
 3394TIP3    H131673   3.726   3.973  14.474  0.0260 -2.9772  0.1906
 3394TIP3    H231674   3.625   4.013  14.368  1.4788  1.0197  0.1148
 3395TIP3   OH231675   0.501   3.541   1.781 -0.0438 -0.2527 -0.1926
 3395TIP3    H131676   0.454   3.552   1.698  0.1355 -1.8936 -0.5591
 3395TIP3    H231677   0.477   3.453   1.810  1.1466 -0.3122  0.6839
 3396TIP3   OH231678   6.678   4.349   0.401  0.0903 -0.5161 -0.1003
 3396TIP3    H131679   6.593   4.363   0.359  1.0328  3.3483 -1.1168
 3396TIP3    H231680   6.658   4.310   0.486 -2.6868  0.2551 -0.3229
 3397TIP3   OH231681   3.865   4.806  15.301  0.3776 -0.0817  0.0151
 3397TIP3    H131682   3.886   4.889  15.342  0.9752 -0.3580  0.2806
 3397TIP3    H231683   3.903   4.812  15.213  1.7665 -0.6294  0.5363
 3398TIP3   OH231684   5.977   0.429   0.757  0.2376  0.1000 -0.1167
 3398TIP3    H131685   6.038   0.398   0.824 -0.2678  1.5913  1.0711
 3398TIP3    H231686   5.894   0.442   0.803 -0.9743 -1.6324 -1.6520
 3399TIP3   OH231687   6.253   2.051   5.339  0.5235 -0.3220 -0.4633
 3399TIP3    H131688   6.210   1.994   5.276 -1.4000  1.6206 -1.0172
 3399TIP3    H231689   6.334   2.079   5.296 -0.8002  1.0497 -2.2267
 3400TIP3   OH231690   5.362   6.126  16.799  0.0870 -0.2065 -0.1753
 3400TIP3    H131691   5.377   6.217  16.773 -0.5435  0.0092  0.2009
 3400TIP3    H231692   5.439   6.103  16.849  0.2435  0.1275 -0.2563
 3401TIP3   OH231693   3.681   4.979   0.098  0.0057  0.0180 -0.5387
 3401TIP3    H131694   3.671   4.888   0.127  1.1712 -0.5824 -1.8786
 3401TIP3    H231695   3.629   5.030   0.160  1.6258 -1.2527  2.0417
 3402TIP3   OH231696   5.652   3.774   6.619  0.2684 -0.2874  0.2665
 3402TIP3    H131697   5.735   3.793   6.576  1.6519  0.3575  3.0034
 3402TIP3    H231698   5.641   3.845   6.682 -2.4215 -0.3425 -0.0413
 3403TIP3   OH231699   2.977   0.947   4.205  0.9072  0.5548  0.1187
 3403TIP3    H131700   2.940   0.987   4.126 -0.2959  0.6114  0.6995
 3403TIP3    H231701   2.923   0.870   4.220  2.2109 -0.4256 -0.0743
 3404TIP3   OH231702   4.515   1.339  16.255  0.3469  0.0449  0.1620
 3404TIP3    H131703   4.505   1.307  16.345  1.2086 -0.9283 -0.0709
 3404TIP3    H231704   4.589   1.400  16.260 -0.1947  0.7111  0.2718
 3405TIP3   OH231705   3.500   0.375   2.191 -1.0177  0.2084 -0.0191
 3405TIP3    H131706   3.475   0.317   2.263 -0.2327  0.4503  0.4605
 3405TIP3    H231707   3.451   0.456   2.208 -0.9462  0.2141  0.1609
 3406TIP3   OH231708   5.421   2.202  11.311 -0.1859  0.1600 -0.2718
 3406TIP3    H131709   5.433   2.297  11.313  0.2678  0.1181 -0.9451
 3406TIP3    H231710   5.400   2.182  11.220  0.7037 -0.4981 -0.3466
 3407TIP3   OH231711   1.400   3.939  16.096 -0.2167  0.0229 -0.1568
 3407TIP3    H131712   1.329   3.889  16.137 -1.8133  1.3933 -1.1005
 3407TIP3    H231713   1.371   3.954  16.006  0.4056  2.1694 -0.0652
 3408TIP3   OH231714   0.195   5.446  12.073 -0.4140 -0.0443 -0.3114
 3408TIP3    H131715   0.212   5.482  11.986 -0.7851 -0.0896 -0.4063
 3408TIP3    H231716   0.156   5.519  12.121  2.3242  0.8698  0.7156
 3409TIP3   OH231717   3.733   0.668   0.725 -0.6297  0.1571 -0.3913
 3409TIP3    H131718   3.772   0.750   0.695  0.2660 -0.4244 -0.8350
 3409TIP3    H231719   3.642   0.691   0.743 -1.0954  0.6418 -3.0607
 3410TIP3   OH231720   2.983   1.794  11.259  0.0105 -0.2511 -0.2528
 3410TIP3    H131721   3.016   1.705  11.266  0.3894 -0.2359 -1.4702
 3410TIP3    H231722   3.047   1.839  11.203 -1.9239 -0.1947 -2.6030
 3411TIP3   OH231723   2.842   1.645  12.257  0.5643 -0.2321  0.0795
 3411TIP3    H131724   2.762   1.654  12.310  0.7390  0.9991  0.1790
 3411TIP3    H231725   2.913   1.638  12.321  0.7082  0.5595  0.0172
 3412TIP3   OH231726   4.797   0.377   1.877 -0.1261 -0.0587  0.4262
 3412TIP3    H131727   4.886   0.398   1.905 -0.2898 -0.4354  1.2551
 3412TIP3    H231728   4.741   0.412   1.946 -0.5861 -0.3159  0.1902
 3413TIP3   OH231729   6.585   2.187   2.256  0.2091 -0.2350  0.1027
 3413TIP3    H131730   6.645   2.172   2.329  0.4698  0.4759  0.0367
 3413TIP3    H231731   6.520   2.117   2.264  0.6297 -0.5749  0.6040
 3414TIP3   OH231732   0.079   2.570   5.701  0.0714 -0.4589  0.3352
 3414TIP3    H131733   0.004   2.624   5.724 -0.4733 -1.1924  0.3082
 3414TIP3    H231734   0.045   2.480   5.700  0.5831 -0.6656 -1.1358
 3415TIP3   OH231735   5.082   6.588   1.496 -0.8578  0.2210  0.0357
 3415TIP3    H131736   5.125   6.503   1.486  0.1226  0.5964  0.8406
 3415TIP3    H231737   5.120   6.641   1.425 -1.0701  0.1422 -0.1376
 3416TIP3   OH231738   4.925   3.946   2.647 -0.0771  0.1156  0.4654
 3416TIP3    H131739   4.908   3.958   2.554 -1.4324 -2.6237  0.2565
 3416TIP3    H231740   4.838   3.952   2.688  0.2117 -0.7746  1.2467
 3417TIP3   OH231741   6.619   5.138  13.671  0.0357  0.1823 -0.0703
 3417TIP3    H131742   6.657   5.087  13.743 -0.3975 -0.6322 -0.4141
 3417TIP3    H231743   6.670   5.219  13.671  0.4558 -0.0633  0.7567
 3418TIP3   OH231744   6.104   5.445   4.218 -0.2053  0.6105  0.1423
 3418TIP3    H131745   6.158   5.367   4.226 -3.0432 -1.5319  0.0813
 3418TIP3    H231746   6.101   5.482   4.306 -0.6762 -0.7397  0.7176
 3419TIP3   OH231747   4.316   6.529   0.531  0.0079  0.1049  0.3888
 3419TIP3    H131748   4.274   6.444   0.545  0.9903 -0.5372 -0.3669
 3419TIP3    H231749   4.406   6.516   0.560  0.4645  0.5393 -0.7459
 3420TIP3   OH231750   6.273   0.249   1.179  0.0937 -0.1118  0.6414
 3420TIP3    H131751   6.305   0.252   1.269 -0.5648 -1.1151  0.9273
 3420TIP3    H231752   6.342   0.204   1.130 -0.5982 -1.8461  1.1630
 3421TIP3   OH231753   4.626   1.661  15.639  0.0980 -0.4557  0.9318
 3421TIP3    H131754   4.602   1.753  15.649  0.6436 -0.1483 -0.4114
 3421TIP3    H231755   4.722   1.661  15.636  0.0819 -0.9124 -0.2758
 3422TIP3   OH231756   5.559   5.039   1.893 -0.2349 -0.0612  0.4803
 3422TIP3    H131757   5.517   4.971   1.945  0.2821 -1.5675 -0.9891
 3422TIP3    H231758   5.638   5.061   1.942  0.6121 -1.9582  0.0458
 3423TIP3   OH231759   4.355   3.348   4.720 -0.0930  0.5927  0.0157
 3423TIP3    H131760   4.300   3.420   4.689  0.8577  1.0236 -0.7143
 3423TIP3    H231761   4.369   3.294   4.643 -0.3614 -0.0915  0.4421
 3424TIP3   OH231762   0.102   6.531   5.117 -0.5287  0.1280 -0.0077
 3424TIP3    H131763   0.191   6.496   5.124 -0.0810  1.0458 -0.9107
 3424TIP3    H231764   0.055   6.491   5.190  1.0957  1.0465  1.6244
 3425TIP3   OH231765   0.058   5.322  11.840 -0.1544  0.2957 -0.6357
 3425TIP3    H131766   0.105   5.336  11.922 -0.5623  0.5099 -0.4313
 3425TIP3    H231767  -0.035   5.329  11.864 -0.3053 -0.4525 -0.9647
 3426TIP3   OH231768   5.725   5.022  11.468 -0.2773  0.1138 -0.0272
 3426TIP3    H131769   5.634   5.047  11.455  0.0155  0.9165 -0.6672
 3426TIP3    H231770   5.768   5.102  11.498  0.4108  0.0308 -0.7487
 3427TIP3   OH231771   0.821   6.758   4.127 -0.0542 -0.6857 -0.2565
 3427TIP3    H131772   0.771   6.821   4.179  0.8996  1.9988 -2.3188
 3427TIP3    H231773   0.760   6.728   4.059  0.3284  0.6288 -1.2334
 3428TIP3   OH231774   1.129   0.016   4.409  0.4286 -0.0389 -0.4467
 3428TIP3    H131775   1.203   0.072   4.387  1.3488 -0.8340  0.5481
 3428TIP3    H231776   1.117  -0.041   4.333 -1.0543  1.9837 -1.8381
 3429TIP3   OH231777   3.422   2.435   6.081  0.3863 -0.0681 -0.5772
 3429TIP3    H131778   3.367   2.499   6.035  1.1630 -1.0764 -3.0167
 3429TIP3    H231779   3.445   2.370   6.015  1.1498 -1.9162  1.3813
 3430TIP3   OH231780   4.607   4.395   1.342 -0.3047 -0.4239  0.2258
 3430TIP3    H131781   4.671   4.373   1.275 -0.3903  0.2788 -0.1033
 3430TIP3    H231782   4.658   4.407   1.422  0.3077  2.0675 -0.4251
 3431TIP3   OH231783   1.036   5.305   3.067 -0.3278 -0.5175 -0.1111
 3431TIP3    H131784   1.049   5.400   3.070 -1.8842 -0.2956  0.3139
 3431TIP3    H231785   1.014   5.287   2.976 -0.6400 -0.3698 -0.0684
 3432TIP3   OH231786   5.402   4.896   2.082 -0.0059 -0.2800  0.1407
 3432TIP3    H131787   5.350   4.928   2.156 -1.0116 -0.8779 -0.2953
 3432TIP3    H231788   5.379   4.804   2.073 -0.2830 -0.1014 -1.2270
 3433TIP3   OH231789   2.070   2.392  11.591  0.5804  0.3814 -0.2877
 3433TIP3    H131790   2.158   2.395  11.553  0.6443 -1.1875 -0.3078
 3433TIP3    H231791   2.030   2.313  11.554 -1.2398  1.5790 -1.0840
 3434TIP3   OH231792   3.080   2.515   4.003 -0.0000  0.0764  0.3408
 3434TIP3    H131793   3.069   2.521   3.909  0.2959 -0.2762  0.2801
 3434TIP3    H231794   3.127   2.594   4.028 -1.3817  0.9138  0.4083
 3435TIP3   OH231795   2.845   2.534   6.079  0.2896  0.0654 -0.6438
 3435TIP3    H131796   2.894   2.568   6.154 -0.3344 -0.8105  0.2022
 3435TIP3    H231797   2.769   2.592   6.072  1.2555  1.2311 -1.7553
 3436TIP3   OH231798   1.586   1.161  16.423 -0.3728 -0.1874  0.7369
 3436TIP3    H131799   1.585   1.122  16.510 -0.7635  0.3231  0.9610
 3436TIP3    H231800   1.645   1.104  16.373  2.6100  1.3800  2.1875
 3437TIP3   OH231801   4.606   0.419  14.617 -0.1955 -0.4945 -0.3975
 3437TIP3    H131802   4.695   0.447  14.637  0.4774 -1.1811 -2.2149
 3437TIP3    H231803   4.592   0.342  14.672  0.3542 -0.4138 -0.1437
 3438TIP3   OH231804   0.426   1.769  10.650  0.3196 -0.2127  0.3107
 3438TIP3    H131805   0.403   1.754  10.741  0.1959 -0.8137  0.1806
 3438TIP3    H231806   0.347   1.806  10.610 -0.5765 -2.5103 -0.1986
 3439TIP3   OH231807   2.045   2.344   4.249  0.4252 -0.1728 -0.7101
 3439TIP3    H131808   1.974   2.347   4.184 -0.9039 -0.2516  0.7002
 3439TIP3    H231809   2.124   2.327   4.197 -0.7214 -1.1419 -2.2126
 3440TIP3   OH231810   0.884   2.805  10.425 -0.0558  0.3675 -0.2031
 3440TIP3    H131811   0.894   2.899  10.407 -0.3303  0.3646 -0.3903
 3440TIP3    H231812   0.925   2.792  10.510  0.9280  0.4638 -0.6553
 3441TIP3   OH231813   2.650   2.185  12.063 -0.6916 -0.2620  0.2464
 3441TIP3    H131814   2.647   2.132  12.143 -0.4952 -0.2691  0.2515
 3441TIP3    H231815   2.569   2.165  12.017 -0.9090 -0.0831  0.5561
 3442TIP3   OH231816   5.805   5.105   4.532 -0.3951 -0.6071  0.1753
 3442TIP3    H131817   5.726   5.104   4.587  0.2629 -0.6724  1.1427
 3442TIP3    H231818   5.863   5.040   4.573  0.9911  0.9264  0.7409
 3443TIP3   OH231819   2.794   3.005   3.473 -0.1093 -0.1952  0.4394
 3443TIP3    H131820   2.851   2.928   3.479  0.0099 -0.0095  2.9596
 3443TIP3    H231821   2.839   3.063   3.412  0.1760 -1.7860 -0.9287
 3444TIP3   OH231822   0.440   4.396  13.911  0.5993  0.0693 -0.0321
 3444TIP3    H131823   0.407   4.309  13.890  0.6730  0.1310 -0.4107
 3444TIP3    H231824   0.399   4.453  13.847 -0.8341  0.5905  1.3006
 3445TIP3   OH231825   1.311   4.006  15.077  0.1048  0.1917  0.0677
 3445TIP3    H131826   1.390   4.058  15.072  0.1481  0.0424 -0.9272
 3445TIP3    H231827   1.293   3.980  14.987 -0.2467 -1.0167  0.4643
 3446TIP3   OH231828   3.768   4.239  13.380 -0.3123  0.2587  0.4796
 3446TIP3    H131829   3.742   4.303  13.447 -0.7327 -0.0764  0.6453
 3446TIP3    H231830   3.704   4.168  13.390  0.1158 -0.1592  0.2639
 3447TIP3   OH231831   4.799   2.659   5.948 -0.2297 -0.2299 -0.4257
 3447TIP3    H131832   4.788   2.581   5.894 -0.9473 -0.2682 -0.2387
 3447TIP3    H231833   4.796   2.627   6.038 -2.2523  0.1699 -0.2954
 3448TIP3   OH231834   4.403   6.340   0.037  0.7984  0.3390  0.2295
 3448TIP3    H131835   4.479   6.392   0.009  0.8896 -0.3766 -0.9266
 3448TIP3    H231836   4.440   6.270   0.090  0.5667  2.0778  2.8802
 3449TIP3   OH231837   1.225   5.077   0.532  0.0541 -0.0316 -0.3975
 3449TIP3    H131838   1.293   5.071   0.465  1.0904  0.2125  0.6026
 3449TIP3    H231839   1.181   5.160   0.515 -0.5421 -0.5576 -1.5354
 3450TIP3   OH231840   2.065   4.333   4.126 -0.5382 -0.0311 -0.0236
 3450TIP3    H131841   2.132   4.271   4.097  0.7332  1.1005  0.4161
 3450TIP3    H231842   2.085   4.349   4.218 -0.0147  2.0270 -0.4515
 3451TIP3   OH231843   4.489   0.947   0.651  0.8156 -0.4723 -0.5384
 3451TIP3    H131844   4.443   1.020   0.608  1.2523  1.2477  1.7375
 3451TIP3    H231845   4.436   0.870   0.630 -1.4550  0.9699 -0.4936
 3452TIP3   OH231846   2.737   0.134  12.599  0.2184 -0.0549 -0.2584
 3452TIP3    H131847   2.773   0.223  12.606 -1.8508  0.7147  2.3542
 3452TIP3    H231848   2.688   0.134  12.516 -0.4840  1.5908  0.1160
 3453TIP3   OH231849   4.426   2.549  15.898 -0.0624 -0.1401 -0.3552
 3453TIP3    H131850   4.428   2.499  15.980  0.8472 -0.9695 -0.8627
 3453TIP3    H231851   4.487   2.622  15.913 -1.3016  0.7815  0.3444
 3454TIP3   OH231852   1.142   5.672  12.398 -0.0937  0.4754  0.0050
 3454TIP3    H131853   1.080   5.620  12.449  1.6844 -0.6722  1.1310
 3454TIP3    H231854   1.228   5.635  12.421  1.1513  3.0329 -0.2135
 3455TIP3   OH231855   5.427   6.139  14.754 -0.0917  0.0624  0.4813
 3455TIP3    H131856   5.482   6.109  14.682  1.9831 -0.3993  2.1700
 3455TIP3    H231857   5.341   6.152  14.714  0.6085 -1.5474 -1.7646
 3456TIP3   OH231858   5.297   1.026  14.147 -0.0406 -0.2025  0.2941
 3456TIP3    H131859   5.297   0.952  14.086  0.1052  0.0659 -0.0363
 3456TIP3    H231860   5.214   1.070  14.132 -0.3605 -0.6034  0.8697
 3457TIP3   OH231861   2.391   4.910  10.665 -0.4361 -0.5061  0.3432
 3457TIP3    H131862   2.406   4.885  10.573  0.2002 -0.4861  0.4343
 3457TIP3    H231863   2.297   4.902  10.677 -0.6306  0.2866 -0.5494
 3458TIP3   OH231864   4.506   3.424   2.753 -0.6397 -0.4897 -0.0629
 3458TIP3    H131865   4.567   3.492   2.724  0.4424 -1.0597  0.7956
 3458TIP3    H231866   4.508   3.359   2.684  2.0908 -1.9485  1.2246
 3459TIP3   OH231867   4.042   4.712   2.972  0.0284 -0.5608  0.3133
 3459TIP3    H131868   3.987   4.642   3.007 -1.2981  1.1464  1.7708
 3459TIP3    H231869   4.086   4.748   3.049  3.2122 -1.7742 -0.7746
 3460TIP3   OH231870   2.847   0.630  12.038 -0.0722 -0.1452 -0.0964
 3460TIP3    H131871   2.874   0.540  12.017  0.1363 -0.0138 -0.3927
 3460TIP3    H231872   2.904   0.685  11.986 -0.2088  0.1634  0.0784
 3461TIP3   OH231873   5.516   6.418  14.381 -0.3731 -0.1405 -0.5432
 3461TIP3    H131874   5.559   6.491  14.336 -2.1248  1.7491  0.6323
 3461TIP3    H231875   5.462   6.377  14.314 -1.2043  1.2045 -0.7477
 3462TIP3   OH231876   2.713   4.341  16.067  0.1808 -0.3648  0.0266
 3462TIP3    H131877   2.717   4.245  16.062  2.5497 -0.3089 -0.5552
 3462TIP3    H231878   2.739   4.370  15.980  1.2801  0.7874  0.7093
 3463TIP3   OH231879   1.695   6.561   5.248  0.2942  0.2906 -0.3864
 3463TIP3    H131880   1.781   6.603   5.242  2.4312 -3.7404 -1.3220
 3463TIP3    H231881   1.681   6.549   5.342  1.7611 -0.7449 -0.2652
 3464TIP3   OH231882   6.249   2.956  12.310  0.1668 -0.0624  0.1270
 3464TIP3    H131883   6.253   2.943  12.215  0.8653  0.4518  0.0757
 3464TIP3    H231884   6.295   2.880  12.346  0.2718 -0.0408  0.0382
 3465TIP3   OH231885   0.341   2.615   0.595 -0.0907 -0.5592 -0.7601
 3465TIP3    H131886   0.359   2.603   0.502 -0.7794 -0.7395 -0.8700
 3465TIP3    H231887   0.403   2.557   0.639 -1.0753 -1.9547 -1.1730
 3466TIP3   OH231888   5.687   4.372  16.437 -0.4288 -0.1833 -0.5207
 3466TIP3    H131889   5.598   4.342  16.423 -0.2440 -0.9913  0.0178
 3466TIP3    H231890   5.732   4.299  16.479 -0.1278  1.0130  1.3701
 3467TIP3   OH231891   6.135   0.607   1.489 -0.0441 -0.6585  0.3716
 3467TIP3    H131892   6.171   0.559   1.564  1.7106  1.8539  1.3010
 3467TIP3    H231893   6.212   0.641   1.444 -1.1624 -0.0920 -1.1910
 3468TIP3   OH231894   5.577   4.502  13.950  0.2923 -0.1380  0.2969
 3468TIP3    H131895   5.505   4.521  13.889 -0.1666 -2.4199  0.0388
 3468TIP3    H231896   5.654   4.540  13.908 -0.5904  1.6379  0.1826
 3469TIP3   OH231897   3.565   4.092  16.394  0.2329 -0.2753  0.4102
 3469TIP3    H131898   3.538   4.084  16.302 -0.7787  0.4475  0.6211
 3469TIP3    H231899   3.534   4.011  16.435 -1.7286  0.5134  0.6342
 3470TIP3   OH231900   5.029   6.361  14.477 -0.4189 -0.1630  0.5788
 3470TIP3    H131901   5.032   6.428  14.409 -0.1396 -0.2479  0.5074
 3470TIP3    H231902   4.944   6.375  14.520  1.1672  2.8423  3.1986
 3471TIP3   OH231903   3.918   6.150   1.460 -0.2498 -0.3967 -0.4716
 3471TIP3    H131904   3.988   6.192   1.410 -0.8370  0.3353 -0.6998
 3471TIP3    H231905   3.952   6.144   1.550 -0.0060  0.2143 -0.5212
 3472TIP3   OH231906   1.757   0.411  16.470 -0.4689 -0.9943 -0.0140
 3472TIP3    H131907   1.831   0.464  16.440 -2.1684  0.1007 -2.6744
 3472TIP3    H231908   1.712   0.466  16.534  1.3940 -2.0326  2.3349
 3473TIP3   OH231909   5.899   3.170  11.644  0.0168  0.8413  0.3987
 3473TIP3    H131910   5.920   3.100  11.582 -1.3833 -1.6145  2.5256
 3473TIP3    H231911   5.886   3.248  11.588  0.2094 -0.8703 -2.2180
 3474TIP3   OH231912   1.912   3.635   3.737 -0.4174  0.6116 -0.7700
 3474TIP3    H131913   1.817   3.633   3.731 -0.3794  0.2622 -1.3063
 3474TIP3    H231914   1.938   3.714   3.688 -0.5913  2.4694  1.9148
 3475TIP3   OH231915   3.132   1.391   4.434 -0.3165 -0.0299 -0.0713
 3475TIP3    H131916   3.129   1.314   4.490  0.4446  0.2201  0.3259
 3475TIP3    H231917   3.206   1.376   4.375 -0.2699  0.3107 -0.1065
 3476TIP3   OH231918   3.194   1.316   4.755  0.3743 -0.1055 -0.6412
 3476TIP3    H131919   3.155   1.402   4.773  1.7487  0.4418 -0.1323
 3476TIP3    H231920   3.274   1.336   4.706  0.6467 -1.1000 -0.6219
 3477TIP3   OH231921   1.072   2.821   4.152 -0.1835  0.3460  0.5838
 3477TIP3    H131922   1.004   2.877   4.190  0.6039  1.6173  0.1896
 3477TIP3    H231923   1.147   2.879   4.138 -0.0564 -0.2658 -1.9072
 3478TIP3   OH231924   2.780   2.722   4.712  0.4856  0.0627 -0.1564
 3478TIP3    H131925   2.767   2.652   4.647  1.2024  0.3786 -0.6599
 3478TIP3    H231926   2.705   2.715   4.770  0.9685 -1.6790  0.3140
 3479TIP3   OH231927   6.057   2.576  14.186  0.4475  0.3472 -0.5207
 3479TIP3    H131928   5.982   2.626  14.154  0.5165 -0.3388 -1.8429
 3479TIP3    H231929   6.057   2.589  14.280 -0.3325  1.7216 -0.6853
 3480TIP3   OH231930   3.584   2.399   5.246  0.5943  0.1320 -0.2944
 3480TIP3    H131931   3.577   2.317   5.198  0.3354  0.5142 -0.9330
 3480TIP3    H231932   3.590   2.466   5.177 -0.8128  0.7813  0.1853
 3481TIP3   OH231933   2.396   2.669  15.981 -0.1740  0.0045 -0.4772
 3481TIP3    H131934   2.376   2.694  15.891 -0.8791  1.1534 -0.0343
 3481TIP3    H231935   2.354   2.584  15.993 -1.0132  0.3435 -0.9211
 3482TIP3   OH231936   0.932   2.892  16.507 -0.2667  0.2557  0.0865
 3482TIP3    H131937   0.877   2.813  16.502 -0.6947  0.5323  0.3283
 3482TIP3    H231938   1.019   2.859  16.528 -0.3654 -0.1842 -0.1886
 3483TIP3   OH231939   5.848   3.096  15.873 -0.2342  0.3746 -0.2763
 3483TIP3    H131940   5.809   3.078  15.958  1.0748 -1.3536 -0.0001
 3483TIP3    H231941   5.804   3.037  15.813 -0.3091  0.7399 -0.5847
 3484TIP3   OH231942   3.490   1.645  15.048  0.6655  0.1114 -0.1207
 3484TIP3    H131943   3.433   1.574  15.077  1.3827  0.0223  1.1667
 3484TIP3    H231944   3.439   1.725  15.065  0.4905 -0.0159 -0.0462
 3485TIP3   OH231945   2.950   4.578   4.678 -0.4693  0.5161  0.2372
 3485TIP3    H131946   2.913   4.585   4.590 -0.2278 -1.0391 -0.0186
 3485TIP3    H231947   2.874   4.579   4.737 -0.5676  2.9549  0.1603
 3486TIP3   OH231948   3.326   0.126  15.154  0.0149 -0.0130 -0.4414
 3486TIP3    H131949   3.340   0.173  15.237  1.8302  1.3096 -1.4230
 3486TIP3    H231950   3.231   0.116  15.148 -0.6013  3.9855 -0.3482
 3487TIP3   OH231951   0.055   4.176   0.157 -0.3850 -0.0809  0.1525
 3487TIP3    H131952   0.032   4.214   0.072  1.7463  0.0200 -0.4406
 3487TIP3    H231953  -0.022   4.189   0.211 -0.7711  2.5362 -0.8870
 3488TIP3   OH231954   6.236   1.844   2.479 -1.1078 -0.1143 -0.2866
 3488TIP3    H131955   6.145   1.873   2.487 -1.2863 -0.4256 -1.0414
 3488TIP3    H231956   6.230   1.750   2.462 -0.8336  0.2669 -3.1140
 3489TIP3   OH231957   3.371   6.430   3.559 -0.2811  0.0255 -0.1168
 3489TIP3    H131958   3.452   6.390   3.591 -0.6422  0.1335  0.9913
 3489TIP3    H231959   3.365   6.513   3.608 -1.8534 -0.7031  1.0223
 3490TIP3   OH231960   6.293   5.406  13.505  0.2395 -0.3406  0.0890
 3490TIP3    H131961   6.326   5.316  13.508 -0.2887 -0.5243  1.7615
 3490TIP3    H231962   6.199   5.396  13.486 -0.0010 -0.2340  1.1289
 3491TIP3   OH231963   5.202   6.779   1.666 -0.2315 -0.0608 -0.3513
 3491TIP3    H131964   5.220   6.721   1.592 -2.1090 -0.7211 -0.3402
 3491TIP3    H231965   5.256   6.745   1.737  0.0144 -0.7216 -0.8441
 3492TIP3   OH231966   5.094   1.689  16.966 -0.1073  0.0098 -0.5585
 3492TIP3    H131967   5.024   1.726  17.020  0.3671 -0.7829  0.6356
 3492TIP3    H231968   5.139   1.765  16.930 -1.7432  0.5465 -1.5933
 3493TIP3   OH231969   4.238   3.526  16.370  0.4737  0.5099 -0.0867
 3493TIP3    H131970   4.256   3.565  16.455  0.1619  1.6594 -0.5374
 3493TIP3    H231971   4.144   3.537  16.358  0.6353  1.0864 -0.9241
 3494TIP3   OH231972   4.605   1.760  11.115  0.1056  0.0203  0.6198
 3494TIP3    H131973   4.523   1.739  11.161  0.1159  0.1140  0.6809
 3494TIP3    H231974   4.647   1.826  11.170 -0.3022  0.7796  0.0313
 3495TIP3   OH231975   5.646   0.172   0.779 -0.2891  0.2437  0.2410
 3495TIP3    H131976   5.569   0.187   0.726 -0.0448  0.3807 -0.0773
 3495TIP3    H231977   5.665   0.257   0.818  1.0333  0.7760 -1.4775
 3496TIP3   OH231978   3.287   0.370  13.087  0.5807  0.4063 -0.4008
 3496TIP3    H131979   3.200   0.330  13.092  0.2390  1.2569  1.0419
 3496TIP3    H231980   3.278   0.439  13.021  0.4803 -0.2369 -1.0649
 3497TIP3   OH231981   5.502   5.343   2.867  0.2504  0.4424 -0.1140
 3497TIP3    H131982   5.408   5.327   2.869  0.3168  0.0257  1.3504
 3497TIP3    H231983   5.539   5.263   2.830  0.0706  0.2942  0.0214
 3498TIP3   OH231984   4.527   3.440   4.178  0.1499 -0.2608  0.5849
 3498TIP3    H131985   4.600   3.485   4.134  1.8295 -0.4357  2.9991
 3498TIP3    H231986   4.533   3.350   4.148 -1.6783  0.4597 -2.3388
 3499TIP3   OH231987   6.774   2.287   1.626 -0.2095 -0.7123  0.1847
 3499TIP3    H131988   6.719   2.276   1.704  0.4438 -0.4610  0.6919
 3499TIP3    H231989   6.812   2.374   1.637  2.2323 -1.8135  1.1060
 3500TIP3   OH231990   6.336   0.355   0.752 -0.8367  0.1063  0.7833
 3500TIP3    H131991   6.307   0.267   0.730  0.3373  0.1622 -1.2911
 3500TIP3    H231992   6.432   0.351   0.746 -0.7027  1.2877  1.6961
 3501TIP3   OH231993   6.824   3.542   5.019  0.5399  0.7242  0.3234
 3501TIP3    H131994   6.847   3.449   5.009 -0.2758  0.5269  0.1750
 3501TIP3    H231995   6.841   3.561   5.111 -5.0410 -1.3134  2.1851
 3502TIP3   OH231996   1.957   1.349   5.016 -0.1120 -0.3347  0.5173
 3502TIP3    H131997   1.869   1.311   5.022 -0.7709  0.7674 -1.3388
 3502TIP3    H231998   1.981   1.370   5.106 -2.5477  1.0284  0.9321
 3503TIP3   OH231999   4.917   5.577  16.611 -0.0052 -0.3081 -0.2016
 3503TIP3    H132000   5.007   5.577  16.643  0.1373  0.3004 -0.5741
 3503TIP3    H232001   4.864   5.600  16.688  0.1910 -0.3006 -0.0685
 3504TIP3   OH232002   2.186   4.291  12.293  0.0658  0.9724 -0.7442
 3504TIP3    H132003   2.227   4.262  12.375 -4.4615 -4.2275  0.2813
 3504TIP3    H232004   2.130   4.364  12.318  0.6907  1.1506  0.1789
 3505TIP3   OH232005   4.446   5.787  15.101  0.0941  0.0213 -0.0720
 3505TIP3    H132006   4.391   5.713  15.124 -1.0344  1.0476  0.6402
 3505TIP3    H232007   4.528   5.772  15.147 -0.0483 -0.8723 -0.0989
 3506TIP3   OH232008   1.091   4.151   0.817  0.5620  0.2090  0.1324
 3506TIP3    H132009   1.178   4.176   0.848  1.4041 -0.4593 -1.5504
 3506TIP3    H232010   1.063   4.225   0.762 -0.6354  1.1022  1.8627
 3507TIP3   OH232011   0.552   6.520  15.841 -0.1740  0.2934 -0.2691
 3507TIP3    H132012   0.480   6.464  15.812 -0.9105 -0.3399  2.4448
 3507TIP3    H232013   0.521   6.609  15.824 -0.5856 -0.0229 -1.2596
 3508TIP3   OH232014   1.041   1.967  14.288 -0.3013  0.6791 -0.4643
 3508TIP3    H132015   1.118   2.024  14.291  1.3917 -1.4769  2.4170
 3508TIP3    H232016   1.000   1.978  14.373 -2.9975  1.3578 -1.7482
 3509TIP3   OH232017   3.784   0.429   2.057 -0.5083 -0.5130  0.4530
 3509TIP3    H132018   3.703   0.425   2.108 -0.2424 -1.2634  0.8315
 3509TIP3    H232019   3.854   0.431   2.122 -0.1460 -1.8585  0.1510
 3510TIP3   OH232020   5.449   4.002   4.975 -0.1331 -0.0005  0.2606
 3510TIP3    H132021   5.453   4.095   4.999 -0.8056 -0.0550  0.5949
 3510TIP3    H232022   5.498   3.997   4.893  1.0057  0.4289  0.8865
 3511TIP3   OH232023   0.771   0.140   6.162  0.0007 -0.5433  0.0130
 3511TIP3    H132024   0.828   0.082   6.212  0.5149  1.5246  1.9682
 3511TIP3    H232025   0.830   0.206   6.125 -0.9372  1.0196  1.1863
 3512TIP3   OH232026   1.980   2.816   4.157  0.0978 -0.3296  0.4203
 3512TIP3    H132027   1.964   2.869   4.235  0.7945  0.2651  0.1753
 3512TIP3    H232028   1.973   2.726   4.187 -1.5039 -0.1251  0.7654
 3513TIP3   OH232029   1.964   0.763  12.251  0.2364 -0.3355 -0.8384
 3513TIP3    H132030   1.915   0.827  12.303  1.8374  0.6386 -0.4767
 3513TIP3    H232031   2.009   0.708  12.316  2.1568  0.8116 -1.1218
 3514TIP3   OH232032   5.083   0.551  14.104 -0.1348 -0.0184  0.0141
 3514TIP3    H132033   5.016   0.488  14.129 -0.7017  0.5168 -0.1441
 3514TIP3    H232034   5.037   0.635  14.100 -0.1048 -0.0470 -2.8059
 3515TIP3   OH232035   4.755   4.441  13.946  0.1362  0.0787  0.3468
 3515TIP3    H132036   4.801   4.515  13.985 -0.0361  1.0299 -1.1657
 3515TIP3    H232037   4.707   4.401  14.019  0.3619  1.3643  1.2288
 3516TIP3   OH232038   5.901   5.079  12.103  0.0744  0.2804  0.2592
 3516TIP3    H132039   5.932   5.117  12.021  0.8619 -0.0710  0.3871
 3516TIP3    H232040   5.946   5.128  12.172  0.9232 -0.6972  0.4278
 3517TIP3   OH232041   5.855   5.239  14.131  0.3360 -0.3646  0.0678
 3517TIP3    H132042   5.886   5.327  14.110  1.9998 -1.1159 -0.8750
 3517TIP3    H232043   5.868   5.231  14.225 -0.5698  0.6505  0.2982
 3518TIP3   OH232044   5.124   0.972   1.582 -0.2827  0.0875  0.1991
 3518TIP3    H132045   5.190   0.989   1.650  2.4830 -2.3909 -1.6159
 3518TIP3    H232046   5.079   1.056   1.571  2.6573  2.0223  1.5298
 3519TIP3   OH232047   2.741   5.964   0.597  0.8965  0.1525 -0.2515
 3519TIP3    H132048   2.815   5.990   0.651  2.4940  0.8125 -2.5708
 3519TIP3    H232049   2.761   5.874   0.572  0.5698  0.1023 -0.3307
 3520TIP3   OH232050   6.537   3.368  13.103  0.2558  0.0725  0.7550
 3520TIP3    H132051   6.555   3.374  13.009  1.2047  0.4133  0.9528
 3520TIP3    H232052   6.444   3.346  13.107  0.3480 -0.5829 -0.2710
 3521TIP3   OH232053   0.732   6.272  17.003  0.2765  0.2748  1.0294
 3521TIP3    H132054   0.812   6.220  17.002  0.5135  0.6352  0.8993
 3521TIP3    H232055   0.757   6.355  16.961 -0.7911 -0.5104 -1.2943
 3522TIP3   OH232056   5.817   2.644   2.122 -0.6804  0.6665  0.8117
 3522TIP3    H132057   5.890   2.643   2.061 -0.3903  0.3065  1.1516
 3522TIP3    H232058   5.842   2.580   2.189 -0.6325  1.6061  1.7221
 3523TIP3   OH232059   2.562   3.139  16.993  0.2320 -0.0466  0.1558
 3523TIP3    H132060   2.583   3.065  17.050 -1.4486 -0.7204 -0.0341
 3523TIP3    H232061   2.631   3.139  16.927  0.3116 -1.4046  0.2101
 3524TIP3   OH232062   4.536   3.212  14.416  0.8877 -0.1147  0.3088
 3524TIP3    H132063   4.524   3.292  14.468 -1.1832 -1.0231  1.3151
 3524TIP3    H232064   4.602   3.162  14.463 -0.1573 -0.4231  1.4756
 3525TIP3   OH232065   4.658   4.644   4.510  0.2283 -0.6204 -0.2496
 3525TIP3    H132066   4.696   4.724   4.475 -1.1466 -0.1931 -0.8322
 3525TIP3    H232067   4.717   4.618   4.581  0.0280  1.6000  0.8059
 3526TIP3   OH232068   3.327   1.068   0.447 -0.4123  0.6795  0.0584
 3526TIP3    H132069   3.314   1.040   0.356 -2.4637  2.2199 -0.1877
 3526TIP3    H232070   3.385   1.143   0.440  0.3471  0.1182  0.1641
 3527TIP3   OH232071   2.634   6.597  13.562  0.2864  0.4779  0.2927
 3527TIP3    H132072   2.666   6.517  13.604 -0.3556  1.1757  2.2213
 3527TIP3    H232073   2.690   6.666  13.597 -0.4046  1.1111  0.1600
 3528TIP3   OH232074   0.671   1.405   0.913  0.4222  0.4032 -0.2899
 3528TIP3    H132075   0.739   1.391   0.978 -0.0030 -0.3334  0.0015
 3528TIP3    H232076   0.654   1.318   0.876 -1.0697  0.3853  0.3565
 3529TIP3   OH232077   3.508   1.765   3.726  0.4607  0.9892  0.5890
 3529TIP3    H132078   3.455   1.828   3.678 -1.5635 -0.6972  0.4893
 3529TIP3    H232079   3.469   1.763   3.814 -1.2856 -1.9645 -0.1364
 3530TIP3   OH232080   2.737   6.265   1.259 -0.3800 -0.3926  0.0894
 3530TIP3    H132081   2.807   6.228   1.313  0.8803  2.6855  0.7818
 3530TIP3    H232082   2.750   6.226   1.173  2.3036  0.1457  0.1675
 3531TIP3   OH232083   4.640   5.119  15.625  0.2672  0.2599  0.6132
 3531TIP3    H132084   4.627   5.025  15.616  0.1555  0.2839  0.5100
 3531TIP3    H232085   4.694   5.143  15.550 -0.5623  0.4416  0.0596
 3532TIP3   OH232086   0.268   0.047  11.078 -0.4549  0.3105  0.3504
 3532TIP3    H132087   0.357   0.046  11.112 -0.8470 -1.6911  1.5194
 3532TIP3    H232088   0.223   0.113  11.132 -0.0650  0.1360  0.8995
 3533TIP3   OH232089   4.824   0.090   0.983 -0.0739 -0.3386 -0.1798
 3533TIP3    H132090   4.916   0.093   1.008 -0.7470 -1.9665  3.0231
 3533TIP3    H232091   4.777   0.124   1.060 -2.2993 -4.1643  0.4381
 3534TIP3   OH232092   4.848   2.023   5.432 -0.2157 -0.0268 -0.1053
 3534TIP3    H132093   4.819   2.062   5.350 -0.2673 -0.1992 -0.1693
 3534TIP3    H232094   4.943   2.021   5.425 -0.2565 -1.0082 -0.6141
 3535TIP3   OH232095   0.106   4.400  14.669 -0.1495 -1.0259 -0.0196
 3535TIP3    H132096   0.154   4.447  14.601 -1.4064  0.3745  0.0133
 3535TIP3    H232097   0.021   4.445  14.675 -0.1640 -1.2128  2.3322
 3536TIP3   OH232098   6.312   1.683  15.496  0.3085 -0.6445  0.4469
 3536TIP3    H132099   6.347   1.762  15.455 -1.5526 -0.4583 -0.8724
 3536TIP3    H232100   6.310   1.618  15.426 -1.9603 -0.6292  0.4237
 3537TIP3   OH232101   0.910   2.015  13.386 -0.1297 -0.2526 -0.5824
 3537TIP3    H132102   0.943   1.927  13.401  1.5847  0.1322 -1.7828
 3537TIP3    H232103   0.876   2.013  13.296  0.0609  0.3251 -0.6785
 3538TIP3   OH232104   5.650   2.083   3.326 -0.0361 -0.2396 -0.2560
 3538TIP3    H132105   5.679   2.049   3.411 -1.1279  0.8512  0.5906
 3538TIP3    H232106   5.595   2.013   3.290  0.1411 -0.5716  0.1072
 3539TIP3   OH232107   3.680   4.196  12.507 -0.9986  0.1648 -0.1680
 3539TIP3    H132108   3.740   4.125  12.484 -2.2390 -1.0056  0.1169
 3539TIP3    H232109   3.627   4.161  12.579 -1.0681  1.6944  0.5767
 3540TIP3   OH232110   1.263   4.186  16.256  0.4700  0.2726  0.3273
 3540TIP3    H132111   1.267   4.105  16.206 -1.4752  0.7764 -0.7568
 3540TIP3    H232112   1.354   4.205  16.278  1.0188 -1.9438  0.2401
 3541TIP3   OH232113   3.006   0.410  12.387 -0.5493  0.2132  0.0441
 3541TIP3    H132114   3.099   0.392  12.371 -0.3311  1.4311 -0.0964
 3541TIP3    H232115   2.964   0.392  12.303 -0.2851  0.6922 -0.1922
 3542TIP3   OH232116   1.432   1.596   1.104  0.4097  0.2205 -0.7431
 3542TIP3    H132117   1.447   1.509   1.142 -0.2571  0.5428  0.3031
 3542TIP3    H232118   1.346   1.588   1.062  1.1858 -0.1613 -2.3064
 3543TIP3   OH232119   4.499   5.341  16.447 -0.3634 -0.0479 -0.3277
 3543TIP3    H132120   4.512   5.329  16.353  0.3869  1.2847 -0.4211
 3543TIP3    H232121   4.485   5.252  16.481 -0.3957 -0.5716 -1.6503
 3544TIP3   OH232122   5.054   1.502  12.408 -0.4260 -0.6258  0.5934
 3544TIP3    H132123   5.097   1.428  12.451  0.2429 -1.4679 -1.4239
 3544TIP3    H232124   5.119   1.572  12.410  0.1099 -1.0895 -0.2002
 3545TIP3   OH232125   5.961   6.250  14.119  0.4599  0.2639 -0.3954
 3545TIP3    H132126   6.033   6.222  14.175 -1.4496 -0.7556  1.6711
 3545TIP3    H232127   5.901   6.176  14.117 -1.2083  1.5486 -0.8932
 3546TIP3   OH232128   4.909   1.272   3.258  0.2269  0.0169  0.4850
 3546TIP3    H132129   4.934   1.271   3.350  0.9048 -0.1638  0.3036
 3546TIP3    H232130   4.813   1.277   3.259 -0.0695 -3.2634  1.2592
 3547TIP3   OH232131   4.576   0.499  12.922  1.4538  0.7047 -0.4770
 3547TIP3    H132132   4.612   0.488  12.834 -1.0671  1.6442 -1.7273
 3547TIP3    H232133   4.489   0.535  12.908  1.3800  1.9969  2.4800
 3548TIP3   OH232134   4.163   4.263  11.730 -0.2662 -0.4440 -0.2376
 3548TIP3    H132135   4.135   4.199  11.664 -0.8449  1.1029 -1.5562
 3548TIP3    H232136   4.211   4.329  11.680 -2.9341  2.1427  0.3648
 3549TIP3   OH232137   1.243   3.931   0.008  0.1113  0.0259 -0.6935
 3549TIP3    H132138   1.292   4.001   0.050 -2.3144  0.4720  1.7047
 3549TIP3    H232139   1.270   3.852   0.055  0.2668 -0.0991 -0.9923
 3550TIP3   OH232140   0.936   1.317  16.494 -0.0009  0.1248 -0.0051
 3550TIP3    H132141   0.874   1.262  16.446 -0.1411 -1.5374  1.9495
 3550TIP3    H232142   0.973   1.375  16.427 -0.1499 -2.0339 -2.1217
 3551TIP3   OH232143   0.086   3.842   0.549  0.3472 -0.4483  0.2027
 3551TIP3    H132144   0.037   3.775   0.502 -2.4608 -0.3025  2.5929
 3551TIP3    H232145   0.169   3.800   0.573  0.8209 -1.2862 -2.5839
 3552TIP3   OH232146   4.845   0.894  13.812 -0.2561  0.2783 -0.3535
 3552TIP3    H132147   4.766   0.908  13.761 -0.5356 -0.9270 -0.2945
 3552TIP3    H232148   4.917   0.914  13.753 -0.5682 -1.2573 -1.3157
 3553TIP3   OH232149   2.812   2.912  12.845 -0.0235 -0.2223 -0.1819
 3553TIP3    H132150   2.807   3.007  12.859 -2.8051 -0.5893  2.1318
 3553TIP3    H232151   2.784   2.901  12.754 -1.2807  1.0872  0.0091
 3554TIP3   OH232152   4.524   5.946   5.488 -0.7890 -0.8272  0.6913
 3554TIP3    H132153   4.585   5.968   5.558  0.0850 -2.0778  0.3600
 3554TIP3    H232154   4.577   5.946   5.408 -1.4875 -0.6947  0.2110
 3555TIP3   OH232155   6.769   1.425   5.784 -0.0452 -0.3491  1.0088
 3555TIP3    H132156   6.800   1.490   5.722 -0.8348  0.1908  1.1566
 3555TIP3    H232157   6.743   1.475   5.862 -2.4077 -0.5614  0.4582
 3556TIP3   OH232158   5.351   2.500  10.863 -0.1355  0.3698 -0.2697
 3556TIP3    H132159   5.302   2.442  10.805  0.0669 -0.8900  0.7513
 3556TIP3    H232160   5.433   2.453  10.880 -0.3252  0.5281  1.2737
 3557TIP3   OH232161   0.680   3.452   3.200  0.2468 -0.1054  0.3428
 3557TIP3    H132162   0.675   3.447   3.105  1.8409  0.4171  0.2018
 3557TIP3    H232163   0.665   3.545   3.220 -1.6753 -0.4552  0.7634
 3558TIP3   OH232164   2.977   1.108   3.658 -0.2071 -0.5386 -0.4306
 3558TIP3    H132165   3.040   1.179   3.664  1.5632 -2.0689 -0.1468
 3558TIP3    H232166   2.915   1.125   3.729 -0.5961  1.3779 -1.1654
 3559TIP3   OH232167   3.612   5.679  12.004  0.4375  0.5438 -0.0025
 3559TIP3    H132168   3.583   5.753  11.950  0.2073  1.4305  1.2873
 3559TIP3    H232169   3.588   5.602  11.953 -0.4627  1.3322 -0.8216
 3560TIP3   OH232170   6.712   2.435  16.205  0.4570  0.8541  0.8228
 3560TIP3    H132171   6.627   2.401  16.178  2.5687 -2.4219 -2.6123
 3560TIP3    H232172   6.737   2.382  16.280  0.8364 -0.6269 -0.3071
 3561TIP3   OH232173   2.875   3.655  11.844 -0.1286  0.2190  0.0118
 3561TIP3    H132174   2.924   3.698  11.914  0.5140  1.1157 -0.9424
 3561TIP3    H232175   2.905   3.565  11.846  2.8689  1.0371 -1.5051
 3562TIP3   OH232176   5.208   1.898  15.176  0.3374 -0.0442  0.0115
 3562TIP3    H132177   5.118   1.870  15.193 -0.8570  2.5960 -1.4103
 3562TIP3    H232178   5.241   1.836  15.112 -0.0101 -1.7067  1.3594
 3563TIP3   OH232179   1.190   3.135  11.360 -0.4064 -0.2748  0.3097
 3563TIP3    H132180   1.139   3.059  11.332 -2.3720  1.1915 -0.3155
 3563TIP3    H232181   1.125   3.198  11.391  1.2701  0.5961  2.2857
 3564TIP3   OH232182   1.781   3.057  15.709 -0.8821 -0.3075  0.0020
 3564TIP3    H132183   1.701   3.062  15.656  0.7867  1.4011 -2.5792
 3564TIP3    H232184   1.804   2.964  15.710 -1.5576 -0.5112 -1.3834
 3565TIP3   OH232185   3.673   2.210   6.410 -0.1599 -0.1944 -0.5283
 3565TIP3    H132186   3.762   2.187   6.383  0.3374 -1.5392  1.9364
 3565TIP3    H232187   3.684   2.293   6.458 -0.0271 -0.8143  0.5586
 3566TIP3   OH232188   1.430   4.260  15.526 -0.6432  0.3298  0.2395
 3566TIP3    H132189   1.396   4.321  15.460 -1.3496 -0.0903  0.1959
 3566TIP3    H232190   1.434   4.311  15.606  1.0436  1.0920 -0.2879
 3567TIP3   OH232191   3.862   2.841   2.296 -0.0446 -0.5934  0.3806
 3567TIP3    H132192   3.885   2.911   2.235 -1.6167  1.0320  1.5559
 3567TIP3    H232193   3.915   2.858   2.373 -0.8587 -0.3123  0.8933
 3568TIP3   OH232194   5.874   6.286  15.994 -0.4373  0.1615 -0.0469
 3568TIP3    H132195   5.782   6.312  15.995 -1.0807 -1.9345 -0.3611
 3568TIP3    H232196   5.892   6.258  16.084  0.1143  1.2100  0.1832
 3569TIP3   OH232197   4.492   6.321  15.532  0.3208 -0.1921 -1.1644
 3569TIP3    H132198   4.484   6.383  15.459 -1.2055  1.2808  0.1433
 3569TIP3    H232199   4.410   6.272  15.529  1.1274 -1.5491 -1.6211
 3570TIP3   OH232200   2.163   6.841  11.539 -0.1702  0.4138  0.3367
 3570TIP3    H132201   2.196   6.867  11.625  0.5978 -0.0357  0.1868
 3570TIP3    H232202   2.117   6.758  11.555  0.6892 -0.1012  0.1853
 3571TIP3   OH232203   0.125   1.081   2.388 -0.2475 -0.6733 -0.2579
 3571TIP3    H132204   0.076   1.140   2.446  0.0799  0.9354 -1.5464
 3571TIP3    H232205   0.214   1.116   2.388 -0.1934 -0.7642 -1.5307
 3572TIP3   OH232206   4.412   3.955  11.471 -0.0161 -0.2660  0.2905
 3572TIP3    H132207   4.355   3.937  11.547 -0.9221  0.4967 -0.1832
 3572TIP3    H232208   4.486   3.896  11.483 -0.7098 -1.0127  1.1523
 3573TIP3   OH232209   6.491   4.123  12.616 -1.0107 -0.7060 -0.2292
 3573TIP3    H132210   6.491   4.097  12.709 -0.0401 -0.7591 -0.2335
 3573TIP3    H232211   6.531   4.210  12.616  1.0400 -1.5828 -0.7975
 3574TIP3   OH232212   1.860   3.369   2.290  0.1701  0.2069 -0.5884
 3574TIP3    H132213   1.834   3.283   2.254 -0.4189  0.2951 -0.3863
 3574TIP3    H232214   1.955   3.364   2.298  0.0364 -0.9483  0.7132
 3575TIP3   OH232215   3.672   1.721  15.540 -0.0742  0.1854 -0.8323
 3575TIP3    H132216   3.598   1.756  15.491 -0.8116  1.1536  0.9219
 3575TIP3    H232217   3.728   1.796  15.557  1.0059 -0.4230 -1.5433
 3576TIP3   OH232218   0.010   0.779   4.890 -0.1431  0.2790  0.7598
 3576TIP3    H132219  -0.078   0.815   4.873 -0.2715 -0.1287  0.5330
 3576TIP3    H232220   0.060   0.853   4.924 -0.2044  0.8543 -0.3603
 3577TIP3   OH232221   0.337   3.747  11.740 -0.5043 -0.0458 -0.1215
 3577TIP3    H132222   0.298   3.744  11.652  1.0481  0.5038 -0.8868
 3577TIP3    H232223   0.363   3.657  11.758  1.0004  0.1227 -1.1688
 3578TIP3   OH232224   3.750   1.205   2.471 -0.3747  0.9941 -0.2376
 3578TIP3    H132225   3.707   1.206   2.386 -1.6757 -0.8469  0.3514
 3578TIP3    H232226   3.815   1.135   2.464 -1.6812 -0.3834  0.7826
 3579TIP3   OH232227   6.157   5.767  12.606  0.2067  0.3552  0.0321
 3579TIP3    H132228   6.129   5.847  12.650 -0.0712 -0.6404  1.8028
 3579TIP3    H232229   6.181   5.794  12.518  1.0627  2.5531  0.8726
 3580TIP3   OH232230   2.213   1.458  11.275  0.1445  0.3166  0.4357
 3580TIP3    H132231   2.132   1.478  11.227  0.2231  0.4617  0.3600
 3580TIP3    H232232   2.197   1.374  11.317 -0.4460  0.8605  1.3175
 3581TIP3   OH232233   6.012   5.388   5.074  0.1073  0.2489 -0.7815
 3581TIP3    H132234   6.007   5.477   5.039  0.3669  0.2417 -0.8392
 3581TIP3    H232235   5.961   5.335   5.013 -1.8461  0.6902  0.3792
 3582TIP3   OH232236   4.829   2.036  14.463  0.1199  0.6210 -0.1921
 3582TIP3    H132237   4.853   1.947  14.437  2.3133  1.3917 -1.0010
 3582TIP3    H232238   4.742   2.049  14.425 -0.0433 -1.0070 -0.4525
 3583TIP3   OH232239   6.751   1.112   3.063  0.1025  0.6912  0.0490
 3583TIP3    H132240   6.798   1.030   3.044  0.3763  0.9416 -0.3722
 3583TIP3    H232241   6.723   1.103   3.154 -1.6303 -0.7335 -0.5713
 3584TIP3   OH232242   4.183   5.254  11.393 -0.4043 -0.0222 -0.1991
 3584TIP3    H132243   4.175   5.164  11.422 -0.7533 -0.4831 -1.6515
 3584TIP3    H232244   4.226   5.248  11.308  0.4771  1.2687  0.1165
 3585TIP3   OH232245   2.738   1.634  13.446 -0.1423  0.3220  0.6097
 3585TIP3    H132246   2.817   1.581  13.451 -0.7559 -0.5315  1.9905
 3585TIP3    H232247   2.765   1.721  13.476 -0.1388 -0.5235  3.2911
 3586TIP3   OH232248   5.032   2.429  15.563  0.4398 -0.2583  0.2124
 3586TIP3    H132249   5.054   2.488  15.491  2.6273 -0.5446  0.5858
 3586TIP3    H232250   4.948   2.390  15.537 -0.1320  1.6043 -0.9048
 3587TIP3   OH232251   4.060   4.182   1.978 -0.2686  0.8071 -0.0741
 3587TIP3    H132252   4.147   4.168   2.016 -0.3927  1.2039  0.3563
 3587TIP3    H232253   4.075   4.183   1.883  0.0394 -0.2008 -0.0489
 3588TIP3   OH232254   2.134   2.555   3.941  0.7565  0.1312  0.2342
 3588TIP3    H132255   2.054   2.559   3.992  0.5619 -2.6226  0.2940
 3588TIP3    H232256   2.203   2.579   4.002 -0.0026  4.0266 -0.1849
 3589TIP3   OH232257   4.614   1.419  12.114 -0.7152  0.0928 -0.2650
 3589TIP3    H132258   4.702   1.450  12.132 -0.6806 -1.2487  2.4935
 3589TIP3    H232259   4.625   1.349  12.049  0.2016  0.2058 -0.2343
 3590TIP3   OH232260   0.182   6.040  12.804  0.4934 -0.5606  0.4134
 3590TIP3    H132261   0.218   6.125  12.830  0.4637 -0.5664  0.4728
 3590TIP3    H232262   0.154   6.000  12.886  1.9545 -1.2975  0.5877
 3591TIP3   OH232263   3.421   2.812   0.361  0.5287  1.0454  0.8948
 3591TIP3    H132264   3.416   2.796   0.267 -2.3113  0.9993  0.9678
 3591TIP3    H232265   3.441   2.726   0.399 -0.3791  0.6277  0.4451
 3592TIP3   OH232266   4.272   0.081   3.866  0.1940  0.0371  0.1976
 3592TIP3    H132267   4.229   0.151   3.816 -1.1233  0.7692  2.2407
 3592TIP3    H232268   4.351   0.122   3.901 -1.6342  1.3390  3.1901
 3593TIP3   OH232269   1.296   4.131  11.568  0.5175  0.0548  0.4619
 3593TIP3    H132270   1.348   4.110  11.490  1.7655  0.6462  1.1122
 3593TIP3    H232271   1.354   4.185  11.622 -0.0242 -1.0045  2.1723
 3594TIP3   OH232272   0.696   6.250  11.412 -0.5258  0.0681 -0.6412
 3594TIP3    H132273   0.743   6.333  11.410 -0.6651  0.2052  0.9479
 3594TIP3    H232274   0.623   6.265  11.472 -1.1209 -0.9255 -1.0805
 3595TIP3   OH232275   4.986   3.934  13.463 -0.2608 -0.5849 -0.1403
 3595TIP3    H132276   5.005   3.876  13.537 -2.0851 -3.4241 -1.7279
 3595TIP3    H232277   4.919   3.993  13.496  0.5816 -0.2716  1.0918
 3596TIP3   OH232278   6.703   6.209   0.523 -0.0531  0.0539 -0.1016
 3596TIP3    H132279   6.737   6.155   0.451 -0.0536  0.0844 -0.1254
 3596TIP3    H232280   6.616   6.173   0.541 -0.2736  0.3799 -0.4776
 3597TIP3   OH232281   0.291   1.581  13.267 -0.3759 -0.1687 -0.3969
 3597TIP3    H132282   0.315   1.571  13.175  0.3972 -0.2639 -0.1922
 3597TIP3    H232283   0.326   1.666  13.293  0.0157 -0.4426 -0.0105
 3598TIP3   OH232284   3.084   0.687  12.408  0.4238  0.1772  0.1080
 3598TIP3    H132285   3.173   0.661  12.432  0.6790  0.5146 -0.4460
 3598TIP3    H232286   3.038   0.605  12.392  0.5765 -0.0061  0.5971
 3599TIP3   OH232287   4.005   6.058   3.893  0.1120 -0.1527  0.3008
 3599TIP3    H132288   3.979   6.131   3.837  0.0372  0.6081  1.3200
 3599TIP3    H232289   4.095   6.039   3.866 -0.0058  0.0372 -0.2484
 3600TIP3   OH232290   0.845   6.468  16.884  0.1929  0.0451  0.1155
 3600TIP3    H132291   0.853   6.555  16.922  1.7353  0.2367 -0.5811
 3600TIP3    H232292   0.822   6.484  16.792 -2.2292 -0.3842  0.5678
 3601TIP3   OH232293   1.354   4.227  12.688 -0.1906 -0.3872  0.4945
 3601TIP3    H132294   1.282   4.189  12.738  0.7915 -1.0122  1.4551
 3601TIP3    H232295   1.354   4.178  12.606 -1.8660  0.7064 -0.2270
 3602TIP3   OH232296   2.456   4.522   2.166 -0.1910  0.6369 -0.0893
 3602TIP3    H132297   2.551   4.521   2.169 -0.0974 -1.2235 -1.5079
 3602TIP3    H232298   2.428   4.480   2.247  0.3561 -1.5998 -0.9745
 3603TIP3   OH232299   3.478   0.596   0.050  0.0881 -0.4928 -0.1218
 3603TIP3    H132300   3.544   0.627  -0.012 -0.6786  0.2912 -0.5489
 3603TIP3    H232301   3.527   0.581   0.131  0.6873  0.6982 -0.2509
 3604TIP3   OH232302   5.399   0.311   3.674  0.0389 -0.0995  0.5847
 3604TIP3    H132303   5.488   0.337   3.653  0.3245 -2.6604 -1.8491
 3604TIP3    H232304   5.406   0.223   3.711 -1.5353 -1.6465 -2.4149
 3605TIP3   OH232305   0.025   0.797   0.206 -0.3889 -0.3031 -0.1415
 3605TIP3    H132306   0.032   0.737   0.280  1.0939 -1.5740 -1.2464
 3605TIP3    H232307   0.094   0.862   0.221  0.9558 -1.4501 -1.1307
 3606TIP3   OH232308   6.334   3.230  12.351  0.0330 -0.0085 -0.5626
 3606TIP3    H132309   6.272   3.302  12.352  0.4547  0.3584 -0.6450
 3606TIP3    H232310   6.291   3.161  12.301 -0.5555  0.0175 -0.0980
 3607TIP3   OH232311   2.156   0.190  14.650  0.1847  0.1241 -0.2461
 3607TIP3    H132312   2.067   0.210  14.678 -0.5059  0.7431 -2.7297
 3607TIP3    H232313   2.157   0.095  14.638  0.1206  0.0205  0.4758
 3608TIP3   OH232314   2.878   1.057   2.326 -0.5254  0.0210  0.0559
 3608TIP3    H132315   2.871   1.152   2.334  1.4774  0.2797 -0.7886
 3608TIP3    H232316   2.874   1.041   2.231 -0.8392 -0.7442  0.1886
 3609TIP3   OH232317   5.566   0.108  16.321  0.2086 -0.2670 -0.3843
 3609TIP3    H132318   5.581   0.196  16.287 -0.4573  0.2872  0.7066
 3609TIP3    H232319   5.493   0.117  16.382  1.3893 -1.1857  1.2526
 3610TIP3   OH232320   3.605   5.337   3.495 -0.3016 -0.3927  0.2329
 3610TIP3    H132321   3.658   5.313   3.419 -0.1344  2.3825 -0.6481
 3610TIP3    H232322   3.516   5.344   3.462 -0.1542  1.3257  0.0951
 3611TIP3   OH232323   2.534   5.797  15.558 -0.5639  0.0501  0.3386
 3611TIP3    H132324   2.458   5.767  15.509 -1.5783  0.6120  1.5116
 3611TIP3    H232325   2.572   5.717  15.595 -0.7228 -0.2116 -0.0627
 3612TIP3   OH232326   0.784   4.100  15.840  0.3275 -0.7295 -0.0070
 3612TIP3    H132327   0.707   4.071  15.791  0.2450  0.0226 -0.3385
 3612TIP3    H232328   0.828   4.020  15.866  0.3370 -1.1416 -1.2576
 3613TIP3   OH232329   1.094   4.375  15.714  0.3936 -0.2695  0.9153
 3613TIP3    H132330   1.113   4.282  15.703  0.7890 -0.4149  2.5362
 3613TIP3    H232331   1.045   4.380  15.797  1.4807  1.0723  1.5257
 3614TIP3   OH232332   4.830   4.284   1.520 -0.1099  0.3857  0.0593
 3614TIP3    H132333   4.906   4.287   1.461  0.4885  1.1017  0.8368
 3614TIP3    H232334   4.807   4.376   1.533 -2.2534  0.1439 -1.5646
 3615TIP3   OH232335   4.808   4.889   1.647  0.0184 -0.3585 -0.3324
 3615TIP3    H132336   4.824   4.941   1.569  2.7795 -0.9334 -0.2331
 3615TIP3    H232337   4.857   4.933   1.716 -1.2182 -0.6621  0.7834
 3616TIP3   OH232338   4.565   5.699  11.823  0.5382 -0.3214 -0.1757
 3616TIP3    H132339   4.563   5.649  11.742 -0.4148  1.1833 -1.1190
 3616TIP3    H232340   4.522   5.782  11.802  0.7487  0.3253  1.7226
 3617TIP3   OH232341   0.592   4.345  13.250 -0.4131  0.5568  0.0835
 3617TIP3    H132342   0.664   4.376  13.196  0.1439 -1.3472 -0.3598
 3617TIP3    H232343   0.513   4.371  13.202 -0.0306  1.9145  0.1474
 3618TIP3   OH232344   3.508   4.695   2.462  0.4843  0.0115 -0.1315
 3618TIP3    H132345   3.422   4.671   2.498 -0.0897  1.6728 -0.2712
 3618TIP3    H232346   3.569   4.633   2.501 -0.6378 -0.5558  0.7918
 3619TIP3   OH232347   1.343   4.688   5.417 -1.0101 -0.0493  0.5793
 3619TIP3    H132348   1.289   4.667   5.341  1.2180 -2.4551 -0.4920
 3619TIP3    H232349   1.329   4.615   5.477  0.5571 -0.4311  0.5216
 3620TIP3   OH232350   5.244   0.234  13.256  0.2421  0.3339 -0.5310
 3620TIP3    H132351   5.333   0.203  13.273  0.0029  0.6023  1.4393
 3620TIP3    H232352   5.201   0.232  13.341 -1.4361  0.9111 -1.3127
 3621TIP3   OH232353   2.684   4.074  12.074  0.2470  0.3271 -0.0079
 3621TIP3    H132354   2.624   4.135  12.032 -0.1416 -0.8246 -1.1945
 3621TIP3    H232355   2.743   4.047  12.004  1.9707  1.1614  1.0525
 3622TIP3   OH232356   3.198   0.690   3.114  0.0910  0.0804 -0.1401
 3622TIP3    H132357   3.167   0.601   3.129  3.4369 -1.8271 -2.9824
 3622TIP3    H232358   3.145   0.721   3.040  1.1528 -0.9626 -1.3716
 3623TIP3   OH232359   3.960   3.820  13.616 -0.1663  0.2754  0.8547
 3623TIP3    H132360   3.913   3.792  13.538  0.2668  0.8478  0.3731
 3623TIP3    H232361   4.052   3.820  13.589  0.1318 -0.8114  1.7712
 3624TIP3   OH232362   4.363   3.800  14.352 -0.1966 -0.2607  0.4901
 3624TIP3    H132363   4.302   3.806  14.279  0.0377 -0.1969  0.2982
 3624TIP3    H232364   4.334   3.868  14.413  0.0895  0.2298  0.0886
 3625TIP3   OH232365   5.273   3.630   6.104 -0.0910  0.0427  0.0380
 3625TIP3    H132366   5.212   3.666   6.168 -0.0194 -0.8869  0.6288
 3625TIP3    H232367   5.355   3.619   6.152 -0.4037 -1.9238  0.1764
 3626TIP3   OH232368   0.818   0.357   4.596  0.0280 -0.4278  0.1859
 3626TIP3    H132369   0.727   0.384   4.602 -0.7214 -2.1229 -2.0966
 3626TIP3    H232370   0.863   0.430   4.553 -0.2690  0.3310  1.1453
 3627TIP3   OH232371   4.622   4.952  15.234 -0.2507  0.1541  0.1286
 3627TIP3    H132372   4.593   4.878  15.180  1.0129  0.2460 -0.7218
 3627TIP3    H232373   4.629   5.025  15.172 -0.0924  0.6153  0.6852
 3628TIP3   OH232374   3.441   6.681  12.118 -0.2790 -0.2337 -0.2135
 3628TIP3    H132375   3.403   6.637  12.042 -1.8980 -0.3699  0.6113
 3628TIP3    H232376   3.372   6.741  12.148  1.1018  1.3688 -0.0812
 3629TIP3   OH232377   5.032   2.637   0.817 -0.2949 -0.0992  0.0072
 3629TIP3    H132378   5.004   2.555   0.857 -0.6600 -0.7604 -1.5119
 3629TIP3    H232379   4.962   2.658   0.755  0.9553  0.0136 -1.4216
 3630TIP3   OH232380   5.228   3.847  15.635  0.4838 -1.0602 -0.5889
 3630TIP3    H132381   5.156   3.784  15.634 -0.4520 -0.0256 -1.7880
 3630TIP3    H232382   5.283   3.823  15.561  0.3841 -0.7701 -0.7593
 3631TIP3   OH232383   5.870   3.470  12.331  0.0926  0.0431 -0.1779
 3631TIP3    H132384   5.799   3.532  12.315 -0.2961 -0.4846 -0.5331
 3631TIP3    H232385   5.836   3.386  12.300  2.1964  0.3464 -3.8473
 3632TIP3   OH232386   6.273   5.629   4.104  0.2757 -0.0671 -0.6374
 3632TIP3    H132387   6.206   5.583   4.154  0.1232 -1.5428 -2.1429
 3632TIP3    H232388   6.228   5.705   4.067  0.2222  0.6501  0.8457
 3633TIP3   OH232389   2.644   4.451   5.207 -0.0359  0.4016  0.4257
 3633TIP3    H132390   2.706   4.381   5.187  0.2209  0.6655  0.2750
 3633TIP3    H232391   2.558   4.412   5.195  0.0951 -0.1526  1.2720
 3634TIP3   OH232392   4.399   4.400   5.203  0.3247  0.3203  0.0608
 3634TIP3    H132393   4.317   4.405   5.155 -0.7603 -0.7081  1.7001
 3634TIP3    H232394   4.373   4.407   5.295  2.0435 -0.2892  0.6265
 3635TIP3   OH232395   5.747   0.322  10.645 -0.1797 -0.1929  0.5748
 3635TIP3    H132396   5.659   0.344  10.676  0.3609  0.7220  1.5304
 3635TIP3    H232397   5.802   0.394  10.676  0.3542  1.2083 -3.1077
 3636TIP3   OH232398   5.899   3.287   4.472  0.1955 -0.0373  0.4022
 3636TIP3    H132399   5.831   3.351   4.454 -0.3487 -0.3589  1.2494
 3636TIP3    H232400   5.923   3.251   4.386 -1.5929 -0.8189  0.1996
 3637TIP3   OH232401   0.678   0.077   5.462  0.2999 -0.0489 -0.5420
 3637TIP3    H132402   0.669  -0.010   5.499 -0.9849  0.0705 -0.5339
 3637TIP3    H232403   0.727   0.126   5.529 -3.4718  0.6725  2.0230
 3638TIP3   OH232404   0.052   0.537  16.584 -0.0134  0.3122  0.2463
 3638TIP3    H132405  -0.038   0.563  16.604 -0.0098  0.4940  0.0422
 3638TIP3    H232406   0.045   0.487  16.503  0.1836  1.2315 -0.3565
 3639TIP3   OH232407   5.076   6.028   4.860 -0.1354 -0.5498  0.6379
 3639TIP3    H132408   5.016   6.102   4.854  0.1380 -0.2668  1.2652
 3639TIP3    H232409   5.139   6.043   4.789  2.0978  1.8433  2.8789
 3640TIP3   OH232410   2.948   2.212  12.722  0.1607 -0.7653  0.6602
 3640TIP3    H132411   2.996   2.129  12.722  0.6086 -0.5381 -0.8346
 3640TIP3    H232412   2.896   2.209  12.641  2.2888  1.5578 -0.9283
 3641TIP3   OH232413   2.380   0.625  15.892 -0.7396  0.3010 -0.0496
 3641TIP3    H132414   2.401   0.626  15.986 -0.6130  1.4483 -0.0786
 3641TIP3    H232415   2.434   0.554  15.857  1.5497  1.7933  0.2511
 3642TIP3   OH232416   5.563   2.326  10.197  0.3956  0.1709  0.4640
 3642TIP3    H132417   5.558   2.414  10.159  1.7984 -0.2967 -0.9173
 3642TIP3    H232418   5.481   2.284  10.172 -0.1044  0.9467  0.7760
 3643TIP3   OH232419   4.158   3.125   2.849 -0.2193 -0.1746  0.4025
 3643TIP3    H132420   4.221   3.136   2.920  0.6054  0.5012 -0.4039
 3643TIP3    H232421   4.176   3.037   2.815  0.7106  0.2234 -0.1886
 3644TIP3   OH232422   4.349   1.616  11.873  0.0892  0.3713 -0.2609
 3644TIP3    H132423   4.373   1.617  11.966 -0.1129  0.9806 -0.2165
 3644TIP3    H232424   4.420   1.662  11.829  0.8161 -0.9863 -0.5705
 3645TIP3   OH232425   1.374   0.021  12.181  0.4957 -0.7383 -0.1555
 3645TIP3    H132426   1.348   0.041  12.271  0.4600  0.4598 -0.4150
 3645TIP3    H232427   1.403   0.104  12.145 -1.2723 -0.7692 -1.8522
 3646TIP3   OH232428   6.774   4.346  11.810 -0.1669 -0.8897 -0.1087
 3646TIP3    H132429   6.866   4.342  11.782  0.1966 -1.1642  1.0590
 3646TIP3    H232430   6.746   4.434  11.787  0.4338 -0.7630 -0.3802
 3647TIP3   OH232431   3.330   4.518   4.080 -0.5162  0.2779 -0.4644
 3647TIP3    H132432   3.417   4.509   4.043  0.8242 -2.0609  2.7015
 3647TIP3    H232433   3.279   4.447   4.040  0.4371 -1.2053  0.8398
 3648TIP3   OH232434   5.437   6.088   4.951  0.5760 -0.1575 -0.4757
 3648TIP3    H132435   5.381   6.026   4.903  0.7311 -0.4913 -0.2320
 3648TIP3    H232436   5.418   6.070   5.043 -0.4985  1.1883 -0.4019
 3649TIP3   OH232437   6.627   2.802   1.257  0.4875 -0.3888  0.4069
 3649TIP3    H132438   6.623   2.847   1.172  2.0486  1.0839  1.0478
 3649TIP3    H232439   6.539   2.813   1.293  0.9376  2.9979  0.8580
 3650TIP3   OH232440   2.387   6.150   0.373  0.1732 -0.3613  0.3470
 3650TIP3    H132441   2.460   6.091   0.393 -1.6459 -2.6961  0.4681
 3650TIP3    H232442   2.427   6.220   0.321  2.4737 -1.5940  0.3295
 3651TIP3   OH232443   4.127   0.034   3.578  0.3676  0.4182 -0.3012
 3651TIP3    H132444   4.161  -0.008   3.658 -0.3833  0.0709 -0.1543
 3651TIP3    H232445   4.151   0.126   3.588  0.0619  0.4296  0.4620
 3652TIP3   OH232446   4.978   2.551  15.940  0.3010 -0.0320 -0.8341
 3652TIP3    H132447   4.973   2.610  16.015 -0.6446 -0.2836 -0.6836
 3652TIP3    H232448   5.053   2.495  15.959 -0.4407 -0.6675  0.3693
 3653TIP3   OH232449   1.642   1.250  11.438 -0.1773 -0.7036  0.1165
 3653TIP3    H132450   1.603   1.240  11.525 -0.3894 -0.6687  0.0249
 3653TIP3    H232451   1.736   1.245  11.454 -0.1633  0.5567  0.5083
 3654TIP3   OH232452   2.000   5.833  11.599  0.3414 -0.2756  0.1848
 3654TIP3    H132453   2.038   5.750  11.569  0.2740 -1.0420  2.1377
 3654TIP3    H232454   2.000   5.827  11.694  2.5966  2.9546  0.5688
 3655TIP3   OH232455   3.212   6.565  14.516 -0.2029 -0.1575  0.2329
 3655TIP3    H132456   3.154   6.624  14.565 -0.9322  2.2257 -3.1637
 3655TIP3    H232457   3.299   6.602  14.529 -0.3171  0.1514  0.1267
 3656TIP3   OH232458   4.825   4.254   1.173  0.1839 -0.6781  0.7066
 3656TIP3    H132459   4.862   4.280   1.089 -1.7489  0.1960  0.0567
 3656TIP3    H232460   4.783   4.169   1.156 -0.2003 -0.5067  0.7872
 3657TIP3   OH232461   4.814   3.146  10.637  0.1891  0.9752 -0.0673
 3657TIP3    H132462   4.878   3.153  10.707 -0.2712  0.9107  0.3683
 3657TIP3    H232463   4.766   3.065  10.656  0.0625  0.9589 -0.4504
 3658TIP3   OH232464   2.980   0.124  15.846  0.1363 -0.6770  0.2839
 3658TIP3    H132465   2.948   0.150  15.760  0.1050 -0.2399  0.4234
 3658TIP3    H232466   2.939   0.039  15.863  0.1626 -0.7745 -0.1401
 3659TIP3   OH232467   1.580   1.078  15.051  0.2577  0.6221 -0.7380
 3659TIP3    H132468   1.668   1.076  15.089 -0.1189  0.8419  0.1477
 3659TIP3    H232469   1.551   1.169  15.061 -0.9673  0.0839  1.0709
 3660TIP3   OH232470   5.623   5.402   4.601 -0.1033 -0.0868 -0.1428
 3660TIP3    H132471   5.595   5.321   4.644  1.5497 -0.0999  0.9836
 3660TIP3    H232472   5.555   5.465   4.622  0.4711 -0.1853  2.2910
 3661TIP3   OH232473   4.003   4.697  10.925  0.4666  0.2079  0.0292
 3661TIP3    H132474   4.075   4.741  10.970  0.6311  0.1703 -0.1934
 3661TIP3    H232475   4.010   4.726  10.834  1.6171 -1.5597 -0.4957
 3662TIP3   OH232476   3.751   1.387   3.789  0.0629  0.0864  0.1257
 3662TIP3    H132477   3.810   1.356   3.858 -0.6696 -0.2438  0.6099
 3662TIP3    H232478   3.758   1.482   3.794 -0.7475  0.0975  1.3412
 3663TIP3   OH232479   5.649   2.917  15.322 -0.2250  0.0150 -0.3042
 3663TIP3    H132480   5.634   2.864  15.243  0.7158 -2.0369  0.8171
 3663TIP3    H232481   5.587   2.883  15.386 -0.1607  0.8462  0.2127
 3664TIP3   OH232482   4.374   5.150  11.196 -0.5116  0.3009 -0.5632
 3664TIP3    H132483   4.458   5.193  11.180 -0.3841  0.7537  1.0881
 3664TIP3    H232484   4.341   5.126  11.109  1.4835 -0.2214 -1.2208
 3665TIP3   OH232485   1.665   0.834  12.615  0.1150  0.0448 -0.0281
 3665TIP3    H132486   1.601   0.905  12.610 -1.4904 -1.3501 -0.0285
 3665TIP3    H232487   1.613   0.756  12.636  1.9645 -0.9350  1.1430
 3666TIP3   OH232488   2.703   5.211  15.310  0.6508 -0.2185  0.2584
 3666TIP3    H132489   2.765   5.234  15.241  0.6504 -0.0861  0.3016
 3666TIP3    H232490   2.756   5.166  15.376  1.3607  2.5560  1.7444
 3667TIP3   OH232491   5.567   2.578  11.643  0.1967  0.5259  0.4420
 3667TIP3    H132492   5.475   2.571  11.619 -0.3587 -0.5593  2.5793
 3667TIP3    H232493   5.589   2.670  11.629 -0.3449  0.2828 -2.7273
 3668TIP3   OH232494   2.851   0.429   0.201  0.3845  0.2375 -0.2052
 3668TIP3    H132495   2.945   0.423   0.212  0.0672 -2.2272  2.6801
 3668TIP3    H232496   2.826   0.506   0.252  0.7652  0.0365  0.3038
 3669TIP3   OH232497   2.552   4.387   0.880  0.4578  0.0635 -0.0873
 3669TIP3    H132498   2.629   4.432   0.915  0.3448  0.8746 -0.8354
 3669TIP3    H232499   2.487   4.392   0.950  0.4244  1.1599 -0.1736
 3670TIP3   OH232500   3.650   3.382  11.738  0.4880 -0.2124 -0.1950
 3670TIP3    H132501   3.660   3.304  11.793 -1.5031 -1.4946 -1.5303
 3670TIP3    H232502   3.710   3.367  11.665  0.3317 -0.3423 -0.2966
 3671TIP3   OH232503   3.379   5.363   2.286  0.4611 -0.1731 -0.1209
 3671TIP3    H132504   3.442   5.334   2.351  1.2530  2.0790  0.2149
 3671TIP3    H232505   3.347   5.447   2.319  0.3835  0.7346 -2.2806
 3672TIP3   OH232506   0.211   1.857  13.089  0.1056 -0.4031  0.6943
 3672TIP3    H132507   0.199   1.920  13.160 -1.8019  1.5692 -1.2029
 3672TIP3    H232508   0.232   1.911  13.013 -3.7100 -1.6807 -1.5338
 3673TIP3   OH232509   2.119   6.085  12.769  0.4631 -0.4559  0.1408
 3673TIP3    H132510   2.178   6.042  12.831 -0.1752  1.8269  2.4778
 3673TIP3    H232511   2.178   6.120  12.702  1.3352 -1.5924  0.2652
 3674TIP3   OH232512   3.171   6.166  16.194 -0.0604 -0.0191 -0.1597
 3674TIP3    H132513   3.213   6.246  16.224  3.4948 -1.5714 -0.4752
 3674TIP3    H232514   3.136   6.126  16.274  1.7645 -0.0388  0.6786
 3675TIP3   OH232515   4.612   0.178   4.318 -0.4947 -0.1667  0.7873
 3675TIP3    H132516   4.542   0.153   4.378  0.0336 -1.6613  0.8249
 3675TIP3    H232517   4.570   0.237   4.255 -1.7186 -0.8039  0.9729
 3676TIP3   OH232518   5.904   2.531  11.964  0.2282  0.4460 -0.0327
 3676TIP3    H132519   5.813   2.562  11.961  0.0690  0.1498  1.1499
 3676TIP3    H232520   5.939   2.551  11.877 -0.7548  1.2110 -0.2754
 3677TIP3   OH232521   0.532   6.267  15.377 -0.8141  0.6661  0.6244
 3677TIP3    H132522   0.502   6.303  15.294 -0.9337 -0.3965  0.1894
 3677TIP3    H232523   0.603   6.325  15.404  0.0812  0.3173 -0.8572
 3678TIP3   OH232524   2.929   5.753   4.330  0.1273  0.5365 -0.3595
 3678TIP3    H132525   2.978   5.818   4.281  1.9267 -0.8516 -0.4884
 3678TIP3    H232526   2.982   5.735   4.407 -0.5458 -0.4688 -0.1068
 3679TIP3   OH232527   6.250   0.467   3.633  0.4008 -0.3845  0.0731
 3679TIP3    H132528   6.304   0.409   3.580 -0.3127 -0.3492 -0.6992
 3679TIP3    H232529   6.297   0.550   3.632  0.0727 -0.1956 -1.0634
 3680TIP3   OH232530   4.705   6.445  10.627  0.1882  0.1591 -0.2615
 3680TIP3    H132531   4.623   6.493  10.640  0.1116 -0.3854  1.4405
 3680TIP3    H232532   4.704   6.421  10.534 -0.6260  1.8440 -0.7316
 3681TIP3   OH232533   4.921   2.984   3.265  0.3788  0.2549 -0.5846
 3681TIP3    H132534   4.911   2.951   3.354  0.8537  0.1532 -0.5648
 3681TIP3    H232535   4.999   2.940   3.232 -0.5619 -0.7368 -1.5296
 3682TIP3   OH232536   6.197   1.026   5.228  0.3178 -0.7134  0.0623
 3682TIP3    H132537   6.156   1.112   5.218 -0.7517 -1.2716 -0.5306
 3682TIP3    H232538   6.291   1.045   5.234  0.1383  0.4620 -0.5375
 3683TIP3   OH232539   0.507   2.979  16.225 -0.5028 -0.8093 -1.1714
 3683TIP3    H132540   0.442   3.026  16.277 -0.4222 -0.8894 -0.9977
 3683TIP3    H232541   0.574   2.952  16.288 -0.3240 -0.7667 -1.3415
 3684TIP3   OH232542   3.196   1.548   4.103 -0.0940 -0.4542  0.0467
 3684TIP3    H132543   3.219   1.477   4.162  0.3302  0.2408  0.7438
 3684TIP3    H232544   3.117   1.586   4.141 -1.1495 -1.4108 -1.0968
 3685TIP3   OH232545   4.024   2.725  11.212  0.0329  0.1849 -0.3733
 3685TIP3    H132546   3.968   2.718  11.135  0.3072  0.8389 -0.6356
 3685TIP3    H232547   4.037   2.819  11.224  1.4431  0.0349 -0.5890
 3686TIP3   OH232548   2.646   0.419  16.370 -0.2649  0.0728 -0.1280
 3686TIP3    H132549   2.564   0.378  16.396 -0.2385  0.4742  0.5899
 3686TIP3    H232550   2.714   0.364  16.409 -0.1606 -0.5524 -1.1379
 3687TIP3   OH232551   3.706   3.432  13.136 -0.1674  0.3108  0.6218
 3687TIP3    H132552   3.742   3.375  13.203  1.1740 -0.1684 -0.4746
 3687TIP3    H232553   3.779   3.488  13.109 -0.0880 -0.8215 -1.7960
 3688TIP3   OH232554   0.613   2.078   6.158  0.0548  0.1644  0.6567
 3688TIP3    H132555   0.620   2.101   6.065  1.0592  1.7305  1.0743
 3688TIP3    H232556   0.559   1.999   6.159 -0.9089  0.7233 -1.1830
 3689TIP3   OH232557   3.175   1.847  14.268  0.3840  0.0320  0.2216
 3689TIP3    H132558   3.158   1.931  14.311 -2.7924 -0.3885  0.0773
 3689TIP3    H232559   3.166   1.782  14.338 -1.0591 -0.3909 -0.3138
 3690TIP3   OH232560   2.105   2.249   1.425 -0.0955  0.4465  0.9467
 3690TIP3    H132561   2.169   2.229   1.494  1.3137  0.1917 -0.3719
 3690TIP3    H232562   2.152   2.306   1.365 -1.8174  1.9935  0.9817
 3691TIP3   OH232563   2.447   5.371   4.549 -0.2930  0.1111 -0.1190
 3691TIP3    H132564   2.495   5.298   4.588 -1.4446 -0.4902  0.2232
 3691TIP3    H232565   2.428   5.429   4.623 -0.8541 -0.0999 -0.0913
 3692TIP3   OH232566   0.992   4.293   4.847 -0.4568 -0.1742 -0.0658
 3692TIP3    H132567   1.059   4.327   4.788  0.0329  3.3394  2.1955
 3692TIP3    H232568   1.031   4.214   4.885  0.3718 -0.8616 -2.2033
 3693TIP3   OH232569   6.078   5.713  10.538 -0.2165  0.1548 -0.4218
 3693TIP3    H132570   5.993   5.688  10.501 -0.2700 -1.3925  0.6530
 3693TIP3    H232571   6.123   5.758  10.466 -0.5534 -2.1925 -2.2199
 3694TIP3   OH232572   6.149   2.444   1.575 -1.0534 -0.0142  0.5152
 3694TIP3    H132573   6.097   2.379   1.621 -0.9466 -0.2848  0.2619
 3694TIP3    H232574   6.228   2.454   1.628 -1.0305 -0.1580  0.5094
 3695TIP3   OH232575   6.572   0.865  11.993  0.4944 -0.0843 -0.0104
 3695TIP3    H132576   6.637   0.933  11.979  0.9742 -0.4743  0.2993
 3695TIP3    H232577   6.613   0.784  11.963  0.1912 -0.3497  0.2725
 3696TIP3   OH232578   6.618   6.132  13.924 -0.5836  0.0941  0.2090
 3696TIP3    H132579   6.587   6.060  13.979  2.3222 -2.1376 -0.7626
 3696TIP3    H232580   6.691   6.170  13.974 -2.1391  2.5874  0.7558
 3697TIP3   OH232581   4.422   3.163   3.872  0.7227  0.0640  0.1073
 3697TIP3    H132582   4.418   3.069   3.851  0.9017  0.0346  0.2036
 3697TIP3    H232583   4.482   3.199   3.807  1.3758 -0.0482  0.6304
 3698TIP3   OH232584   4.484   3.576   3.881  0.3309  0.0689  0.6894
 3698TIP3    H132585   4.492   3.584   3.786  0.6331 -2.3354  0.4482
 3698TIP3    H232586   4.573   3.564   3.912  0.0038 -2.7072  0.7962
 3699TIP3   OH232587   1.778   0.595   1.118  0.5860 -0.0714 -0.3269
 3699TIP3    H132588   1.833   0.541   1.060  1.8113  0.7390  0.0412
 3699TIP3    H232589   1.823   0.680   1.121 -0.3070  0.3861  0.5799
 3700TIP3   OH232590   1.839   4.558   4.318  0.2564 -0.2673 -0.2593
 3700TIP3    H132591   1.804   4.498   4.253 -2.6348  0.1364  0.7554
 3700TIP3    H232592   1.841   4.643   4.273 -1.0908 -0.1170 -0.0865
 3701TIP3   OH232593   2.656   5.196  14.572  0.1586 -0.8320  0.6629
 3701TIP3    H132594   2.674   5.115  14.525 -0.6213 -1.5589  1.5746
 3701TIP3    H232595   2.560   5.204  14.568  0.2521  0.2380  0.2821
 3702TIP3   OH232596   5.012   1.764   1.578  0.3856  0.1670 -0.1642
 3702TIP3    H132597   5.107   1.760   1.579  0.3865 -0.3415 -1.1920
 3702TIP3    H232598   4.990   1.811   1.497 -0.2441 -0.4149 -0.3456
 3703TIP3   OH232599   1.146   5.173  13.063 -0.3744  0.3497  0.5242
 3703TIP3    H132600   1.180   5.132  13.142 -0.0055  0.2711  0.3263
 3703TIP3    H232601   1.144   5.267  13.083 -0.7139  0.2890  0.7861
 3704TIP3   OH232602   0.196   0.710  16.743  0.0144  0.0569 -0.3459
 3704TIP3    H132603   0.154   0.793  16.762 -0.7535  0.4625 -3.2576
 3704TIP3    H232604   0.132   0.662  16.690  1.9114 -0.6905 -2.1210
 3705TIP3   OH232605   4.547   4.471   1.666  0.4536  0.1212 -0.0307
 3705TIP3    H132606   4.477   4.537   1.667  0.5179  0.1926  0.7512
 3705TIP3    H232607   4.628   4.522   1.669  0.4977  0.0267  1.2389
 3706TIP3   OH232608   2.928   2.163  15.810 -0.1407 -0.2786 -0.4080
 3706TIP3    H132609   2.915   2.258  15.810 -1.1417 -0.3844  1.3564
 3706TIP3    H232610   2.886   2.132  15.890 -0.3006 -2.2950 -1.2004
 3707TIP3   OH232611   4.509   2.321   1.834 -0.0955 -0.5289  0.5381
 3707TIP3    H132612   4.427   2.273   1.847 -0.5229  0.0372 -0.0200
 3707TIP3    H232613   4.576   2.253   1.830 -0.7333 -1.1180 -0.5671
 3708TIP3   OH232614   6.438   0.220   5.036 -0.1466  0.7173  0.3414
 3708TIP3    H132615   6.455   0.281   4.964 -0.7774  2.1046  1.3275
 3708TIP3    H232616   6.502   0.243   5.103 -0.7413  0.6772  0.9346
 3709TIP3   OH232617   6.045   3.899  11.366 -0.4546 -0.2535  0.0782
 3709TIP3    H132618   6.035   3.992  11.382 -1.3275 -0.1914 -0.6956
 3709TIP3    H232619   6.006   3.885  11.279  0.3268 -1.2117 -0.1376
 3710TIP3   OH232620   2.207   5.059  13.206 -0.1858  0.9612 -0.7547
 3710TIP3    H132621   2.152   5.019  13.140 -1.0817 -0.3825  0.7272
 3710TIP3    H232622   2.153   5.128  13.245  0.0304  1.1817 -0.8374
 3711TIP3   OH232623   5.158   6.056   3.210  0.4615 -0.5885  0.2761
 3711TIP3    H132624   5.111   6.073   3.292 -1.0923 -2.8213 -0.0532
 3711TIP3    H232625   5.226   5.993   3.235 -0.0612 -1.3264 -0.1302
 3712TIP3   OH232626   2.981   1.506   3.266 -0.0945 -0.8580 -0.3602
 3712TIP3    H132627   2.894   1.539   3.244  0.0425 -0.1483  0.1442
 3712TIP3    H232628   3.002   1.446   3.195 -0.9360 -0.9273 -0.5602
 3713TIP3   OH232629   0.098   1.528  14.152  0.0087 -0.0598  0.0046
 3713TIP3    H132630   0.117   1.621  14.141  0.5217 -0.2830 -1.2416
 3713TIP3    H232631   0.083   1.496  14.063 -2.6463 -0.6874  0.5838
 3714TIP3   OH232632   1.025   0.416   3.976 -0.0102  0.4090  0.0619
 3714TIP3    H132633   1.033   0.340   4.033 -3.8547  1.0571  1.7535
 3714TIP3    H232634   1.004   0.380   3.890  0.6792 -0.4367  0.2336
 3715TIP3   OH232635   1.979   1.744  11.448  0.1093  0.4345  0.1514
 3715TIP3    H132636   1.994   1.651  11.460  0.8643  0.3391 -1.2461
 3715TIP3    H232637   1.894   1.749  11.404  0.4758  0.3190 -0.5970
 3716TIP3   OH232638   2.353   1.763  12.424  0.2898 -0.4063  0.6672
 3716TIP3    H132639   2.435   1.726  12.391  0.9008 -1.7288  3.4342
 3716TIP3    H232640   2.287   1.734  12.361  1.3171 -3.1365  0.7377
 3717TIP3   OH232641   5.894   5.844   4.462 -0.2866 -0.3193 -0.1183
 3717TIP3    H132642   5.830   5.855   4.532 -0.8422 -0.6566 -0.5630
 3717TIP3    H232643   5.841   5.839   4.382  0.2444 -1.2864 -0.4217
 3718TIP3   OH232644   0.757   6.171  15.852 -0.1727 -0.0416 -0.0444
 3718TIP3    H132645   0.775   6.265  15.854 -2.1964  0.5131 -2.4551
 3718TIP3    H232646   0.664   6.164  15.872  0.2774 -1.7509  1.7593
 3719TIP3   OH232647   2.536   0.855  14.045 -0.2443 -0.0465 -0.0591
 3719TIP3    H132648   2.525   0.946  14.072 -0.4414  0.5100 -1.8485
 3719TIP3    H232649   2.461   0.838  13.988 -1.2569 -1.9673  1.6976
 3720TIP3   OH232650   3.946   4.945   0.744 -0.0746  0.0519 -0.3779
 3720TIP3    H132651   3.988   5.026   0.713 -1.8202  0.9572 -0.5460
 3720TIP3    H232652   3.895   4.915   0.669  1.9743 -2.3199 -0.9580
 3721TIP3   OH232653   0.741   5.974  16.511  0.0742 -0.4252  0.1727
 3721TIP3    H132654   0.790   6.006  16.435  0.5315 -1.1727  0.1405
 3721TIP3    H232655   0.649   5.985  16.488  0.2149  0.8004  0.1463
 3722TIP3   OH232656   1.107   5.416   5.137  0.3061  0.7538  0.2183
 3722TIP3    H132657   1.146   5.347   5.191 -0.0353  2.0945  2.3184
 3722TIP3    H232658   1.183   5.466   5.105  0.5551 -0.5349 -1.3341
 3723TIP3   OH232659   3.756   0.571  11.972 -0.5674 -0.7523 -0.0858
 3723TIP3    H132660   3.735   0.603  11.884  3.8030 -0.7462 -1.3666
 3723TIP3    H232661   3.744   0.476  11.966  0.8557 -0.9069 -1.1946
 3724TIP3   OH232662   4.672   6.522  13.898 -0.3059 -0.2739 -0.1685
 3724TIP3    H132663   4.582   6.531  13.928 -0.7145  0.5299 -1.5256
 3724TIP3    H232664   4.702   6.439  13.934 -1.8854 -0.9693 -0.3983
 3725TIP3   OH232665   1.913   3.242  13.135 -0.1893  0.1302  0.0912
 3725TIP3    H132666   1.941   3.254  13.226 -1.5191  1.0639  0.4144
 3725TIP3    H232667   1.924   3.148  13.119  1.1251  0.1347  0.8322
 3726TIP3   OH232668   0.600   0.030  11.988  0.4287  0.1165 -0.5958
 3726TIP3    H132669   0.593   0.122  11.963 -0.8358 -0.4655 -2.5863
 3726TIP3    H232670   0.686   0.003  11.955  0.6194  0.4638 -0.3938
 3727TIP3   OH232671   2.721   4.371  14.057 -0.1060  0.0590 -0.1931
 3727TIP3    H132672   2.795   4.313  14.041  0.3603  1.0329 -1.7921
 3727TIP3    H232673   2.724   4.435  13.986 -0.2231  2.4594  1.8100
 3728TIP3   OH232674   0.067   3.459   2.882 -0.0274 -0.6240 -0.0748
 3728TIP3    H132675   0.068   3.394   2.812  2.4858 -0.6590 -0.1029
 3728TIP3    H232676   0.059   3.409   2.963 -0.7849 -0.7394 -0.2139
 3729TIP3   OH232677   2.408   0.321   2.594  0.0701  0.3851  0.1236
 3729TIP3    H132678   2.363   0.337   2.511  0.3331  1.2863  0.1427
 3729TIP3    H232679   2.408   0.406   2.638  1.9599  0.4798  0.0356
 3730TIP3   OH232680   0.767   0.698  15.009 -0.0482  0.8491 -0.1777
 3730TIP3    H132681   0.798   0.766  14.949 -1.3448 -0.0401 -1.9432
 3730TIP3    H232682   0.795   0.728  15.096  2.5748  1.8089 -1.2551
 3731TIP3   OH232683   3.496   4.968  13.020  0.1157  0.0135  0.2898
 3731TIP3    H132684   3.476   5.008  12.935  1.7293 -1.4842 -0.8689
 3731TIP3    H232685   3.569   5.020  13.054 -0.1511  0.2558  0.4973
 3732TIP3   OH232686   6.181   4.048  15.108  0.7614  0.1287  0.2720
 3732TIP3    H132687   6.086   4.038  15.116  0.8300 -1.8422 -0.8391
 3732TIP3    H232688   6.214   4.038  15.198 -0.0577  1.1276  0.7098
 3733TIP3   OH232689   5.453   2.291   5.790 -0.5968  0.3380 -0.2732
 3733TIP3    H132690   5.494   2.206   5.804 -1.5863 -0.2689 -0.8870
 3733TIP3    H232691   5.501   2.351   5.847  0.7971 -0.4175 -0.6045
 3734TIP3   OH232692   4.213   5.985  12.602 -0.2039  0.5764 -0.1104
 3734TIP3    H132693   4.264   6.066  12.605  0.8788 -0.1104  2.2539
 3734TIP3    H232694   4.163   5.985  12.684  0.2195 -1.3534  0.1989
 3735TIP3   OH232695   2.403   2.260  17.078  0.1819  0.3123 -0.1119
 3735TIP3    H132696   2.479   2.295  17.033 -0.0454 -1.4248 -2.0046
 3735TIP3    H232697   2.425   2.168  17.093 -0.8892  0.1906  0.8415
 3736TIP3   OH232698   4.579   2.076  14.731 -1.0341  0.1792 -0.7058
 3736TIP3    H132699   4.570   2.169  14.750  0.7527  0.1329  0.7038
 3736TIP3    H232700   4.494   2.038  14.753 -1.3043  1.2728  0.2293
 3737TIP3   OH232701   0.632   2.391   3.854 -0.1767  0.7602 -0.4077
 3737TIP3    H132702   0.719   2.371   3.888 -1.1174 -0.0631  1.7451
 3737TIP3    H232703   0.582   2.419   3.931 -2.2052 -0.1929 -1.2911
 3738TIP3   OH232704   2.200   4.263  11.577 -0.3910 -0.0215  0.2131
 3738TIP3    H132705   2.201   4.183  11.526 -1.1655 -0.1461  0.3902
 3738TIP3    H232706   2.193   4.234  11.668 -0.8809  0.2478  0.2640
 3739TIP3   OH232707   4.288   5.861   0.881  0.3283 -0.1752 -0.4109
 3739TIP3    H132708   4.261   5.828   0.967  0.8562  1.1670  0.2915
 3739TIP3    H232709   4.209   5.900   0.844  0.3078  0.0346 -0.1495
 3740TIP3   OH232710   6.163   1.604  15.696 -0.3981  0.4503 -0.2809
 3740TIP3    H132711   6.079   1.611  15.650 -0.0852 -1.8094 -1.3247
 3740TIP3    H232712   6.225   1.651  15.639 -0.5702  0.3291 -0.5692
 3741TIP3   OH232713   6.125   6.696   2.223  0.5915 -0.1479 -0.2208
 3741TIP3    H132714   6.124   6.791   2.235 -0.4697 -0.1181 -0.4660
 3741TIP3    H232715   6.045   6.677   2.175 -0.5644 -1.4637  2.0819
 3742TIP3   OH232716   3.302   4.286   3.853  0.4619  0.0403  0.6826
 3742TIP3    H132717   3.395   4.286   3.829  0.1765  0.1773 -0.4605
 3742TIP3    H232718   3.256   4.303   3.771 -0.5169  1.4074  1.4771
 3743TIP3   OH232719   6.420   4.079  11.596  0.4258 -0.3324  0.2529
 3743TIP3    H132720   6.460   4.119  11.518 -0.6248  0.4763  0.0967
 3743TIP3    H232721   6.429   4.146  11.664  0.1583 -0.5065  0.4598
 3744TIP3   OH232722   5.824   3.694   3.462  0.0476  0.1398 -0.7303
 3744TIP3    H132723   5.766   3.631   3.420 -1.1306 -0.1251  1.1674
 3744TIP3    H232724   5.774   3.728   3.536  1.2435  2.1476 -0.7552
 3745TIP3   OH232725   6.415   1.313   4.764 -0.5392  0.1968  0.4278
 3745TIP3    H132726   6.359   1.260   4.708  0.2746  0.1450 -0.3727
 3745TIP3    H232727   6.355   1.358   4.823 -1.4493  0.3836 -0.6101
 3746TIP3   OH232728   6.721   3.246  12.397 -0.5616  0.5193 -0.5641
 3746TIP3    H132729   6.761   3.173  12.444  0.1601  0.5244 -1.1476
 3746TIP3    H232730   6.792   3.310  12.388 -2.0456  3.1233  3.4019
 3747TIP3   OH232731   1.383   4.334   0.615  0.1797  0.4100  0.0449
 3747TIP3    H132732   1.375   4.418   0.658  0.8415  0.3914  0.2221
 3747TIP3    H232733   1.412   4.355   0.526 -0.0744  0.3935 -0.0409
 3748TIP3   OH232734   6.224   0.050  16.854  0.1569  0.0619 -0.0879
 3748TIP3    H132735   6.131   0.065  16.835  0.2936  3.0877  1.1328
 3748TIP3    H232736   6.228   0.036  16.948  1.0052  0.5580 -0.0390
 3749TIP3   OH232737   6.022   3.169   3.093 -0.2029 -0.0936  0.0238
 3749TIP3    H132738   5.991   3.215   3.171 -0.5121  0.1742 -0.2516
 3749TIP3    H232739   6.090   3.227   3.057  1.2174 -1.0428  1.0564
 3750TIP3   OH232740   6.031   4.133  12.758  0.3692 -0.4146 -0.2474
 3750TIP3    H132741   5.954   4.076  12.763 -1.9672  2.5732  2.4343
 3750TIP3    H232742   6.080   4.115  12.838  1.1384 -0.5640 -0.7396
 3751TIP3   OH232743   1.522   6.523  11.030  0.1926 -0.3899  0.0963
 3751TIP3    H132744   1.506   6.595  10.970 -0.4838  0.3400  1.1154
 3751TIP3    H232745   1.458   6.456  11.005  0.4261 -0.3966 -0.4792
 3752TIP3   OH232746   0.550   0.040  17.019 -0.4386 -0.7288 -0.2759
 3752TIP3    H132747   0.584   0.021  17.107 -1.8272 -0.5107  0.3227
 3752TIP3    H232748   0.475  -0.019  17.009 -1.8877  1.0524 -0.2819
 3753TIP3   OH232749   4.188   0.616   1.230 -0.1118 -0.5270  0.1371
 3753TIP3    H132750   4.136   0.547   1.271 -2.2126  0.5323 -0.5749
 3753TIP3    H232751   4.142   0.697   1.251  2.3189  0.7281  1.0096
 3754TIP3   OH232752   2.816   4.747   6.442 -0.1658 -0.2923  1.0938
 3754TIP3    H132753   2.771   4.780   6.365  0.3404  1.0489  1.3597
 3754TIP3    H232754   2.900   4.716   6.410 -0.4879 -0.9922  0.9060
 3755TIP3   OH232755   4.652   3.898  15.658  0.0544  0.3598  0.2107
 3755TIP3    H132756   4.557   3.903  15.666  0.0325 -1.0478  1.0328
 3755TIP3    H232757   4.680   3.848  15.735  1.6265  2.1289  0.8904
 3756TIP3   OH232758   3.125   0.355   0.138  0.0201  0.2750 -0.3304
 3756TIP3    H132759   3.162   0.274   0.173 -1.4435  0.1311  0.9675
 3756TIP3    H232760   3.181   0.376   0.063  1.6528 -0.8506  0.4926
 3757TIP3   OH232761   0.397   3.353  12.261 -0.6931  0.3807 -0.1724
 3757TIP3    H132762   0.379   3.299  12.338  0.5759  0.4285  0.1850
 3757TIP3    H232763   0.370   3.300  12.187 -2.2361  0.4520  0.2958
 3758TIP3   OH232764   6.580   0.132  11.258 -0.5098 -0.4618 -0.1246
 3758TIP3    H132765   6.595   0.085  11.340 -1.1545  0.9228  0.8307
 3758TIP3    H232766   6.638   0.090  11.195  1.6394 -0.1776  1.5612
 3759TIP3   OH232767   2.234   6.503   1.221  0.1164 -0.1647  0.0000
 3759TIP3    H132768   2.218   6.572   1.286 -3.2693 -1.0463  0.2968
 3759TIP3    H232769   2.191   6.536   1.141  0.1426 -1.1034 -0.4093
 3760TIP3   OH232770   5.696   4.940  13.491  0.3484  0.1502  0.6582
 3760TIP3    H132771   5.749   4.977  13.420  1.2380  0.3914  1.4348
 3760TIP3    H232772   5.743   4.861  13.518  0.5329  0.5721  1.6097
 3761TIP3   OH232773   2.356   1.906  13.127  0.4704 -0.0432  0.0291
 3761TIP3    H132774   2.423   1.840  13.142  0.2017 -0.4484 -0.5495
 3761TIP3    H232775   2.290   1.889  13.194  0.7087  0.0459  0.2877
 3762TIP3   OH232776   5.467   3.498  14.971  0.1286 -0.3466  0.0294
 3762TIP3    H132777   5.511   3.582  14.983  1.2099 -1.0693  1.4679
 3762TIP3    H232778   5.526   3.447  14.916 -1.6399  0.5861 -2.9294
 3763TIP3   OH232779   3.735   1.949  11.710  0.0450  0.3178 -0.3745
 3763TIP3    H132780   3.725   1.956  11.805  0.4723  0.3383 -0.3308
 3763TIP3    H232781   3.670   1.884  11.684  0.4879 -0.2937  0.0309
 3764TIP3   OH232782   1.788   0.940  16.551 -0.0909 -0.4145 -0.1625
 3764TIP3    H132783   1.860   0.970  16.497 -1.0758  1.5701 -0.4758
 3764TIP3    H232784   1.734   0.888  16.492  0.3206 -0.6672 -0.3189
 3765TIP3   OH232785   4.477   5.372   0.373  0.0135  0.6977  0.5175
 3765TIP3    H132786   4.393   5.370   0.419 -0.2843  0.2115 -0.0278
 3765TIP3    H232787   4.459   5.419   0.291 -0.5698 -2.0960 -1.1032
 3766TIP3   OH232788   3.348   4.285  13.407  0.1425 -0.2718 -0.3144
 3766TIP3    H132789   3.371   4.299  13.315  2.5079 -0.9287  0.1013
 3766TIP3    H232790   3.343   4.189  13.416 -1.3538 -0.1827 -0.0209
 3767TIP3   OH232791   4.887   6.212   4.760 -0.3540 -0.5300 -0.2286
 3767TIP3    H132792   4.927   6.290   4.798  0.2794 -0.7525 -0.4169
 3767TIP3    H232793   4.809   6.245   4.714  0.0444  0.0259 -0.5175
 3768TIP3   OH232794   1.497   3.857   2.421 -0.2797 -0.6717  0.0738
 3768TIP3    H132795   1.484   3.913   2.344  0.0413  0.6865  0.9728
 3768TIP3    H232796   1.441   3.781   2.404  0.7287 -1.0291 -2.0607
 3769TIP3   OH232797   2.080   5.007  12.964  0.5763  0.0177  0.4191
 3769TIP3    H132798   2.118   4.926  12.929  1.0452  0.1872  0.5387
 3769TIP3    H232799   2.079   5.067  12.890 -0.0669 -0.1951  0.2457
 3770TIP3   OH232800   0.617   2.747  13.795  0.2088 -0.0535 -0.2054
 3770TIP3    H132801   0.548   2.682  13.781  0.8557 -0.6345 -0.7279
 3770TIP3    H232802   0.618   2.800  13.716  0.5267 -0.1995 -0.3006
 3771TIP3   OH232803   1.733   5.692  12.650  0.0513 -0.1048  0.4504
 3771TIP3    H132804   1.720   5.768  12.595 -0.6122  0.0997  0.8762
 3771TIP3    H232805   1.672   5.704  12.723  0.9386 -0.3368  1.2623
 3772TIP3   OH232806   6.783   1.560   6.049  0.3502  0.8684 -0.0372
 3772TIP3    H132807   6.861   1.512   6.076 -0.3591 -1.8151 -2.3073
 3772TIP3    H232808   6.720   1.545   6.120 -0.1713 -2.6590 -1.0450
 3773TIP3   OH232809   6.323   2.301   5.109 -0.3963  0.2217 -0.0611
 3773TIP3    H132810   6.245   2.317   5.163  0.9344  1.0819  1.7272
 3773TIP3    H232811   6.384   2.257   5.168  1.4764  2.0109 -0.5408
 3774TIP3   OH232812   3.225   3.362  14.766 -0.0177 -0.2992  0.2192
 3774TIP3    H132813   3.298   3.367  14.828  0.4271  1.9900 -0.3876
 3774TIP3    H232814   3.203   3.270  14.763  0.8723 -0.6801  2.7080
 3775TIP3   OH232815   5.337   6.614   5.411 -0.3209  0.1392  0.4671
 3775TIP3    H132816   5.341   6.614   5.506  1.2205  1.8563  0.4583
 3775TIP3    H232817   5.426   6.591   5.383 -1.0032 -1.3894 -0.5977
 3776TIP3   OH232818   1.984   5.529  10.586 -0.1276 -0.0126  0.5654
 3776TIP3    H132819   2.019   5.538  10.674 -2.4938  0.7738  1.4988
 3776TIP3    H232820   1.902   5.480  10.597 -1.8830  2.4213 -0.7658
 3777TIP3   OH232821   0.492   0.846   1.238 -0.1388  0.1229  0.8227
 3777TIP3    H132822   0.491   0.902   1.316 -3.6584 -0.1877  1.1526
 3777TIP3    H232823   0.410   0.798   1.242 -0.0466 -0.5701 -2.6406
 3778TIP3   OH232824   3.928   4.081  16.308  0.1416 -0.7986  0.0229
 3778TIP3    H132825   3.901   4.047  16.222  1.8871 -1.5894 -0.2578
 3778TIP3    H232826   4.011   4.037  16.326  0.5725  0.5056  1.4290
 3779TIP3   OH232827   5.599   6.598   3.808 -0.3452  0.2280 -0.1253
 3779TIP3    H132828   5.638   6.533   3.750 -0.4384 -0.7167  0.8521
 3779TIP3    H232829   5.549   6.655   3.750 -0.2427 -0.5551 -0.9956
 3780TIP3   OH232830   1.315   4.677   2.201  0.3014 -0.1301  0.0329
 3780TIP3    H132831   1.334   4.742   2.133  0.6617 -1.4817 -1.2048
 3780TIP3    H232832   1.401   4.656   2.238  0.4784 -1.3804 -1.0046
 3781TIP3   OH232833   5.351   5.085  13.621  0.0730 -0.5504  1.0292
 3781TIP3    H132834   5.430   5.127  13.586  0.5725 -1.5741  0.8893
 3781TIP3    H232835   5.307   5.049  13.544 -1.3888  1.3493  0.9030
 3782TIP3   OH232836   0.819   4.184   0.863  0.2322 -0.4318  0.1498
 3782TIP3    H132837   0.907   4.152   0.845  1.0779  0.9827  1.5137
 3782TIP3    H232838   0.799   4.242   0.790  0.3578 -0.8642 -0.2338
 3783TIP3   OH232839   2.019   3.216  12.673  0.0159 -0.1334  0.3340
 3783TIP3    H132840   1.926   3.223  12.653 -0.2782 -1.1450  1.2509
 3783TIP3    H232841   2.031   3.272  12.749  0.8784  2.6883 -1.7162
 3784TIP3   OH232842   6.010   1.986   2.459 -0.2057  0.0303 -0.2947
 3784TIP3    H132843   6.054   2.050   2.404  1.3903 -1.3260 -0.6819
 3784TIP3    H232844   6.002   2.029   2.545  0.7579  0.7736 -0.5597
 3785TIP3   OH232845   4.004   4.968   2.872 -0.1180  0.2138  0.1482
 3785TIP3    H132846   3.996   4.880   2.911 -0.8289 -0.1267 -0.7290
 3785TIP3    H232847   4.096   4.973   2.846 -0.4981 -1.1182 -1.6610
 3786TIP3   OH232848   2.838   3.657   4.546  0.3964  0.0032  1.0581
 3786TIP3    H132849   2.881   3.599   4.483 -0.9810 -0.1824  0.2520
 3786TIP3    H232850   2.876   3.634   4.630  2.3949  0.3567  0.3108
 3787TIP3   OH232851   3.361   6.679   4.353  0.2736  0.1993 -0.5245
 3787TIP3    H132852   3.382   6.771   4.366 -3.8415  1.2938 -0.4486
 3787TIP3    H232853   3.384   6.638   4.437 -0.9933  1.8695  0.7005
 3788TIP3   OH232854   1.377   2.444   3.853 -0.3910 -0.6968  0.5610
 3788TIP3    H132855   1.307   2.504   3.826  2.7970  3.7432  0.9407
 3788TIP3    H232856   1.446   2.458   3.789  0.8965 -3.4990  1.2102
 3789TIP3   OH232857   5.784   1.339   2.155 -0.1689  0.2235 -0.1812
 3789TIP3    H132858   5.749   1.320   2.242  2.8594 -0.5542  0.9998
 3789TIP3    H232859   5.783   1.434   2.148 -2.5929  0.2383 -0.3334
 3790TIP3   OH232860   0.130   0.864   5.440 -0.1964  0.4671 -0.0046
 3790TIP3    H132861   0.060   0.929   5.438 -1.0976 -0.3777 -3.4752
 3790TIP3    H232862   0.084   0.780   5.428  1.2092 -0.4879  0.9925
 3791TIP3   OH232863   6.277   2.837   0.993  0.1006  0.4763 -0.1950
 3791TIP3    H132864   6.306   2.831   0.902  0.7249  3.2532 -0.2795
 3791TIP3    H232865   6.200   2.894   0.989  0.2610  0.8027  1.0265
 3792TIP3   OH232866   3.429   0.223  15.407 -0.1486  0.4692  0.1909
 3792TIP3    H132867   3.473   0.154  15.456  1.3386 -0.0088 -1.7006
 3792TIP3    H232868   3.413   0.292  15.472  0.1230 -0.8396  1.6939
 3793TIP3   OH232869   4.785   5.841  11.700 -0.9106  0.3758  0.3758
 3793TIP3    H132870   4.708   5.803  11.741 -0.0182 -1.4781  0.4322
 3793TIP3    H232871   4.780   5.814  11.609  0.7528 -1.7126  0.8301
 3794TIP3   OH232872   3.928   3.031  16.660  0.1465 -0.1321  0.8906
 3794TIP3    H132873   3.876   2.962  16.701 -1.0805  0.1327 -0.1567
 3794TIP3    H232874   3.897   3.112  16.702 -1.4235  0.1902 -0.7329
 3795TIP3   OH232875   4.199   0.286   3.700 -0.6784 -0.5167 -0.1086
 3795TIP3    H132876   4.137   0.346   3.657 -1.6323  0.1009  2.0068
 3795TIP3    H232877   4.271   0.342   3.727 -0.9172 -0.5593  0.6382
 3796TIP3   OH232878   6.343   6.424  11.382  0.4464 -0.0762 -0.5848
 3796TIP3    H132879   6.321   6.432  11.289  4.4856  1.5792 -1.6487
 3796TIP3    H232880   6.312   6.505  11.422  0.7430  0.2837 -1.0719
 3797TIP3   OH232881   4.734   4.343   1.834  1.1445  0.6672  0.1005
 3797TIP3    H132882   4.662   4.354   1.773  0.9612  1.8334  0.4996
 3797TIP3    H232883   4.772   4.258   1.812 -1.8091 -1.1374  1.4400
 3798TIP3   OH232884   5.776   0.906   5.637 -0.5623 -0.0062  0.3286
 3798TIP3    H132885   5.693   0.942   5.605 -0.0485  1.7503  0.8517
 3798TIP3    H232886   5.777   0.930   5.730  0.8230  0.5856  0.1761
 3799TIP3   OH232887   2.028   2.132  13.307 -0.1885 -0.1959 -0.2479
 3799TIP3    H132888   1.995   2.198  13.246 -1.4057  0.1702  0.7697
 3799TIP3    H232889   1.955   2.072  13.320  1.0661 -2.1212 -1.5728
 3800TIP3   OH232890   0.592   1.892   5.869 -0.5011  0.3668 -0.9494
 3800TIP3    H132891   0.571   1.875   5.777 -0.4117  0.3862 -0.9740
 3800TIP3    H232892   0.514   1.933   5.905 -1.2346 -1.2801 -0.5589
 3801TIP3   OH232893   0.147   1.676   2.357 -0.1574 -0.0800  0.6267
 3801TIP3    H132894   0.127   1.609   2.422  1.9107 -3.2264 -1.6643
 3801TIP3    H232895   0.079   1.668   2.291 -0.1950  0.4715  0.5915
 3802TIP3   OH232896   1.413   1.518  13.692  0.1883  0.0346 -0.0461
 3802TIP3    H132897   1.395   1.459  13.619 -0.0026  1.5785 -1.3029
 3802TIP3    H232898   1.490   1.480  13.735 -0.3965 -1.5293 -0.3303
 3803TIP3   OH232899   1.666   4.864  14.087  0.0340  0.5207 -0.1848
 3803TIP3    H132900   1.651   4.842  14.179  0.9383 -1.0100 -0.3808
 3803TIP3    H232901   1.690   4.957  14.089 -1.5245  0.9269  0.9346
 3804TIP3   OH232902   4.254   1.076   4.674  0.0624  0.3273  0.4683
 3804TIP3    H132903   4.211   1.140   4.618  0.1674 -1.3380 -1.6264
 3804TIP3    H232904   4.340   1.063   4.634  0.0945 -1.0044  0.9327
 3805TIP3   OH232905   6.605   3.261   1.891 -0.0697 -0.5459  0.0961
 3805TIP3    H132906   6.668   3.189   1.893  0.5361 -0.0010  0.7400
 3805TIP3    H232907   6.566   3.256   1.803  1.2760 -0.5339 -0.5219
 3806TIP3   OH232908   6.734   2.452   5.371 -0.4760  0.6987 -0.2671
 3806TIP3    H132909   6.650   2.429   5.413  0.6314 -0.0102  1.7046
 3806TIP3    H232910   6.800   2.413   5.428  1.1909 -0.3089 -2.7459
 3807TIP3   OH232911   1.200   0.082  13.959  0.2969  0.6499  0.1677
 3807TIP3    H132912   1.158   0.165  13.938 -1.3211  0.0660  0.9256
 3807TIP3    H232913   1.138   0.016  13.928  1.1563 -0.2644  0.3608
 3808TIP3   OH232914   2.849   4.190  16.286  0.3642  0.1776 -0.2889
 3808TIP3    H132915   2.834   4.284  16.291 -0.8982 -0.0162  0.2240
 3808TIP3    H232916   2.848   4.161  16.378  0.4789 -0.3577 -0.4497
 3809TIP3   OH232917   3.998   4.608   0.356 -0.4684  0.1987 -0.8631
 3809TIP3    H132918   4.032   4.540   0.413 -0.4549  0.5737 -0.4175
 3809TIP3    H232919   4.073   4.667   0.343 -0.1848 -0.3962 -2.0622
 3810TIP3   OH232920   0.473   1.452  16.858 -0.0783  0.1107  0.2462
 3810TIP3    H132921   0.460   1.450  16.764  0.9033  0.5505  0.0883
 3810TIP3    H232922   0.518   1.370  16.878  1.9665  1.0995 -0.0590
 3811TIP3   OH232923   6.303   6.795   1.643 -0.5774 -0.8200  0.1000
 3811TIP3    H132924   6.247   6.732   1.599 -1.3646 -0.4558  0.5668
 3811TIP3    H232925   6.386   6.748   1.657 -0.5303 -1.1578 -1.1462
 3812TIP3   OH232926   6.534   0.540  13.012 -0.5483 -0.2068  0.4423
 3812TIP3    H132927   6.451   0.517  12.970 -0.2048 -2.7721  1.0487
 3812TIP3    H232928   6.599   0.534  12.942 -0.4419 -1.2732  0.6256
 3813TIP3   OH232929   4.679   3.989  13.341  0.4271 -0.2738  0.0157
 3813TIP3    H132930   4.698   4.082  13.355 -0.5641 -0.1479  0.6499
 3813TIP3    H232931   4.603   3.972  13.396 -0.5874 -0.9838 -1.5287
 3814TIP3   OH232932   2.942   4.597   6.209 -0.4192 -0.5182  0.2488
 3814TIP3    H132933   2.990   4.515   6.216  1.8074  0.6184 -0.7155
 3814TIP3    H232934   2.927   4.607   6.115 -1.0056  0.0025  0.3942
 3815TIP3   OH232935   0.920   0.108  11.463  0.4834  0.1896 -0.3024
 3815TIP3    H132936   0.933   0.190  11.414  0.1096  0.7976  0.5783
 3815TIP3    H232937   0.834   0.119  11.505  0.4232 -0.6689 -0.1895
 3816TIP3   OH232938   4.768   4.759  11.101 -0.3935  0.5145  0.3319
 3816TIP3    H132939   4.683   4.730  11.136 -1.5627  3.0660 -0.2097
 3816TIP3    H232940   4.747   4.799  11.017  1.5594  0.1211 -0.3892
 3817TIP3   OH232941   0.959   1.882  17.014  0.0625  0.6729 -0.0372
 3817TIP3    H132942   1.038   1.917  17.056 -0.8948  1.0458  1.5474
 3817TIP3    H232943   0.971   1.901  16.921  0.8389  2.7480  0.4202
 3818TIP3   OH232944   4.780   4.392   5.645 -0.1894  0.0885 -0.2024
 3818TIP3    H132945   4.788   4.299   5.622 -1.4378  0.6224 -3.2675
 3818TIP3    H232946   4.686   4.408   5.646  0.0379  1.5786 -0.9462
 3819TIP3   OH232947   4.324   1.045   3.652 -0.0969 -0.0074  0.0288
 3819TIP3    H132948   4.270   0.984   3.702  2.1926 -1.8825  0.3917
 3819TIP3    H232949   4.370   1.096   3.719 -1.6888  1.9512 -0.2730
 3820TIP3   OH232950   0.481   0.622  14.639  0.8115 -0.2738 -0.1728
 3820TIP3    H132951   0.516   0.696  14.589  1.5920  1.1512  2.3354
 3820TIP3    H232952   0.386   0.628  14.628  0.4980  3.3307  2.6863
 3821TIP3   OH232953   0.134   6.220  16.506  0.5613 -0.3449 -0.6868
 3821TIP3    H132954   0.206   6.227  16.443  0.6321 -1.3662 -0.7304
 3821TIP3    H232955   0.175   6.186  16.586  0.7465  2.2834  0.4390
 3822TIP3   OH232956   2.053   2.206  13.787  0.0009  0.0608  0.1847
 3822TIP3    H132957   2.120   2.188  13.721  1.9241  0.2367  1.9480
 3822TIP3    H232958   2.010   2.285  13.757  0.3797 -0.2213 -1.1688
 3823TIP3   OH232959   3.091   2.921  15.341  0.1069 -0.4927 -0.0101
 3823TIP3    H132960   3.034   2.868  15.397 -1.7523 -1.0731 -2.2685
 3823TIP3    H232961   3.038   2.998  15.320  0.3563 -0.7350 -1.6476
 3824TIP3   OH232962   4.660   4.209   4.007 -0.3694 -0.3056  0.1600
 3824TIP3    H132963   4.668   4.304   3.999  0.9667 -0.4841 -1.2412
 3824TIP3    H232964   4.738   4.175   3.963 -0.4455 -2.0431  1.2643
 3825TIP3   OH232965   4.987   1.475  13.916  0.0024  0.1218  0.0196
 3825TIP3    H132966   5.049   1.486  13.988  1.7286 -1.9473 -1.0636
 3825TIP3    H232967   4.929   1.404  13.945 -0.4164  0.4767  0.0671
 3826TIP3   OH232968   1.885   0.717   3.792 -0.2447  0.5367 -0.0067
 3826TIP3    H132969   1.932   0.796   3.763 -0.8974  1.0271  0.2306
 3826TIP3    H232970   1.944   0.676   3.855  0.2598  0.6359 -0.4096
 3827TIP3   OH232971   3.140   1.310  17.089 -0.2274  0.4677  0.0635
 3827TIP3    H132972   3.211   1.305  17.153 -0.0540  0.0322 -0.1550
 3827TIP3    H232973   3.157   1.391  17.042  0.2186  0.2960 -0.0835
 3828TIP3   OH232974   6.299   5.710  15.168  0.2008 -0.1761  0.9568
 3828TIP3    H132975   6.357   5.636  15.185 -1.7128 -1.9850  0.1258
 3828TIP3    H232976   6.212   5.678  15.192 -0.8629  1.4007 -0.5165
 3829TIP3   OH232977   0.689   1.320   4.530  0.5541  0.1182 -0.3351
 3829TIP3    H132978   0.682   1.275   4.615 -0.7145  0.5557 -0.1880
 3829TIP3    H232979   0.780   1.349   4.526  0.5491  0.4149  1.0543
 3830TIP3   OH232980   6.647   1.246   1.928 -0.2238  0.4105  0.8234
 3830TIP3    H132981   6.720   1.194   1.960  1.0561  2.0192  0.6349
 3830TIP3    H232982   6.611   1.194   1.856 -0.2294 -1.0890  1.8682
 3831TIP3   OH232983   2.054   6.444  16.022 -0.5056 -0.4272  0.2387
 3831TIP3    H132984   2.144   6.474  16.033 -1.2516  1.3493  2.2944
 3831TIP3    H232985   2.028   6.476  15.936  1.0150 -1.6041 -0.7028
 3832TIP3   OH232986   1.930   0.056  13.657  0.2873 -0.2814 -0.3249
 3832TIP3    H132987   1.900  -0.025  13.698 -0.3959  0.3791  0.5133
 3832TIP3    H232988   2.013   0.033  13.615  0.8879 -1.0587  1.2160
 3833TIP3   OH232989   0.242   3.616  14.355  0.3174  0.3904  0.4464
 3833TIP3    H132990   0.211   3.676  14.423 -0.0788 -1.2099  1.7447
 3833TIP3    H232991   0.331   3.645  14.335 -0.0573  1.7248  0.6338
 3834TIP3   OH232992   6.030   4.058  12.119 -0.3264  0.1830  0.3332
 3834TIP3    H132993   5.998   4.015  12.040  0.0147  0.7983 -0.1407
 3834TIP3    H232994   5.952   4.069  12.174 -0.5779 -0.1537  0.0446
 3835TIP3   OH232995   1.448   0.940   5.110 -0.3185  0.1306  0.1552
 3835TIP3    H132996   1.532   0.897   5.092 -0.4193  0.1436 -0.3415
 3835TIP3    H232997   1.447   0.951   5.206 -0.2836 -0.9502  0.2924
 3836TIP3   OH232998   1.159   1.446   3.212 -0.2168  0.1288  0.0026
 3836TIP3    H132999   1.199   1.533   3.203 -0.1154  0.4343  2.6647
 3836TIP3    H233000   1.234   1.387   3.224 -0.3773  0.1091  0.9815
 3837TIP3   OH233001   6.755   1.332  14.233 -0.0121 -0.2018  0.0751
 3837TIP3    H133002   6.813   1.399  14.198 -0.9892  2.0655  2.4563
 3837TIP3    H233003   6.812   1.278  14.288  0.1930  0.9103  0.9805
 3838TIP3   OH233004   2.456   2.604   4.704  0.1416  0.1239  0.1596
 3838TIP3    H133005   2.493   2.626   4.790  0.6051 -0.2875  0.0721
 3838TIP3    H233006   2.454   2.687   4.657  1.0233  0.1447  0.1461
 3839TIP3   OH233007   6.483   0.485   5.694  0.6038  0.1362  0.1430
 3839TIP3    H133008   6.456   0.416   5.634  0.6530  0.2062  0.0396
 3839TIP3    H233009   6.524   0.439   5.767  1.6699  0.1071 -0.4503
 3840TIP3   OH233010   4.850   0.774  15.059 -0.5187  0.1102 -0.2572
 3840TIP3    H133011   4.929   0.764  15.113  0.0048  1.3350 -0.7730
 3840TIP3    H233012   4.854   0.700  14.998 -0.7090 -0.8446  0.8296
 3841TIP3   OH233013   1.784   0.025   1.215 -0.0433  0.7771 -0.1530
 3841TIP3    H133014   1.817  -0.046   1.270 -0.5024  0.2566 -0.5355
 3841TIP3    H233015   1.802   0.105   1.265  0.2981  0.3769  0.3712
 3842TIP3   OH233016   0.993   2.571  14.791  0.0699  0.0058 -0.5002
 3842TIP3    H133017   0.962   2.616  14.713 -0.0023  0.2245 -0.3466
 3842TIP3    H233018   0.973   2.630  14.863 -0.5861 -0.5468 -0.2215
 3843TIP3   OH233019   3.614   4.269   3.007 -0.1065  0.6644 -0.8619
 3843TIP3    H133020   3.588   4.236   3.093 -0.1624  0.4366 -0.9655
 3843TIP3    H233021   3.696   4.223   2.987  0.9467  2.1040 -0.0970
 3844TIP3   OH233022   1.121   4.745  13.724 -0.1309 -0.0749  0.7306
 3844TIP3    H133023   1.081   4.659  13.724  0.4820 -0.5090 -2.5307
 3844TIP3    H233024   1.075   4.793  13.655  0.5166  1.7044  1.4663
 3845TIP3   OH233025   0.599   0.565  11.930  0.1759  0.0697  0.7897
 3845TIP3    H133026   0.622   0.597  12.016  0.1442 -0.0128  0.8288
 3845TIP3    H233027   0.554   0.639  11.888 -2.1888 -0.6935  1.7897
 3846TIP3   OH233028   4.488   4.413  13.352 -0.1293 -0.1517  0.1863
 3846TIP3    H133029   4.471   4.446  13.264  0.1956 -0.4615  0.0018
 3846TIP3    H233030   4.483   4.318  13.343  2.7891 -0.3631 -0.1625
 3847TIP3   OH233031   1.611   0.336   5.996 -0.0479  0.4071  0.4694
 3847TIP3    H133032   1.607   0.427   6.026 -0.7628 -0.3261  2.7670
 3847TIP3    H233033   1.698   0.327   5.957  0.7108  1.6256  1.7995
 3848TIP3   OH233034   4.314   2.722   6.552  0.2923  0.2029  0.1000
 3848TIP3    H133035   4.239   2.760   6.507 -0.4959  0.5554  1.6348
 3848TIP3    H233036   4.366   2.797   6.579 -0.0963  0.0965  1.1769
 3849TIP3   OH233037   0.307   3.883  13.443  0.1340  0.0041 -0.2207
 3849TIP3    H133038   0.212   3.871  13.448 -0.1770  2.0729 -0.4930
 3849TIP3    H233039   0.322   3.923  13.357  1.3389 -0.8197 -0.4270
 3850TIP3   OH233040   6.003   0.721  12.350  0.5517  0.7981  0.1579
 3850TIP3    H133041   6.045   0.721  12.436 -1.4861 -1.1293  1.2692
 3850TIP3    H233042   6.028   0.805  12.311  2.5422  1.1977  2.1020
 3851TIP3   OH233043   2.359   0.649   2.486 -0.5099  0.0765  0.4649
 3851TIP3    H133044   2.322   0.683   2.404  1.2712 -1.3322 -1.0037
 3851TIP3    H233045   2.290   0.592   2.521 -1.7536  1.6038  0.6218
 3852TIP3   OH233046   0.803   1.992  13.828 -0.3969 -0.1649  0.1095
 3852TIP3    H133047   0.752   2.039  13.762 -0.5805 -1.6434 -0.8691
 3852TIP3    H233048   0.880   2.047  13.843  0.0991 -0.1759 -2.0317
 3853TIP3   OH233049   1.663   5.869  11.994  0.4841  0.2572 -0.4299
 3853TIP3    H133050   1.744   5.899  12.035  0.9659  1.4740 -2.1847
 3853TIP3    H233051   1.594   5.915  12.042  0.8404 -0.2981  0.6541
 3854TIP3   OH233052   3.821   6.006   5.661 -0.1440 -0.4283 -0.5031
 3854TIP3    H133053   3.740   5.965   5.691  0.5044 -2.2009 -1.0780
 3854TIP3    H233054   3.888   5.939   5.673  1.0035  0.5299 -1.3289
 3855TIP3   OH233055   6.741   1.036  10.503 -0.2028  0.1799  0.4327
 3855TIP3    H133056   6.743   0.995  10.416 -2.5798 -0.7590  0.7218
 3855TIP3    H233057   6.683   1.111  10.492 -1.5955 -0.6968  1.4239
 3856TIP3   OH233058   4.770   0.244  16.737 -0.0100  0.3333 -0.1646
 3856TIP3    H133059   4.752   0.166  16.788  2.3807  0.2969  0.7175
 3856TIP3    H233060   4.791   0.211  16.649 -2.3770  0.2908 -0.7997
 3857TIP3   OH233061   5.992   5.889  12.162  0.1895  0.1738  0.1268
 3857TIP3    H133062   6.030   5.895  12.075  0.2787  0.9329  0.2089
 3857TIP3    H233063   5.933   5.965  12.168 -1.0131 -0.7401  0.1548
 3858TIP3   OH233064   3.851   1.763   5.747 -0.0435  0.2217  0.6385
 3858TIP3    H133065   3.911   1.818   5.797  0.3298  0.1164  0.3132
 3858TIP3    H233066   3.875   1.673   5.770 -0.5628  0.1871  1.0675
 3859TIP3   OH233067   5.554   4.653   5.169 -0.1149  0.2134 -0.2238
 3859TIP3    H133068   5.534   4.573   5.217  1.0548  0.3921  0.5861
 3859TIP3    H233069   5.601   4.623   5.091  0.0671  0.0950 -0.0683
 3860TIP3   OH233070   2.287   4.087   2.797 -0.5904 -0.6867 -0.1031
 3860TIP3    H133071   2.198   4.063   2.771 -0.2068  0.3931 -2.6849
 3860TIP3    H233072   2.290   4.182   2.789  0.0242 -0.3490  2.8455
 3861TIP3   OH233073   3.815   3.698   2.263  0.1618  0.4437  0.0399
 3861TIP3    H133074   3.844   3.636   2.330  2.5399 -0.0125 -1.2833
 3861TIP3    H233075   3.779   3.643   2.193  2.2807  0.4326 -1.1385
 3862TIP3   OH233076   5.596   2.427  12.529 -0.0382 -0.2674 -0.9372
 3862TIP3    H133077   5.649   2.489  12.579  1.0183 -0.4310 -1.8326
 3862TIP3    H233078   5.625   2.437  12.439 -1.6222 -0.2723 -1.4944
 3863TIP3   OH233079   0.072   2.250   1.302 -0.1957  0.1140 -0.2861
 3863TIP3    H133080   0.065   2.159   1.331 -0.0069 -0.1608 -1.0599
 3863TIP3    H233081   0.131   2.291   1.366 -0.8974 -0.1019  0.5105
 3864TIP3   OH233082   2.145   6.805   3.392 -0.4259 -0.2842 -0.1652
 3864TIP3    H133083   2.103   6.890   3.385 -2.1032 -1.0317  0.2005
 3864TIP3    H233084   2.215   6.817   3.456  0.0018  1.0318 -0.8641
 3865TIP3   OH233085   1.378   4.855   0.353  0.0464  0.1453 -0.2175
 3865TIP3    H133086   1.412   4.937   0.318 -0.4854  0.1308 -0.7744
 3865TIP3    H233087   1.287   4.852   0.325  0.1307 -0.7585 -0.4372
 3866TIP3   OH233088   4.738   6.334   5.947 -0.1630 -0.1476 -0.2391
 3866TIP3    H133089   4.712   6.243   5.935 -0.4951  0.0150 -0.8183
 3866TIP3    H233090   4.796   6.333   6.022 -1.4211 -0.6038  0.7646
 3867TIP3   OH233091   2.775   0.256  10.498 -0.3585  0.3726 -0.3160
 3867TIP3    H133092   2.692   0.299  10.477 -1.0257 -0.9426 -0.4903
 3867TIP3    H233093   2.787   0.193  10.427 -0.4821 -1.1872  1.0020
 3868TIP3   OH233094   0.634   6.548  12.454  0.5571  0.0739 -0.0791
 3868TIP3    H133095   0.655   6.496  12.531  1.8242  0.8282  0.1122
 3868TIP3    H233096   0.654   6.490  12.380  1.5956  0.1574  0.1319
 3869TIP3   OH233097   3.753   1.173  12.479  0.3024  0.1608 -0.0535
 3869TIP3    H133098   3.743   1.142  12.569 -0.1930  0.3947 -0.0288
 3869TIP3    H233099   3.840   1.142  12.453  0.5658  0.3277  0.6021
 3870TIP3   OH233100   4.434   3.799  12.349  0.2870 -0.3107  0.1547
 3870TIP3    H133101   4.473   3.851  12.419 -0.4412  1.3145 -0.5807
 3870TIP3    H233102   4.433   3.857  12.273  0.4754 -1.8083 -1.0534
 3871TIP3   OH233103   0.376   3.942   1.342  0.0645 -0.3820 -0.4915
 3871TIP3    H133104   0.286   3.916   1.322  0.1471 -0.8946 -0.2448
 3871TIP3    H233105   0.373   3.969   1.434  0.1430 -0.3093 -0.5101
 3872TIP3   OH233106   3.224   5.519  16.981 -1.0093 -0.1582 -0.2186
 3872TIP3    H133107   3.212   5.549  17.071  2.9923 -0.9267  0.7724
 3872TIP3    H233108   3.262   5.595  16.935 -2.7636  0.1416 -1.2628
 3873TIP3   OH233109   6.053   3.533   0.920  0.2218 -0.3275  0.5443
 3873TIP3    H133110   5.967   3.494   0.935 -0.3027  0.0537 -1.2070
 3873TIP3    H233111   6.107   3.500   0.991 -0.8937 -2.0708  0.6385
 3874TIP3   OH233112   2.440   3.969  11.063  0.6161  0.4400 -0.0152
 3874TIP3    H133113   2.439   3.880  11.098 -1.4105 -0.8729 -2.9350
 3874TIP3    H233114   2.530   3.999  11.074  1.2633 -1.8146  1.3851
 3875TIP3   OH233115   6.397   4.840   4.826  0.1269  0.0063  0.7006
 3875TIP3    H133116   6.411   4.767   4.887  2.6868 -0.3560 -0.1859
 3875TIP3    H233117   6.359   4.800   4.748  2.0272 -0.5623  0.0082
 3876TIP3   OH233118   1.496   2.423  11.684 -0.2242 -0.3408  0.1020
 3876TIP3    H133119   1.456   2.366  11.750  2.3838 -0.2588  1.9158
 3876TIP3    H233120   1.541   2.364  11.624 -0.1929 -0.3209  0.1055
 3877TIP3   OH233121   6.345   4.128   4.044 -0.2162  0.3629 -0.7353
 3877TIP3    H133122   6.372   4.217   4.066 -2.7836  1.2411 -0.7304
 3877TIP3    H233123   6.282   4.104   4.112 -0.1216 -1.1661 -1.1457
 3878TIP3   OH233124   1.487   1.692   2.995 -0.2242 -0.8292 -0.6001
 3878TIP3    H133125   1.563   1.739   3.030 -0.4520 -1.6478  1.1095
 3878TIP3    H233126   1.437   1.759   2.949 -0.4187  0.6377  1.5604
 3879TIP3   OH233127   4.885   3.890  11.515 -0.2118 -0.0942 -0.0187
 3879TIP3    H133128   4.889   3.811  11.569 -2.8509 -0.2189  0.1238
 3879TIP3    H233129   4.965   3.887  11.463  1.2155 -1.2873  2.0589
 3880TIP3   OH233130   3.913   1.525   5.853  0.4762  0.3582 -0.2602
 3880TIP3    H133131   3.834   1.471   5.859  0.0385  1.1125  1.6060
 3880TIP3    H233132   3.975   1.484   5.913  0.6748  1.0452  0.0123
 3881TIP3   OH233133   3.788   5.408   5.926  0.2099  0.0689 -0.3942
 3881TIP3    H133134   3.774   5.502   5.929 -1.2222 -0.1114 -0.8060
 3881TIP3    H233135   3.817   5.391   5.836  2.0034  0.2850  0.1097
 3882TIP3   OH233136   1.406   2.585   0.248 -0.5492  0.2023 -0.1731
 3882TIP3    H133137   1.454   2.654   0.294  0.0476 -0.0526 -0.3934
 3882TIP3    H233138   1.467   2.512   0.246 -1.0113 -0.1818 -0.3379
 3883TIP3   OH233139   1.504   3.692   3.029 -0.2228  0.1276 -0.0374
 3883TIP3    H133140   1.470   3.653   2.948 -0.6272  0.7930 -0.1939
 3883TIP3    H233141   1.488   3.786   3.020 -0.2619  0.2141  0.8066
 3884TIP3   OH233142   3.809   2.847  14.782  0.0090 -0.1540  0.3711
 3884TIP3    H133143   3.742   2.790  14.819 -1.7370  0.5535 -1.5040
 3884TIP3    H233144   3.856   2.792  14.720 -1.4885  0.2737 -1.2256
 3885TIP3   OH233145   6.171   0.113   2.308  0.3220 -0.8052  0.5294
 3885TIP3    H133146   6.248   0.066   2.340 -0.8573 -1.7659  2.1120
 3885TIP3    H233147   6.163   0.188   2.367 -0.9927 -1.7421  1.5875
 3886TIP3   OH233148   3.693   6.300   6.195  0.3662  0.0357  0.2008
 3886TIP3    H133149   3.626   6.358   6.160  0.3632  0.2511  0.5642
 3886TIP3    H233150   3.743   6.354   6.257 -0.3883 -0.6415  1.4554
 3887TIP3   OH233151   5.729   3.774   2.341  0.6687  0.7402 -0.0799
 3887TIP3    H133152   5.714   3.793   2.434  0.1542 -0.6563  0.1566
 3887TIP3    H233153   5.651   3.726   2.314  0.8630  1.0573 -1.2155
 3888TIP3   OH233154   5.100   1.448   0.071 -0.3299  0.6087  0.5007
 3888TIP3    H133155   5.141   1.441   0.157  1.4310  2.1221 -0.1395
 3888TIP3    H233156   5.132   1.531   0.036 -0.4984 -0.2456 -1.8525
 3889TIP3   OH233157   6.447   2.228   0.857  0.1224 -0.9232  0.1236
 3889TIP3    H133158   6.540   2.250   0.867 -0.0366 -0.1280 -0.1291
 3889TIP3    H233159   6.435   2.216   0.763 -0.4160  0.7804 -0.0569
 3890TIP3   OH233160   2.355   0.197   4.509  0.2304  0.1096 -0.0132
 3890TIP3    H133161   2.307   0.266   4.463 -0.1619  0.6063  1.1185
 3890TIP3    H233162   2.372   0.131   4.441  0.0994  1.0354 -0.9816
 3891TIP3   OH233163   6.123   2.151   3.880  0.0210  0.3591 -0.6669
 3891TIP3    H133164   6.219   2.154   3.880  0.0448  1.7010 -2.4106
 3891TIP3    H233165   6.102   2.064   3.846  0.6783  0.6594 -1.9116
 3892TIP3   OH233166   5.383   3.861   5.969  0.2845  0.3560  0.0997
 3892TIP3    H133167   5.452   3.837   5.907 -0.1004  1.1160 -0.6326
 3892TIP3    H233168   5.343   3.778   5.994  2.7669 -0.3641  2.1401
 3893TIP3   OH233169   3.550   2.436   3.387  0.0535 -0.6300 -0.9277
 3893TIP3    H133170   3.634   2.432   3.431  0.1506  0.5501 -0.9790
 3893TIP3    H233171   3.502   2.361   3.420  0.5501 -0.4251  0.2980
 3894TIP3   OH233172   5.852   1.289   6.271 -0.4340 -0.3035 -0.1152
 3894TIP3    H133173   5.940   1.327   6.275 -0.7333  0.2856  2.2332
 3894TIP3    H233174   5.812   1.311   6.355 -2.3951 -1.6613 -0.6150
 3895TIP3   OH233175   1.312   0.927   2.925  0.3203  0.2170  0.1641
 3895TIP3    H133176   1.275   0.908   3.011  0.0167 -0.2087 -0.0588
 3895TIP3    H233177   1.331   1.021   2.927  0.5433  0.1640  0.7826
 3896TIP3   OH233178   3.043   1.224  15.051  0.0962  0.3409 -0.2027
 3896TIP3    H133179   3.012   1.134  15.036 -0.7298  0.5894 -0.0390
 3896TIP3    H233180   3.023   1.241  15.143 -0.6973  1.0446 -0.4907
 3897TIP3   OH233181   5.866   5.434  11.219 -0.1980 -0.4077 -0.4961
 3897TIP3    H133182   5.821   5.507  11.176 -0.5662 -1.3130 -1.6939
 3897TIP3    H233183   5.954   5.435  11.181 -0.3036 -0.7674 -0.7622
 3898TIP3   OH233184   4.743   0.922  12.770  0.8685  0.4224  0.1982
 3898TIP3    H133185   4.669   0.983  12.770  0.3706 -0.1477 -0.8167
 3898TIP3    H233186   4.786   0.937  12.685 -1.9436 -3.7054 -2.2694
 3899TIP3   OH233187   0.031   5.870   5.208  0.1126 -0.6583  0.2351
 3899TIP3    H133188   0.092   5.852   5.135  1.3334  3.1426  0.0747
 3899TIP3    H233189   0.088   5.880   5.284 -0.7459 -0.7789  0.9004
 3900TIP3   OH233190   1.459   6.653   3.566 -0.1401 -0.6413  0.4715
 3900TIP3    H133191   1.433   6.562   3.556 -0.0139 -0.5319 -1.0475
 3900TIP3    H233192   1.376   6.700   3.581 -0.7915 -0.4971 -2.8370
 3901TIP3   OH233193   1.603   5.430  11.934 -0.2978 -0.9077  0.2430
 3901TIP3    H133194   1.594   5.418  12.028  3.4162  1.3211  1.1212
 3901TIP3    H233195   1.561   5.514  11.916  0.1505 -0.6860  0.2067
 3902TIP3   OH233196   2.553   6.248   2.530  0.2955 -0.4427  0.5696
 3902TIP3    H133197   2.605   6.273   2.454 -0.4837 -0.7667 -0.0896
 3902TIP3    H233198   2.610   6.189   2.580  0.6342 -0.6331 -0.0272
 3903TIP3   OH233199   3.467   6.390   3.950 -0.5382  0.8324  0.6884
 3903TIP3    H133200   3.407   6.315   3.944  0.3538  0.0791  0.8698
 3903TIP3    H233201   3.424   6.451   4.009 -2.0854  1.2641 -0.7938
 3904TIP3   OH233202   4.927   1.404  14.655 -0.0624  0.0794  0.1031
 3904TIP3    H133203   4.895   1.315  14.669 -0.2428 -0.1731 -1.6961
 3904TIP3    H233204   4.850   1.453  14.624  0.4052  0.4294 -0.5349
 3905TIP3   OH233205   2.170   2.379   5.348  0.2864  0.2598 -0.1266
 3905TIP3    H133206   2.191   2.446   5.413  2.7133  0.7468 -1.2999
 3905TIP3    H233207   2.153   2.300   5.400  0.5079  1.0234  1.1593
 3906TIP3   OH233208   2.738   1.366   6.106  0.3556 -0.2102  0.2991
 3906TIP3    H133209   2.811   1.316   6.143  0.1492 -0.8436 -0.1303
 3906TIP3    H233210   2.660   1.324   6.142  0.1906  0.2577  0.4989
 3907TIP3   OH233211   1.175   3.814  11.173 -0.9006 -0.2563  0.0561
 3907TIP3    H133212   1.227   3.736  11.194  0.6473  0.6641 -0.1905
 3907TIP3    H233213   1.180   3.820  11.077 -1.1996  0.0244  0.0585
 3908TIP3   OH233214   6.583   3.848  14.892  0.1763  0.5103 -0.6516
 3908TIP3    H133215   6.618   3.935  14.909 -0.0519  0.5829 -0.5472
 3908TIP3    H233216   6.491   3.854  14.917  0.4667 -0.1506  0.6802
 3909TIP3   OH233217   3.388   2.952  13.164  0.4982 -0.3573 -0.2084
 3909TIP3    H133218   3.393   2.856  13.163  0.8492 -0.3642  0.8581
 3909TIP3    H233219   3.437   2.978  13.242 -0.7026  0.6140  0.2707
 3910TIP3   OH233220   5.243   4.830   5.061 -0.0175  0.5915  0.1066
 3910TIP3    H133221   5.329   4.850   5.024 -0.2281 -0.7436 -1.1949
 3910TIP3    H233222   5.260   4.763   5.126 -0.0940  0.1179 -0.3555
 3911TIP3   OH233223   2.012   5.004   0.146  0.2947 -0.5419  0.6542
 3911TIP3    H133224   1.998   4.910   0.139 -2.3326 -0.1174 -0.9228
 3911TIP3    H233225   1.943   5.035   0.205 -0.5297  0.6745 -0.8605
 3912TIP3   OH233226   0.700   6.077   1.878 -0.0057  0.5599 -0.1045
 3912TIP3    H133227   0.712   6.170   1.895  0.1699  0.7115 -0.9915
 3912TIP3    H233228   0.735   6.064   1.789 -0.1465 -0.3226 -0.0426
 3913TIP3   OH233229   4.306   3.790   4.318  0.0874 -0.0351 -0.4593
 3913TIP3    H133230   4.323   3.833   4.402  0.8566  0.3535 -0.8015
 3913TIP3    H233231   4.341   3.702   4.328 -0.0330 -0.0661 -0.3021
 3914TIP3   OH233232   6.432   5.906   3.089  0.1261  0.5785  0.0010
 3914TIP3    H133233   6.480   5.983   3.059  0.8468  0.2449  0.2835
 3914TIP3    H233234   6.432   5.847   3.014  2.4087 -0.4877  0.7542
 3915TIP3   OH233235   2.777   3.322  13.126  0.0206  0.3143  0.2367
 3915TIP3    H133236   2.798   3.245  13.178  0.6121  0.2409 -0.1062
 3915TIP3    H233237   2.710   3.368  13.177 -0.5110 -0.5473  0.3339
 3916TIP3   OH233238   0.891   6.437  12.575 -0.1509 -0.1183 -0.3155
 3916TIP3    H133239   0.936   6.486  12.643 -0.0385 -2.1894  1.2296
 3916TIP3    H233240   0.931   6.466  12.493  0.3795  1.7622  0.5556
 3917TIP3   OH233241   6.432   5.167  14.354  0.1749  0.5725 -0.1732
 3917TIP3    H133242   6.371   5.215  14.411  0.4855  0.7258  0.0306
 3917TIP3    H233243   6.446   5.084  14.399 -1.5146 -0.3533 -1.2342
 3918TIP3   OH233244   2.344   3.433   0.802 -0.2477 -0.2051 -0.7159
 3918TIP3    H133245   2.292   3.356   0.827  2.3494 -1.3968  1.5046
 3918TIP3    H233246   2.330   3.441   0.707 -4.2473 -0.4717 -0.3013
 3919TIP3   OH233247   2.973   0.233  10.175 -0.5692 -0.3268  0.4304
 3919TIP3    H133248   3.051   0.178  10.161  0.1611  0.7598  0.1321
 3919TIP3    H233249   2.921   0.184  10.238  0.8251 -0.6263  1.3950
 3920TIP3   OH233250   2.961   3.025   0.373  0.5223 -0.2527 -0.1299
 3920TIP3    H133251   2.954   3.120   0.363  0.8264 -0.2990 -0.8364
 3920TIP3    H233252   3.052   3.010   0.400  0.6159 -0.3780 -0.5076
 3921TIP3   OH233253   3.373   5.389  14.777  0.3421  0.0086  0.5199
 3921TIP3    H133254   3.374   5.322  14.709 -0.9950  0.8489 -0.3976
 3921TIP3    H233255   3.331   5.347  14.852  0.6450 -0.5464  0.3809
 3922TIP3   OH233256   3.283   2.685  16.519  0.0241  0.3154  0.8663
 3922TIP3    H133257   3.349   2.733  16.568 -0.9622  2.0611  0.5791
 3922TIP3    H233258   3.199   2.716  16.556 -0.6712 -2.1817  1.5650
 3923TIP3   OH233259   2.731   5.407  15.992 -0.1467  0.3639 -0.2943
 3923TIP3    H133260   2.696   5.469  16.056 -0.1172 -1.9767  2.1659
 3923TIP3    H233261   2.653   5.368  15.951 -0.2435  0.2271  0.0160
 3924TIP3   OH233262   1.690   3.533  16.841 -0.0941  0.2847  0.8001
 3924TIP3    H133263   1.752   3.597  16.874 -0.6645  1.1325  0.2770
 3924TIP3    H233264   1.723   3.509  16.754 -0.2177  0.3503  0.7348
 3925TIP3   OH233265   5.914   5.226  12.818 -0.7573  0.2446 -1.0376
 3925TIP3    H133266   5.941   5.290  12.752  1.8075  0.0108 -0.3466
 3925TIP3    H233267   5.903   5.145  12.769  1.4228  0.0038 -1.2361
 3926TIP3   OH233268   2.747   0.221   5.232 -0.0847  0.1367 -0.6723
 3926TIP3    H133269   2.772   0.269   5.311 -0.1219  0.1423 -0.6640
 3926TIP3    H233270   2.773   0.131   5.250 -3.0962 -0.5798  0.7085
 3927TIP3   OH233271   5.408   0.009   5.225 -0.0395 -0.3113 -0.0453
 3927TIP3    H133272   5.381  -0.082   5.216 -0.2015 -0.3308  0.6195
 3927TIP3    H233273   5.377   0.036   5.312  1.6878 -0.2082  0.5917
 3928TIP3   OH233274   5.087   1.885  15.598 -1.1052  0.0335  0.3006
 3928TIP3    H133275   5.091   1.915  15.689  2.2266  5.1734 -1.1251
 3928TIP3    H233276   5.178   1.871  15.574 -1.5631  1.7639 -2.9591
 3929TIP3   OH233277   5.322   6.116   0.036 -0.0867  0.0977  0.2147
 3929TIP3    H133278   5.365   6.093  -0.046 -1.3682 -1.2186 -0.1228
 3929TIP3    H233279   5.295   6.033   0.074 -4.3683  0.8346 -0.7412
 3930TIP3   OH233280   2.683   5.517  15.402  0.2145 -0.1869  0.1895
 3930TIP3    H133281   2.676   5.547  15.493  3.3764  2.0637 -0.1659
 3930TIP3    H233282   2.760   5.461  15.401 -0.3785 -1.0223 -0.9565
 3931TIP3   OH233283   4.737   1.579   1.000 -0.2972  0.0999 -0.0014
 3931TIP3    H133284   4.821   1.615   0.971 -0.2732  0.3980  0.4295
 3931TIP3    H233285   4.674   1.609   0.935 -0.4136  1.5792  0.7428
 3932TIP3   OH233286   5.547   2.407   2.000 -0.5896  0.3591 -0.8597
 3932TIP3    H133287   5.613   2.368   1.942 -0.4506 -0.4508 -0.1791
 3932TIP3    H233288   5.536   2.496   1.967 -0.3695 -0.0170 -2.0009
 3933TIP3   OH233289   1.428   2.517   2.020  0.1207  0.6127 -0.0937
 3933TIP3    H133290   1.495   2.483   2.080  1.0172  1.1086 -0.7897
 3933TIP3    H233291   1.465   2.504   1.933  0.1099  2.5420 -0.4222
 3934TIP3   OH233292   5.510   6.069  12.807 -0.2223  0.0414 -0.1620
 3934TIP3    H133293   5.588   6.101  12.762 -1.3413  1.6018 -1.0881
 3934TIP3    H233294   5.465   6.148  12.838 -1.4124 -0.8077  0.3755
 3935TIP3   OH233295   2.585   3.566  12.519  0.4516  0.2092  0.1546
 3935TIP3    H133296   2.542   3.649  12.538  2.6538  1.2934  0.6837
 3935TIP3    H233297   2.617   3.575  12.430  1.2212  0.1940  0.4197
 3936TIP3   OH233298   1.854   1.449   1.664  0.0428 -0.0740 -0.2021
 3936TIP3    H133299   1.783   1.443   1.601  1.2728 -1.5088 -1.5440
 3936TIP3    H233300   1.933   1.453   1.610  1.0460  0.5302  1.2501
 3937TIP3   OH233301   1.341   1.195  11.588 -0.0921 -0.2092  0.5396
 3937TIP3    H133302   1.344   1.254  11.662  2.0418  1.4416 -0.7344
 3937TIP3    H233303   1.416   1.137  11.600  1.5361  1.3752 -1.2033
 3938TIP3   OH233304   4.616   4.670  14.206  0.2554  0.1200  0.4135
 3938TIP3    H133305   4.628   4.590  14.256  0.8004 -0.4766 -0.6219
 3938TIP3    H233306   4.703   4.708  14.199  0.2952 -0.1204 -0.5618
 3939TIP3   OH233307   5.002   4.019   5.444 -0.1696 -0.0447  0.1239
 3939TIP3    H133308   5.079   3.975   5.479 -0.0424  0.1092  0.0383
 3939TIP3    H233309   5.037   4.088   5.388 -0.3691 -0.0476 -0.0069
 3940TIP3   OH233310   2.664   6.683  10.670 -0.0348 -0.0283  0.2813
 3940TIP3    H133311   2.720   6.623  10.719 -0.8048 -1.4296 -0.4836
 3940TIP3    H233312   2.723   6.751  10.638  0.9887 -0.7585  0.5651
 3941TIP3   OH233313   5.243   4.018  12.559  0.5282 -0.4362 -0.2565
 3941TIP3    H133314   5.238   3.973  12.644 -0.1763  0.8137  0.3997
 3941TIP3    H233315   5.309   4.087  12.573 -1.3631  1.3981  0.1326
 3942TIP3   OH233316   3.042   3.991   5.425  0.5034  0.1141  0.2316
 3942TIP3    H133317   3.020   3.991   5.332  0.9977 -0.0622  0.1159
 3942TIP3    H233318   2.958   4.006   5.469  0.2498  0.0787 -0.2356
 3943TIP3   OH233319   3.005   4.015  13.397 -0.0627 -0.1708 -0.1747
 3943TIP3    H133320   2.980   4.069  13.322 -1.5788 -1.0125 -0.3099
 3943TIP3    H233321   3.035   3.933  13.359  0.3362 -0.1562  0.0996
 3944TIP3   OH233322   2.941   0.535   2.763  0.6856  0.0447  0.1779
 3944TIP3    H133323   3.011   0.576   2.712  1.4682 -0.2477  0.9958
 3944TIP3    H233324   2.983   0.509   2.845 -0.4526  0.1338  0.8104
 3945TIP3   OH233325   6.125   0.791  12.953  0.6355 -0.0125  0.6735
 3945TIP3    H133326   6.120   0.836  13.038 -0.0847 -0.5591  0.9404
 3945TIP3    H233327   6.096   0.701  12.973  1.6491 -0.4805  0.0787
 3946TIP3   OH233328   1.471   4.019   3.525 -0.0394 -0.3191  0.8500
 3946TIP3    H133329   1.421   4.076   3.466  1.6964  0.0737 -0.3081
 3946TIP3    H233330   1.447   3.930   3.498  0.6652 -0.1490 -0.4716
 3947TIP3   OH233331   0.551   3.935  16.331 -0.1267 -0.3656  0.7438
 3947TIP3    H133332   0.548   3.903  16.242  1.4490 -1.0804  0.9091
 3947TIP3    H233333   0.546   3.857  16.386 -0.9233  0.0495  1.2853
 3948TIP3   OH233334   0.578   5.130  17.087  0.2614  0.3264  0.6506
 3948TIP3    H133335   0.496   5.132  17.136  0.1078  0.8753  0.3819
 3948TIP3    H233336   0.555   5.092  17.002 -0.1245  2.1632 -0.1198
 3949TIP3   OH233337   5.693   6.650  12.028  0.3966 -0.0321 -0.7476
 3949TIP3    H133338   5.771   6.703  12.014 -0.3798  1.1410 -0.8191
 3949TIP3    H233339   5.627   6.712  12.058 -1.2475 -0.4922 -3.1005
 3950TIP3   OH233340   2.623   6.548   6.247 -0.7686  0.2002 -0.2270
 3950TIP3    H133341   2.536   6.540   6.286  0.2298 -1.2943  1.8807
 3950TIP3    H233342   2.652   6.458   6.234  0.6078  0.6753 -0.6144
 3951TIP3   OH233343   6.604   6.091  12.030  0.3022 -0.0842  0.5140
 3951TIP3    H133344   6.661   6.124  12.100 -1.3639  1.6901  1.1159
 3951TIP3    H233345   6.542   6.033  12.075 -0.9789  1.3143  0.6215
 3952TIP3   OH233346   6.042   5.547   2.118  0.3049  0.1092  0.1549
 3952TIP3    H133347   6.136   5.553   2.104  0.5683  0.7694  1.9772
 3952TIP3    H233348   6.020   5.457   2.095  1.4983 -0.2451  0.3481
 3953TIP3   OH233349   4.533   1.929   1.633  0.3260 -0.5607  0.3030
 3953TIP3    H133350   4.572   1.848   1.600  1.5997  0.7538 -1.6012
 3953TIP3    H233351   4.607   1.986   1.650 -0.5960  0.6360  0.4113
 3954TIP3   OH233352   0.532   6.412  12.004  0.3832  0.0555 -0.3311
 3954TIP3    H133353   0.450   6.453  12.029  1.0608  1.2415  0.0429
 3954TIP3    H233354   0.556   6.455  11.922  2.2528  2.2372  1.1963
 3955TIP3   OH233355   0.850   5.781  12.036 -0.2173  0.1298 -0.4525
 3955TIP3    H133356   0.813   5.727  11.966  0.5259  1.0396 -1.6006
 3955TIP3    H233357   0.871   5.864  11.993  2.2033  0.0004  0.3590
 3956TIP3   OH233358   2.817   3.644  16.186  0.4134 -0.4275  0.5829
 3956TIP3    H133359   2.739   3.633  16.131  1.7898  0.2175 -1.6607
 3956TIP3    H233360   2.826   3.739  16.196  3.5330  0.0434 -3.5978
 3957TIP3   OH233361   0.720   3.645  12.297 -0.1193 -0.3328 -0.4917
 3957TIP3    H133362   0.662   3.716  12.325 -0.1772  0.1174 -1.6950
 3957TIP3    H233363   0.665   3.567  12.297 -0.2811 -0.2245 -0.0251
 3958TIP3   OH233364   3.484   3.632  13.697 -0.9083  0.5197  0.2482
 3958TIP3    H133365   3.445   3.708  13.653 -1.2761  0.0810 -0.2058
 3958TIP3    H233366   3.570   3.662  13.725 -0.7091  0.8497 -0.6809
 3959TIP3   OH233367   5.229   3.087   1.031 -0.0505  0.0946 -0.3908
 3959TIP3    H133368   5.186   3.008   1.000 -1.1096 -0.2433  1.7548
 3959TIP3    H233369   5.322   3.065   1.033 -0.2061 -0.6665 -0.9255
 3960TIP3   OH233370   4.469   5.606   1.992  0.0550  0.4570 -0.2227
 3960TIP3    H133371   4.481   5.694   2.029  0.7547 -0.4040  1.7019
 3960TIP3    H233372   4.552   5.586   1.949  0.4804  0.1281  0.7285
 3961TIP3   OH233373   6.424   5.728   1.225  1.1269 -0.6775 -0.1267
 3961TIP3    H133374   6.335   5.757   1.203  1.8714  0.5003 -1.8323
 3961TIP3    H233375   6.429   5.639   1.190 -0.5459 -2.4087  3.4326
 3962TIP3   OH233376   5.042   2.811   1.510 -0.1883 -0.2289 -0.9073
 3962TIP3    H133377   5.012   2.881   1.568  0.3341 -0.0339 -0.8743
 3962TIP3    H233378   4.970   2.801   1.447 -1.4422 -1.4858  0.6472
 3963TIP3   OH233379   0.180   6.541   4.141 -0.0876 -0.3362 -0.5147
 3963TIP3    H133380   0.231   6.461   4.157  0.1454 -0.1859 -0.5152
 3963TIP3    H233381   0.241   6.601   4.100 -0.7702 -0.8835 -2.4824
 3964TIP3   OH233382   4.342   5.635  10.993 -0.5959 -0.0535 -0.8421
 3964TIP3    H133383   4.391   5.616  10.913 -0.2776 -2.7591 -0.0885
 3964TIP3    H233384   4.338   5.731  10.996  1.6152  0.1944 -2.7407
 3965TIP3   OH233385   6.031   4.205  17.003 -0.1042 -0.1412  0.6469
 3965TIP3    H133386   6.105   4.183  17.058 -1.3111 -2.5763  1.4475
 3965TIP3    H233387   6.045   4.157  16.922 -0.5595 -0.2452  0.6223
 3966TIP3   OH233388   3.650   0.145   1.767 -0.1203 -0.1253 -0.5555
 3966TIP3    H133389   3.710   0.142   1.841  0.8991  0.2625 -1.3465
 3966TIP3    H233390   3.563   0.153   1.807  0.2475 -1.5186  0.6390
 3967TIP3   OH233391   4.646   6.319   5.281  0.2992 -0.0967 -0.2273
 3967TIP3    H133392   4.570   6.277   5.322 -0.2524  0.1926 -0.9461
 3967TIP3    H233393   4.704   6.246   5.258 -0.3863 -0.4358 -0.9274
 3968TIP3   OH233394   4.185   1.261   3.907  0.4825  0.1354 -0.0507
 3968TIP3    H133395   4.126   1.260   3.832 -0.5643  0.8322  0.7423
 3968TIP3    H233396   4.186   1.352   3.937  1.6685  0.0628  0.1869
 3969TIP3   OH233397   3.085   0.764   5.781  0.0283 -0.5090 -0.2157
 3969TIP3    H133398   3.108   0.851   5.815  2.2417 -0.3344 -1.9276
 3969TIP3    H233399   3.169   0.727   5.754 -1.2044 -2.0315 -2.1404
 3970TIP3   OH233400   6.169   3.218   0.391 -0.2347 -1.0235 -0.1994
 3970TIP3    H133401   6.148   3.149   0.328 -0.0937 -0.7400 -0.5666
 3970TIP3    H233402   6.091   3.274   0.391  0.3466 -0.1785 -1.2809
 3971TIP3   OH233403   4.719   2.001  15.550  0.9386  0.3956 -0.3292
 3971TIP3    H133404   4.803   1.995  15.504 -0.5103 -0.0745 -3.1672
 3971TIP3    H233405   4.670   2.068  15.501 -0.8389 -0.3591  0.3193
 3972TIP3   OH233406   0.128   1.511   6.399 -0.1097  0.2873  0.3055
 3972TIP3    H133407   0.072   1.587   6.414  0.0883  0.5247 -0.1475
 3972TIP3    H233408   0.201   1.522   6.460 -0.7470 -0.2337  1.1917
 3973TIP3   OH233409   0.752   1.441   3.018  0.6317  0.2876 -0.1340
 3973TIP3    H133410   0.719   1.361   2.975  1.0467 -0.0012  0.0815
 3973TIP3    H233411   0.817   1.410   3.080  0.7072  0.7891  0.0415
 3974TIP3   OH233412   5.220   1.850  13.330  0.2465 -0.1666 -0.6918
 3974TIP3    H133413   5.280   1.915  13.294  0.3564 -0.1539 -0.4862
 3974TIP3    H233414   5.271   1.805  13.398  0.1766 -0.4744 -0.8394
 3975TIP3   OH233415   6.762   0.711  12.475  0.4853 -0.1116  0.0673
 3975TIP3    H133416   6.779   0.805  12.476  0.1261  0.0043 -1.6861
 3975TIP3    H233417   6.847   0.671  12.494  0.6525  0.5468  0.7791
 3976TIP3   OH233418   1.897   3.452   1.918  0.0618 -0.0659 -0.1348
 3976TIP3    H133419   1.988   3.439   1.891 -0.2201 -0.8606 -0.7443
 3976TIP3    H233420   1.875   3.374   1.969 -0.2260  0.1958  0.1457
 3977TIP3   OH233421   1.800   1.101  16.786 -0.0014 -0.7461 -0.3127
 3977TIP3    H133422   1.814   1.039  16.715 -0.1218 -1.8594  0.6013
 3977TIP3    H233423   1.722   1.150  16.761  0.6557 -0.2786 -1.5057
 3978TIP3   OH233424   6.010   5.184   0.472 -0.0476 -0.3322 -0.3029
 3978TIP3    H133425   6.093   5.157   0.433 -0.6860 -1.5797 -0.8326
 3978TIP3    H233426   5.948   5.116   0.446 -1.2126  0.5215  0.1865
 3979TIP3   OH233427   5.551   1.725  11.798 -0.3152 -0.0330  0.4671
 3979TIP3    H133428   5.597   1.691  11.721 -0.4311  0.5306  0.1406
 3979TIP3    H233429   5.616   1.722  11.868  0.0283  0.1751  0.1600
 3980TIP3   OH233430   2.118   4.115   2.543  0.4090 -0.6399  0.6053
 3980TIP3    H133431   2.171   4.162   2.478 -2.3928 -0.3316 -1.6433
 3980TIP3    H233432   2.140   4.023   2.528  1.1893 -0.4548  0.5640
 3981TIP3   OH233433   5.331   5.892  14.906  0.0734  0.8811 -0.1846
 3981TIP3    H133434   5.285   5.967  14.943 -2.0174 -0.0835 -0.6529
 3981TIP3    H233435   5.356   5.920  14.818  0.7780  1.5697  0.2301
 3982TIP3   OH233436   0.228   1.124  14.756 -0.4272  0.1689 -0.0722
 3982TIP3    H133437   0.200   1.061  14.822 -0.3040 -0.5777 -0.7230
 3982TIP3    H233438   0.247   1.204  14.805  1.8592 -1.0192  1.1429
 3983TIP3   OH233439   4.168   3.859   2.771 -0.3536  1.2984  0.2652
 3983TIP3    H133440   4.154   3.837   2.863 -0.8155  1.0209  0.1325
 3983TIP3    H233441   4.136   3.782   2.724 -1.0735  1.8579 -0.1706
 3984TIP3   OH233442   1.488   0.912   3.844 -0.1457  0.1534  0.1857
 3984TIP3    H133443   1.453   0.866   3.920 -0.2989 -2.1536 -1.1807
 3984TIP3    H233444   1.577   0.937   3.870 -0.3301 -0.2262  1.2473
 3985TIP3   OH233445   1.532   1.788   3.932 -0.0928 -0.4505  0.0995
 3985TIP3    H133446   1.495   1.755   4.014  1.1688 -0.0662  0.8414
 3985TIP3    H233447   1.576   1.869   3.956  0.1496 -0.2427 -1.0005
 3986TIP3   OH233448   0.722   2.163  11.295 -0.1914 -0.2796 -0.1592
 3986TIP3    H133449   0.716   2.077  11.253 -0.9200 -0.1499 -0.3346
 3986TIP3    H233450   0.701   2.226  11.226 -1.0971 -0.0465  0.3057
 3987TIP3   OH233451   4.067   3.389   2.987 -0.0823  0.2636  0.4912
 3987TIP3    H133452   4.112   3.430   2.912 -0.2516  0.0150  0.2520
 3987TIP3    H233453   4.011   3.458   3.021 -0.0864  0.3472  0.3208
 3988TIP3   OH233454   1.340   2.874   1.725  0.1162  0.2002 -0.0223
 3988TIP3    H133455   1.300   2.828   1.799  2.0496 -0.9932  0.3424
 3988TIP3    H233456   1.375   2.955   1.763 -0.4767  0.4590 -0.0167
 3989TIP3   OH233457   0.270   0.401  10.406  0.5865  0.6566  0.1949
 3989TIP3    H133458   0.232   0.488  10.406  1.2164  0.9441 -0.7248
 3989TIP3    H233459   0.220   0.352  10.341  1.1199  0.7376 -0.2812
 3990TIP3   OH233460   0.521   2.342  13.228 -0.3945 -0.1597  0.1834
 3990TIP3    H133461   0.516   2.422  13.280 -1.7459 -0.2826  0.2826
 3990TIP3    H233462   0.449   2.351  13.165  0.1646 -0.7836 -0.5632
 3991TIP3   OH233463   3.303   1.778   4.338 -0.2674 -0.0193 -0.0038
 3991TIP3    H133464   3.247   1.769   4.414 -0.0623  0.0142  0.1525
 3991TIP3    H233465   3.392   1.778   4.373 -0.0679 -1.7892 -0.3750
 3992TIP3   OH233466   2.040   3.257   4.752 -0.2300  0.0061  0.1829
 3992TIP3    H133467   2.027   3.315   4.676 -1.0996  0.8133  0.9220
 3992TIP3    H233468   2.038   3.316   4.827  0.0367 -0.8607  0.8803
 3993TIP3   OH233469   3.410   2.583   4.114  0.0606  0.1229 -0.1767
 3993TIP3    H133470   3.398   2.671   4.151 -0.5983  0.5340 -1.3322
 3993TIP3    H233471   3.433   2.529   4.190 -0.1318  1.1642  0.6548
 3994TIP3   OH233472   5.120   0.344   3.347  0.1460 -0.5089  0.4967
 3994TIP3    H133473   5.203   0.320   3.306 -1.1851 -0.3647 -2.5865
 3994TIP3    H233474   5.104   0.434   3.317 -1.1028 -0.5406  1.0038
 3995TIP3   OH233475   2.021   2.610   0.925 -0.3328  0.1539  0.4562
 3995TIP3    H133476   2.018   2.649   1.012 -1.6639  0.3748  0.3306
 3995TIP3    H233477   1.964   2.666   0.872 -1.0396 -1.0593 -0.0957
 3996TIP3   OH233478   0.799   6.437  15.908  0.8037  0.0281  0.4635
 3996TIP3    H133479   0.708   6.462  15.893  1.0174 -0.4063 -1.8834
 3996TIP3    H233480   0.845   6.520  15.922  0.5213  0.5362 -1.3894
 3997TIP3   OH233481   2.732   5.199   1.272 -0.2597  0.0962 -0.1779
 3997TIP3    H133482   2.640   5.180   1.254 -0.1468 -0.0473 -0.6135
 3997TIP3    H233483   2.754   5.140   1.344 -2.2243  4.4029  4.5594
 3998TIP3   OH233484   5.230   3.402   4.297  0.3503  0.1824 -0.9524
 3998TIP3    H133485   5.261   3.489   4.322  3.1150 -1.4296  2.0199
 3998TIP3    H233486   5.148   3.392   4.345 -1.4454  1.9670 -3.4063
 3999TIP3   OH233487   1.487   0.643  12.732  0.4882 -0.2728  0.4427
 3999TIP3    H133488   1.452   0.679  12.813  0.5104  1.2057 -0.1656
 3999TIP3    H233489   1.506   0.551  12.752 -2.4002 -0.7921  1.1937
 4000TIP3   OH233490   2.237   3.725  11.434  0.0466 -0.8075 -0.2200
 4000TIP3    H133491   2.266   3.711  11.524  0.5780 -1.4981 -0.4856
 4000TIP3    H233492   2.270   3.812  11.411 -1.8719  0.2869  0.9126
 4001TIP3   OH233493   0.524   0.480  14.229  0.1064  0.0592  0.4615
 4001TIP3    H133494   0.433   0.477  14.200  0.0864  0.2458  0.5016
 4001TIP3    H233495   0.556   0.390  14.220  0.0593  0.0847 -0.0071
 4002TIP3   OH233496   3.643   6.663  12.529  0.0838  0.5690 -0.3211
 4002TIP3    H133497   3.629   6.726  12.599  0.8456 -0.4958  0.8384
 4002TIP3    H233498   3.663   6.716  12.452 -1.3538  1.7893  0.0995
 4003TIP3   OH233499   4.624   4.395   2.783  0.6072  0.0871 -0.4758
 4003TIP3    H133500   4.644   4.335   2.711  0.1062  2.0836 -2.3750
 4003TIP3    H233501   4.710   4.417   2.819  0.8131 -1.5922  0.1682
 4004TIP3   OH233502   0.194   0.005   2.282 -0.3510  0.4093 -0.5184
 4004TIP3    H133503   0.178   0.096   2.305 -1.0898  0.1531  0.0137
 4004TIP3    H233504   0.286  -0.010   2.304 -0.6374  0.5997  0.8556
 4005TIP3   OH233505   5.927   3.993   5.787  0.7192 -0.0986 -0.0369
 4005TIP3    H133506   5.931   3.983   5.692 -0.4321 -0.0139 -0.1086
 4005TIP3    H233507   6.009   4.037   5.810  0.9374  0.0207 -1.0042
 4006TIP3   OH233508   0.714   1.985   1.776 -0.2642 -0.3587  0.0990
 4006TIP3    H133509   0.754   1.901   1.800  0.8059 -0.1206 -0.7859
 4006TIP3    H233510   0.634   1.960   1.730  0.1458 -0.9088 -0.3317
 4007TIP3   OH233511   0.172   3.954  17.097  0.4368  0.2619  0.0892
 4007TIP3    H133512   0.177   4.030  17.155  1.4140  0.5842 -0.3922
 4007TIP3    H233513   0.140   3.990  17.014  0.8169  0.1324 -0.1137
 4008TIP3   OH233514   2.748   6.037  16.051 -0.2549 -0.0505  0.1303
 4008TIP3    H133515   2.736   6.131  16.045 -1.1584 -0.1725 -0.1470
 4008TIP3    H233516   2.836   6.021  16.014 -0.8168  0.5018 -1.5574
 4009TIP3   OH233517   3.533   5.781  14.671 -0.4446  0.1401  0.3529
 4009TIP3    H133518   3.530   5.875  14.688 -0.1364 -0.0839  1.7464
 4009TIP3    H233519   3.455   5.746  14.716 -2.9123  0.1591 -3.4511
 4010TIP3   OH233520   6.688   2.175   4.989 -0.1929  0.0150  0.5101
 4010TIP3    H133521   6.746   2.100   4.975 -0.7310 -0.4381  0.6896
 4010TIP3    H233522   6.747   2.246   5.013  0.2375 -0.6124  1.3647
 4011TIP3   OH233523   3.837   3.346  17.044 -0.0265  0.0743  0.1999
 4011TIP3    H133524   3.805   3.430  17.075  0.3558  0.3024 -0.0149
 4011TIP3    H233525   3.767   3.284  17.063 -0.0698  0.3356  0.9002
 4012TIP3   OH233526   6.174   6.848  12.963 -0.3478 -0.0814 -0.3588
 4012TIP3    H133527   6.120   6.904  12.907  1.3044  2.1024  0.1059
 4012TIP3    H233528   6.125   6.842  13.045 -1.0944 -0.3288 -0.8088
 4013TIP3   OH233529   5.587   1.117   0.206 -0.5165 -0.1506 -0.4604
 4013TIP3    H133530   5.528   1.054   0.164 -1.5463  1.0829 -0.8957
 4013TIP3    H233531   5.648   1.062   0.255 -2.2454 -1.4619  0.3288
 4014TIP3   OH233532   1.952   4.525  16.539  0.7271 -0.2352 -0.4145
 4014TIP3    H133533   2.000   4.477  16.606 -0.0861 -0.9815 -0.3305
 4014TIP3    H233534   1.952   4.616  16.569  2.0155 -0.2277 -0.3986
 4015TIP3   OH233535   6.449   6.695  13.681  0.0667 -0.1475 -0.2649
 4015TIP3    H133536   6.504   6.651  13.747 -1.4649  0.1203  1.2665
 4015TIP3    H233537   6.449   6.787  13.708 -1.2917 -0.1780 -0.0773
 4016TIP3   OH233538   5.449   4.310   4.970  0.0202  0.0462  0.3616
 4016TIP3    H133539   5.489   4.299   4.883 -2.1489  2.1732 -1.0269
 4016TIP3    H233540   5.519   4.288   5.031  1.9066 -0.7049 -1.9079
 4017TIP3   OH233541   1.999   0.472  15.894  0.3641 -0.3213  0.4811
 4017TIP3    H133542   1.979   0.471  15.800  1.4594 -1.2928  0.2400
 4017TIP3    H233543   1.964   0.389  15.927 -0.9395  0.4662  1.1592
 4018TIP3   OH233544   6.183   6.013   3.038  0.1580 -0.2124 -0.9963
 4018TIP3    H133545   6.120   5.951   3.074  2.1322 -1.0898  1.2325
 4018TIP3    H233546   6.269   5.977   3.062  1.4480  3.0270 -0.1245
 4019TIP3   OH233547   2.508   3.168   0.817 -0.4735  0.7562  0.2074
 4019TIP3    H133548   2.528   3.097   0.757 -1.9140 -0.0068  0.5788
 4019TIP3    H233549   2.566   3.239   0.791  1.8469 -0.8903  0.5365
 4020TIP3   OH233550   6.450   6.033  15.386 -0.3054 -0.3464  0.2498
 4020TIP3    H133551   6.491   5.952  15.414  0.8977  0.3920  0.6856
 4020TIP3    H233552   6.523   6.094  15.372 -1.2345  0.9528  0.8752
 4021TIP3   OH233553   3.786   5.027  14.705  0.8213  0.4381 -0.3519
 4021TIP3    H133554   3.780   4.951  14.762  0.6341  0.0607 -0.8739
 4021TIP3    H233555   3.865   5.012  14.653 -0.0273 -0.1473 -1.5163
 4022TIP3   OH233556   4.970   4.513  13.756 -0.4472  0.7430  0.3510
 4022TIP3    H133557   4.999   4.598  13.790 -0.1721  0.4554  0.8480
 4022TIP3    H233558   4.879   4.528  13.731  0.1299  1.6928 -1.3665
 4023TIP3   OH233559   2.472   3.569   1.704 -0.5256 -0.1849 -0.2208
 4023TIP3    H133560   2.537   3.574   1.774 -0.4344  0.4730 -0.3464
 4023TIP3    H233561   2.388   3.583   1.748 -0.4801  0.0912 -0.2175
 4024TIP3   OH233562   6.239   0.931   4.118  0.2888  0.1873  0.5702
 4024TIP3    H133563   6.265   0.994   4.050  0.9359  0.1605  0.7823
 4024TIP3    H233564   6.144   0.935   4.120  0.3420  1.5786  0.9787
 4025TIP3   OH233565   4.634   0.578  12.245 -0.0233 -0.4531 -0.1579
 4025TIP3    H133566   4.669   0.589  12.157  0.4133  0.4896  0.1190
 4025TIP3    H233567   4.710   0.557  12.299  0.3284  2.2323  0.5600
 4026TIP3   OH233568   3.571   6.082  15.701  0.1082 -0.1389  0.0753
 4026TIP3    H133569   3.663   6.082  15.678 -0.1512 -1.6388 -1.1459
 4026TIP3    H233570   3.530   6.140  15.637 -0.1288 -1.5594 -1.1068
 4027TIP3   OH233571   0.972   3.363  13.107 -0.1280  0.2163  0.0041
 4027TIP3    H133572   0.906   3.414  13.155 -0.2909  0.7027 -0.7098
 4027TIP3    H233573   1.056   3.398  13.137 -0.2342  2.1929 -1.7306
 4028TIP3   OH233574   0.691   4.989   5.068  0.1616 -0.3752 -0.1299
 4028TIP3    H133575   0.713   5.001   5.160 -0.2909 -0.3840 -0.0189
 4028TIP3    H233576   0.606   5.031   5.058  1.6865  2.7415 -1.3178
 4029TIP3   OH233577   2.243   2.723   2.137  0.3073  0.4990  0.1728
 4029TIP3    H133578   2.237   2.649   2.198 -1.1005  1.6627  1.5327
 4029TIP3    H233579   2.181   2.702   2.067  0.5276  0.0266  0.1150
 4030TIP3   OH233580   4.303   1.788   5.458 -0.0735 -0.2448  0.5188
 4030TIP3    H133581   4.392   1.753   5.456 -0.5113 -1.3615  0.0463
 4030TIP3    H233582   4.312   1.874   5.499  1.3475  0.0412 -0.3540
 4031TIP3   OH233583   6.254   3.694  12.398  0.0789  0.1779  0.2269
 4031TIP3    H133584   6.312   3.760  12.436  1.7533 -0.3275 -1.2929
 4031TIP3    H233585   6.197   3.743  12.339  0.4188  0.4295  0.1045
 4032TIP3   OH233586   4.536   3.467   0.740  0.0092 -0.3242  0.1693
 4032TIP3    H133587   4.605   3.453   0.805 -0.0655  1.1052  0.6078
 4032TIP3    H233588   4.574   3.531   0.679 -0.4387 -0.5791 -0.3876
 4033TIP3   OH233589   6.244   2.314  16.910 -0.3587 -0.3346 -0.2806
 4033TIP3    H133590   6.295   2.331  16.989  1.7869 -0.6598 -1.5325
 4033TIP3    H233591   6.277   2.376  16.846 -0.6956 -1.3545 -1.4855
 4034TIP3   OH233592   1.967   1.998   4.685 -0.6573 -0.4883 -0.6152
 4034TIP3    H133593   1.995   2.075   4.734 -0.2190 -0.7312 -0.4798
 4034TIP3    H233594   1.983   2.020   4.593  0.7152 -0.9075 -0.4975
 4035TIP3   OH233595   5.637   4.576   0.099 -0.1556  0.2281  0.3127
 4035TIP3    H133596   5.588   4.657   0.088  0.0750  0.3915  0.4870
 4035TIP3    H233597   5.651   4.569   0.194 -0.5413 -0.2305  0.3393
 4036TIP3   OH233598   0.037   6.608   2.286  0.4235  0.1101 -0.0986
 4036TIP3    H133599   0.078   6.543   2.343  0.7797 -0.0029 -0.4753
 4036TIP3    H233600   0.083   6.690   2.305 -0.7509  0.5075  1.1593
 4037TIP3   OH233601   5.143   3.879   4.506  0.4061  0.3582 -0.0391
 4037TIP3    H133602   5.187   3.795   4.515 -0.6057 -0.2387 -0.3717
 4037TIP3    H233603   5.123   3.906   4.595 -0.5567 -0.4953  0.0258
 4038TIP3   OH233604   3.078   2.939  16.404  0.2034 -0.0608  0.1622
 4038TIP3    H133605   3.120   2.984  16.330 -1.6339 -0.3883 -1.1568
 4038TIP3    H233606   3.074   2.847  16.377  0.0855 -0.3007  0.9717
 4039TIP3   OH233607   0.649   5.856   2.018 -0.0604  0.2918 -0.2145
 4039TIP3    H133608   0.555   5.870   2.003 -0.4004  0.7250  1.9708
 4039TIP3    H233609   0.691   5.927   1.970 -1.2830  3.9325  3.4894
 4040TIP3   OH233610   2.768   6.221  16.742 -0.2979 -0.6779 -0.7428
 4040TIP3    H133611   2.740   6.188  16.827  0.3791  0.5058 -0.0189
 4040TIP3    H233612   2.744   6.153  16.679  1.0410 -2.5273  0.6440
 4041TIP3   OH233613   3.145   0.724   4.776 -0.5726  0.2907  0.2457
 4041TIP3    H133614   3.167   0.644   4.824  0.5366  1.1249  1.1827
 4041TIP3    H233615   3.056   0.745   4.805 -1.0934 -0.9053 -0.4486
 4042TIP3   OH233616   6.351   3.954   0.809 -0.1621 -0.3698 -0.0369
 4042TIP3    H133617   6.336   4.022   0.876 -1.6431  1.0736 -1.7361
 4042TIP3    H233618   6.296   3.881   0.836 -0.5888  0.1183  0.4433
 4043TIP3   OH233619   3.893   6.062   2.111  0.2395 -0.3607 -0.1058
 4043TIP3    H133620   3.927   6.072   2.199 -0.8331 -2.6357  0.6440
 4043TIP3    H233621   3.964   6.092   2.054  1.4536 -0.0986  1.4937
 4044TIP3   OH233622   2.561   6.832   3.418 -1.2019  0.4207 -0.2063
 4044TIP3    H133623   2.641   6.845   3.470  0.0655 -1.1802 -1.6444
 4044TIP3    H233624   2.576   6.881   3.337 -1.4003 -0.3995 -0.7509
 4045TIP3   OH233625   2.114   1.302   6.354  0.1209 -1.1443  0.2487
 4045TIP3    H133626   2.051   1.312   6.283  0.4740 -0.9122 -0.0300
 4045TIP3    H233627   2.141   1.391   6.376 -0.9033 -1.1190  1.5073
 4046TIP3   OH233628   3.068   6.007  13.689 -0.1195 -0.2226 -0.1115
 4046TIP3    H133629   3.147   5.967  13.653 -1.0507  0.7671 -3.5477
 4046TIP3    H233630   3.040   6.071  13.624 -2.8101  0.7424  1.7796
 4047TIP3   OH233631   5.400   6.016  13.603  0.1427 -0.0887  0.1506
 4047TIP3    H133632   5.488   6.013  13.641  1.4172  2.1033 -2.2835
 4047TIP3    H233633   5.414   6.036  13.510 -2.9391 -0.0492 -0.4350
 4048TIP3   OH233634   5.459   2.427   2.883 -0.1235  0.8671 -0.2847
 4048TIP3    H133635   5.428   2.421   2.974 -1.8689  1.7468 -0.7733
 4048TIP3    H233636   5.517   2.352   2.873 -2.2918 -1.0721  0.6849
 4049TIP3   OH233637   3.201   5.760   2.276 -0.4118  0.4705  0.3254
 4049TIP3    H133638   3.279   5.814   2.267 -0.2852  0.2792  0.2683
 4049TIP3    H233639   3.175   5.739   2.186  0.1625 -0.4498  0.3641
 4050TIP3   OH233640   0.930   6.007   5.155 -0.4004  0.2847  0.3298
 4050TIP3    H133641   0.884   5.941   5.103  1.8329 -1.8704  0.9136
 4050TIP3    H233642   0.864   6.039   5.216 -2.1888  0.4279 -1.5623
 4051TIP3   OH233643   5.278   5.600  16.368  0.2187 -0.2843  0.0606
 4051TIP3    H133644   5.251   5.692  16.370  0.2313 -0.2921  1.6454
 4051TIP3    H233645   5.275   5.577  16.275 -1.0693  0.9333 -0.2509
 4052TIP3   OH233646   5.770   3.834   1.401  0.3727  0.4069 -0.6288
 4052TIP3    H133647   5.811   3.827   1.314  0.1511  0.9543 -0.7874
 4052TIP3    H233648   5.843   3.826   1.462  0.4062 -0.9946 -0.8218
 4053TIP3   OH233649   6.323   5.266  11.794 -0.3044  0.0420  0.2638
 4053TIP3    H133650   6.233   5.235  11.807 -0.8076  0.6684 -1.4283
 4053TIP3    H233651   6.366   5.196  11.745 -0.4329  0.5112 -0.5431
 4054TIP3   OH233652   0.048   2.648   0.915 -0.0714  0.3826 -0.6363
 4054TIP3    H133653  -0.011   2.576   0.938 -1.0704  1.3006 -0.2126
 4054TIP3    H233654   0.086   2.676   0.999  1.5476 -0.6625 -0.9917
 4055TIP3   OH233655   4.749   1.974   1.424 -1.0459 -0.4002 -0.1078
 4055TIP3    H133656   4.663   1.998   1.388 -0.2881  1.2152 -0.9495
 4055TIP3    H233657   4.787   2.057   1.452 -0.4246 -1.2753  1.8824
 4056TIP3   OH233658   5.873   5.239  13.629  0.2231  0.4203  0.3693
 4056TIP3    H133659   5.898   5.173  13.694 -1.7957 -1.7559 -0.9175
 4056TIP3    H233660   5.802   5.287  13.671 -2.7475 -2.5182 -0.8142
 4057TIP3   OH233661   0.487   4.982  12.569  0.1675  0.2470 -0.0095
 4057TIP3    H133662   0.459   4.933  12.646 -0.0664 -0.4209 -0.5155
 4057TIP3    H233663   0.481   5.074  12.596 -0.3947  0.0390  0.6029
 4058TIP3   OH233664   6.066   5.099  12.596  0.1198 -0.1554 -0.0464
 4058TIP3    H133665   6.088   5.099  12.503 -0.5840  0.0498 -0.2179
 4058TIP3    H233666   5.991   5.041  12.603  0.3021 -0.3366  0.4270
 4059TIP3   OH233667   3.682   4.532  16.232  0.2703  0.0563  1.2178
 4059TIP3    H133668   3.747   4.472  16.195 -0.0720  0.9891 -1.0603
 4059TIP3    H233669   3.619   4.475  16.275  1.3450 -1.0253  1.4170
 4060TIP3   OH233670   0.975   2.199  12.205  0.1571 -0.4180 -0.2116
 4060TIP3    H133671   0.972   2.105  12.222  0.7041 -0.5013 -0.5470
 4060TIP3    H233672   1.042   2.209  12.136 -0.7216  0.0944 -1.0110
 4061TIP3   OH233673   5.153   1.050  15.199  0.4356 -0.0523 -0.0444
 4061TIP3    H133674   5.199   1.118  15.247  0.4220  0.9207 -1.3452
 4061TIP3    H233675   5.126   1.093  15.117 -0.5605 -1.3083 -0.3994
 4062TIP3   OH233676   5.856   3.083   4.214 -0.4057  0.0608 -0.1816
 4062TIP3    H133677   5.768   3.096   4.181 -1.2555  1.2613  2.2978
 4062TIP3    H233678   5.860   2.989   4.235 -0.7668 -0.1658 -1.0682
 4063TIP3   OH233679   4.559   5.137  10.471 -0.1042 -0.1935 -0.2255
 4063TIP3    H133680   4.589   5.130  10.561 -1.0519  0.1331  0.1272
 4063TIP3    H233681   4.640   5.140  10.419  0.5427  2.1294  0.7730
 4064TIP3   OH233682   0.652   4.125   5.274 -0.8040 -0.7624 -0.1323
 4064TIP3    H133683   0.682   4.155   5.188  0.3185  0.3235  0.5900
 4064TIP3    H233684   0.732   4.105   5.322 -1.4633 -3.4340  0.0112
 4065TIP3   OH233685   1.837   3.448  16.312 -0.1694 -0.4246  0.3870
 4065TIP3    H133686   1.823   3.529  16.262  0.0283 -0.8534 -0.3878
 4065TIP3    H233687   1.763   3.444  16.372 -0.2235  0.2901  0.3856
 4066TIP3   OH233688   1.238   2.381  14.558  0.1472  0.3971  0.2560
 4066TIP3    H133689   1.274   2.362  14.645  0.3573  0.9015  0.2865
 4066TIP3    H233690   1.315   2.399  14.504  0.1938 -1.9345 -0.5866
 4067TIP3   OH233691   5.126   1.862   2.837  0.0212  0.0388  0.1868
 4067TIP3    H133692   5.144   1.952   2.808  1.2079 -0.0983  0.4702
 4067TIP3    H233693   5.106   1.872   2.930 -1.6805  0.2152 -0.1648
 4068TIP3   OH233694   6.667   1.751   5.538  0.2269  0.2302 -0.1470
 4068TIP3    H133695   6.604   1.691   5.499 -0.0485  0.6085 -0.2944
 4068TIP3    H233696   6.619   1.834   5.545  0.3864  0.2556  0.6807
 4069TIP3   OH233697   6.380   1.780   3.867 -0.0411 -0.3103  0.0027
 4069TIP3    H133698   6.360   1.686   3.863  1.1879 -0.5396 -1.1220
 4069TIP3    H233699   6.475   1.785   3.864 -0.0353  0.9424  1.2759
 4070TIP3   OH233700   1.326   2.008  12.831 -0.2663  0.6992 -0.6915
 4070TIP3    H133701   1.346   2.064  12.907 -2.5228  0.4934  0.1344
 4070TIP3    H233702   1.292   2.069  12.766 -1.4858  0.4748 -0.2779
 4071TIP3   OH233703   5.596   4.260  12.123 -0.2839  0.0848  0.4213
 4071TIP3    H133704   5.587   4.256  12.027  0.8123 -0.2215  0.3162
 4071TIP3    H233705   5.538   4.332  12.149 -0.4992  0.2625 -0.4809
 4072TIP3   OH233706   3.485   3.926   0.486  0.4517  0.5368  0.1200
 4072TIP3    H133707   3.548   3.964   0.548 -0.2327 -0.3847  1.4396
 4072TIP3    H233708   3.519   3.838   0.470  0.9070  0.9462 -1.2686
 4073TIP3   OH233709   2.081   6.204  14.075 -0.4174  0.0790  0.2132
 4073TIP3    H133710   2.080   6.299  14.086 -2.1509  0.0057  1.0938
 4073TIP3    H233711   2.127   6.171  14.152 -0.5205  0.1762  0.3165
 4074TIP3   OH233712   2.699   4.507   0.605 -0.0590  0.1309 -0.3341
 4074TIP3    H133713   2.625   4.468   0.651 -0.6248  0.5527 -0.8829
 4074TIP3    H233714   2.660   4.571   0.546  0.6983 -0.0136 -1.0088
 4075TIP3   OH233715   3.463   0.243   0.056 -0.1914 -0.7728  0.4882
 4075TIP3    H133716   3.490   0.162   0.011  1.0617 -0.2503  0.2480
 4075TIP3    H233717   3.385   0.272   0.009  1.1892 -0.1287 -1.5278
 4076TIP3   OH233718   6.595   4.329   1.264 -0.2908 -0.1229  0.1262
 4076TIP3    H133719   6.686   4.314   1.236 -0.6532 -0.8240 -0.7173
 4076TIP3    H233720   6.550   4.359   1.185 -0.7560  0.4492  0.5952
 4077TIP3   OH233721   2.491   1.886   5.975  0.0341  0.0597  0.1944
 4077TIP3    H133722   2.474   1.962   6.030 -0.7364  0.6152 -0.7783
 4077TIP3    H233723   2.432   1.818   6.008  0.5972 -0.0824  0.9494
 4078TIP3   OH233724   3.535   6.850  15.561 -0.7163  0.1620 -0.2570
 4078TIP3    H133725   3.565   6.760  15.544  0.1690  0.5496 -0.8523
 4078TIP3    H233726   3.615   6.898  15.582 -0.9919  1.0980 -1.2705
 4079TIP3   OH233727   3.075   3.621   5.531 -0.0975  0.1377 -0.2778
 4079TIP3    H133728   3.076   3.544   5.587  0.9111 -0.0968 -0.6069
 4079TIP3    H233729   2.989   3.619   5.489 -0.2762 -0.5103  0.1149
 4080TIP3   OH233730   1.037   2.009   4.497  0.3252  0.3740  0.4728
 4080TIP3    H133731   1.009   1.928   4.454 -0.5145 -0.3796  2.3254
 4080TIP3    H233732   0.963   2.069   4.484 -0.1357 -0.0142  1.2553
 4081TIP3   OH233733   0.274   5.253   2.763  0.5307  0.1576 -0.1010
 4081TIP3    H133734   0.265   5.204   2.681 -0.0791 -0.3038  0.2331
 4081TIP3    H233735   0.368   5.249   2.783  0.5778 -0.3403 -0.4031
 4082TIP3   OH233736   2.485   0.944  10.978  0.2856 -0.1795 -0.4705
 4082TIP3    H133737   2.395   0.938  11.009 -0.0168  0.0937 -1.2721
 4082TIP3    H233738   2.480   0.927  10.884  0.9316  0.7562 -0.6986
 4083TIP3   OH233739   5.262   1.650  13.570  0.2840 -0.3650  0.2483
 4083TIP3    H133740   5.307   1.614  13.494 -0.2906  2.1853 -1.4487
 4083TIP3    H233741   5.211   1.577  13.606  3.8611 -2.7589  0.8863
 4084TIP3   OH233742   6.440   3.407   1.306  0.2469  0.3865  0.0963
 4084TIP3    H133743   6.362   3.369   1.344 -0.9428  1.1127 -1.5136
 4084TIP3    H233744   6.489   3.441   1.381 -0.3045 -1.2583  1.2372
 4085TIP3   OH233745   2.836   1.591  15.337 -0.5994 -0.3135 -0.0460
 4085TIP3    H133746   2.797   1.598  15.424  0.3144  0.8066  0.3095
 4085TIP3    H233747   2.805   1.669  15.291 -2.6726 -1.8677 -1.4435
 4086TIP3   OH233748   1.568   6.399  15.566  0.0529 -0.2281  0.1262
 4086TIP3    H133749   1.647   6.426  15.519 -0.1050  0.8323  0.4361
 4086TIP3    H233750   1.601   6.354  15.644  0.5154  2.7656  1.8310
 4087TIP3   OH233751   4.746   5.508   2.010 -0.4931 -0.0375 -0.3996
 4087TIP3    H133752   4.779   5.593   2.037 -0.7956 -0.5577  1.8308
 4087TIP3    H233753   4.816   5.469   1.959  0.2341  0.9718 -0.1876
 4088TIP3   OH233754   2.485   5.372   3.360  0.2324  0.7620 -0.0279
 4088TIP3    H133755   2.487   5.458   3.402 -0.1449  0.9536 -0.3897
 4088TIP3    H233756   2.574   5.339   3.368  0.5885  1.5406 -0.6005
 4089TIP3   OH233757   0.306   2.334  14.201  0.4184  0.1632 -0.0352
 4089TIP3    H133758   0.338   2.276  14.132 -1.0814  0.0435 -0.6568
 4089TIP3    H233759   0.385   2.360  14.249  1.5482  0.6017 -2.0518
 4090TIP3   OH233760   3.795   3.897  11.986 -0.1779 -0.4550 -0.0521
 4090TIP3    H133761   3.785   3.908  11.892 -0.7317 -0.2164  0.0286
 4090TIP3    H233762   3.706   3.908  12.021  0.0963 -0.0908  0.5427
 4091TIP3   OH233763   0.409   2.668  11.103  0.5119  0.3082  0.3375
 4091TIP3    H133764   0.315   2.657  11.092  0.5560  0.6551 -0.3938
 4091TIP3    H233765   0.418   2.744  11.160  0.3327 -0.3333  1.2419
 4092TIP3   OH233766   1.311   0.027   4.101  0.1722 -0.2003 -0.0954
 4092TIP3    H133767   1.251   0.017   4.027  0.0170  0.6138 -0.0853
 4092TIP3    H233768   1.360  -0.055   4.103 -1.8947 -1.5089  0.7495
 4093TIP3   OH233769   0.094   1.942   1.726  0.4235  0.0645 -0.0738
 4093TIP3    H133770   0.023   1.940   1.662 -0.1004  2.6583  0.3328
 4093TIP3    H233771   0.114   2.035   1.738  1.9049 -0.4367  2.0044
 4094TIP3   OH233772   3.058   1.424  16.076  0.2851  0.2880 -0.0093
 4094TIP3    H133773   3.144   1.466  16.072 -0.6494  2.2428 -0.7933
 4094TIP3    H233774   3.055   1.385  16.164  0.7274  3.0844  1.3559
 4095TIP3   OH233775   3.338   0.011   3.773  1.0055  0.0388  0.0720
 4095TIP3    H133776   3.287  -0.068   3.789 -1.7558  1.4820 -0.9879
 4095TIP3    H233777   3.424  -0.021   3.745 -0.0188 -2.5725 -0.3555
 4096TIP3   OH233778   3.218   4.955  11.595  0.3735  0.1985 -0.3668
 4096TIP3    H133779   3.252   4.938  11.683  0.2322 -0.6311 -0.4594
 4096TIP3    H233780   3.208   5.050  11.590  2.1107  0.4106 -0.1353
 4097TIP3   OH233781   2.391   4.286   5.754 -0.8340  0.5311  0.0879
 4097TIP3    H133782   2.363   4.345   5.825 -0.7242 -0.2767  0.8249
 4097TIP3    H233783   2.441   4.342   5.695 -0.4952  1.1303  0.9152
 4098TIP3   OH233784   1.539   6.492   4.453 -0.5940  0.0130 -0.2446
 4098TIP3    H133785   1.562   6.442   4.532  0.0796  1.1880  0.3279
 4098TIP3    H233786   1.446   6.474   4.441 -0.9180  0.4386  1.3101
 4099TIP3   OH233787   5.940   6.829   5.132 -1.0515 -0.3865  0.2302
 4099TIP3    H133788   5.923   6.801   5.223 -2.0444  1.5934  0.7049
 4099TIP3    H233789   5.859   6.872   5.106 -1.2742 -2.0506 -2.1108
 4100TIP3   OH233790   2.202   6.066  11.277  0.8194 -0.1275  0.0311
 4100TIP3    H133791   2.285   6.082  11.322  0.8305  1.4584 -0.4877
 4100TIP3    H233792   2.226   6.011  11.202  1.5003  0.6610 -0.3526
 4101TIP3   OH233793   0.559   6.622   3.271  0.0245  0.4463 -0.3842
 4101TIP3    H133794   0.619   6.697   3.267  0.0197  0.6876  2.1860
 4101TIP3    H233795   0.617   6.547   3.280 -0.0065  0.5562  0.8654
 4102TIP3   OH233796   3.662   3.972  14.764 -0.4281  0.5230  0.9171
 4102TIP3    H133797   3.666   3.998  14.672 -0.1285 -1.3392  0.3674
 4102TIP3    H233798   3.594   4.028  14.802 -0.2226  1.6455 -0.3087
 4103TIP3   OH233799   3.655   3.622   3.151 -0.2909  0.1365 -0.9455
 4103TIP3    H133800   3.667   3.628   3.056 -0.1981 -0.4438 -0.9719
 4103TIP3    H233801   3.717   3.686   3.187 -0.0178  0.0459 -1.2548
 4104TIP3   OH233802   0.013   0.153   3.821 -0.3188  0.1213 -0.0319
 4104TIP3    H133803   0.099   0.121   3.850 -1.1947 -0.9564  1.5297
 4104TIP3    H233804  -0.029   0.077   3.781 -0.4833  0.6880 -0.9496
 4105TIP3   OH233805   2.860   0.809   3.527  0.8733  0.2628 -0.3763
 4105TIP3    H133806   2.853   0.759   3.446  2.0291 -1.0985  0.3092
 4105TIP3    H233807   2.930   0.765   3.576 -0.7942  0.0766  2.0365
 4106TIP3   OH233808   2.719   1.625  11.305  0.1572 -0.0002 -0.2259
 4106TIP3    H133809   2.784   1.573  11.259 -0.3296 -0.5388 -0.3303
 4106TIP3    H233810   2.636   1.583  11.284 -0.2491  0.7975 -0.2674
 4107TIP3   OH233811   4.898   2.425   6.593  0.2672 -0.0497  0.2818
 4107TIP3    H133812   4.963   2.489   6.621  0.7406  0.1304 -1.1765
 4107TIP3    H233813   4.938   2.340   6.613  0.9913  0.0591 -0.6490
 4108TIP3   OH233814   0.649   4.549   0.467 -0.5347 -0.5236 -0.3411
 4108TIP3    H133815   0.713   4.487   0.432 -1.7327 -0.1145 -3.6438
 4108TIP3    H233816   0.685   4.635   0.447 -1.0619 -0.2519 -0.1360
 4109TIP3   OH233817   0.184   5.036  12.894 -0.1727 -0.3391 -0.3488
 4109TIP3    H133818   0.277   5.052  12.876  0.4720 -2.2553  0.9451
 4109TIP3    H233819   0.143   5.031  12.808  1.2819 -1.3446 -1.0175
 4110TIP3   OH233820   6.338   3.779  15.911 -0.2551  0.0431  0.1881
 4110TIP3    H133821   6.400   3.722  15.957  0.8782  0.8148 -0.3293
 4110TIP3    H233822   6.300   3.834  15.980  1.6704  1.4200  0.2362
 4111TIP3   OH233823   6.415   0.653   1.573  0.1403 -0.4001 -0.4483
 4111TIP3    H133824   6.475   0.601   1.520 -0.7015  0.1101 -1.9720
 4111TIP3    H233825   6.440   0.634   1.663  3.6831  1.0215 -0.9634
 4112TIP3   OH233826   1.550   1.469  14.408 -0.1618  0.2891 -0.4884
 4112TIP3    H133827   1.503   1.388  14.428  0.8889 -0.2771 -0.2570
 4112TIP3    H233828   1.607   1.446  14.335 -1.0013  1.2591 -1.4885
 4113TIP3   OH233829   6.046   1.046  15.295 -0.5524  0.6616 -0.7559
 4113TIP3    H133830   6.024   0.990  15.221 -0.5703  0.2758 -0.4637
 4113TIP3    H233831   6.090   1.121  15.256  0.1235  0.1051 -1.0979
 4114TIP3   OH233832   6.808   2.205   3.550 -0.1695 -0.0317 -0.1993
 4114TIP3    H133833   6.723   2.223   3.590 -1.0660 -1.6250 -1.3022
 4114TIP3    H233834   6.803   2.246   3.464 -0.0446 -0.6292 -0.4911
 4115TIP3   OH233835   4.265   2.168  12.442  0.6346  0.2591  0.4801
 4115TIP3    H133836   4.229   2.220  12.369 -0.9656 -0.5860  0.6191
 4115TIP3    H233837   4.351   2.140  12.411  0.6394  1.2128 -0.4416
 4116TIP3   OH233838   6.569   0.645  13.749  0.4459  0.2048  0.4724
 4116TIP3    H133839   6.582   0.686  13.663 -1.1771 -0.2922 -0.0448
 4116TIP3    H233840   6.564   0.719  13.810 -0.3602  0.6820 -0.1518
 4117TIP3   OH233841   0.898   0.524  12.215 -0.1433 -0.0664  0.2078
 4117TIP3    H133842   0.858   0.606  12.243  2.9022  2.0392 -1.0928
 4117TIP3    H233843   0.922   0.480  12.297 -0.2292  1.1910  0.9291
 4118TIP3   OH233844   0.973   5.854  12.923  0.7330  0.3863  0.1767
 4118TIP3    H133845   1.021   5.773  12.943  0.9505  0.4996  0.1183
 4118TIP3    H233846   1.033   5.924  12.949  0.0627  0.5297  1.3919
 4119TIP3   OH233847   5.021   4.832  11.157  0.5022  0.1706 -0.4687
 4119TIP3    H133848   5.029   4.772  11.231  1.3009  0.4886 -0.2932
 4119TIP3    H233849   4.931   4.819  11.126 -0.0418  0.4420  0.9093
 4120TIP3   OH233850   6.169   3.736   4.826  0.0524 -0.6419  0.2581
 4120TIP3    H133851   6.215   3.682   4.761 -2.6849 -2.6217 -0.2042
 4120TIP3    H233852   6.175   3.685   4.907  1.9586  0.9958  1.2203
 4121TIP3   OH233853   1.182   0.942  14.331  0.0942 -0.3232 -0.4389
 4121TIP3    H133854   1.141   1.001  14.267 -0.8423 -1.8110 -1.2509
 4121TIP3    H233855   1.121   0.869  14.339 -1.2056  0.9185  4.1482
 4122TIP3   OH233856   2.900   4.882   1.864  0.1852 -0.9119  0.3607
 4122TIP3    H133857   2.849   4.847   1.791  0.4309  0.6600 -0.6046
 4122TIP3    H233858   2.857   4.847   1.943 -0.6735 -1.8428 -0.4938
 4123TIP3   OH233859   6.248   4.342  13.424  0.1749 -0.0686 -0.2603
 4123TIP3    H133860   6.274   4.275  13.487 -3.1685 -0.2881  1.1013
 4123TIP3    H233861   6.292   4.421  13.454  2.4103 -1.1363 -0.5636
 4124TIP3   OH233862   2.248   4.248  12.700  0.0169 -0.6972 -0.5271
 4124TIP3    H133863   2.197   4.315  12.655 -1.8824 -1.5806  0.1619
 4124TIP3    H233864   2.288   4.197  12.630 -1.2587 -0.8435 -1.1843
 4125TIP3   OH233865   5.769   4.441   0.556  0.0409  0.2770  0.2070
 4125TIP3    H133866   5.725   4.387   0.491  0.7988 -0.1529  0.0433
 4125TIP3    H233867   5.819   4.380   0.610  1.4206  0.8501 -0.3727
 4126TIP3   OH233868   0.685   5.089   3.411  0.2066  0.5159  0.2465
 4126TIP3    H133869   0.747   5.147   3.366  1.9623 -2.0707 -0.9183
 4126TIP3    H233870   0.733   5.007   3.422 -3.0982 -1.7865 -1.0442
 4127TIP3   OH233871   5.557   0.600  15.383  0.4299 -0.2009 -0.3062
 4127TIP3    H133872   5.543   0.509  15.358 -0.9734  0.1712 -0.9840
 4127TIP3    H233873   5.482   0.622  15.438  0.6129  0.6167 -0.3636
 4128TIP3   OH233874   3.526   5.967   2.531  0.4701 -0.4261  0.8649
 4128TIP3    H133875   3.466   5.959   2.605 -0.4971 -1.4144  0.0202
 4128TIP3    H233876   3.532   6.061   2.515  0.3566 -0.2251  1.9086
 4129TIP3   OH233877   0.303   5.305   3.603 -0.2112  0.0085  0.0277
 4129TIP3    H133878   0.321   5.362   3.678  2.4537 -1.2850  0.4973
 4129TIP3    H233879   0.214   5.273   3.618 -1.5590  3.3705  0.0974
 4130TIP3   OH233880   3.204   3.430   6.268 -0.0398 -0.0063  0.3974
 4130TIP3    H133881   3.217   3.338   6.292 -1.5286  0.0105  1.4055
 4130TIP3    H233882   3.269   3.446   6.199 -0.3323 -2.0560 -0.4243
 4131TIP3   OH233883   6.489   2.631   4.365 -0.3741  0.0471 -0.2823
 4131TIP3    H133884   6.429   2.705   4.371  0.4228  0.6326  0.8189
 4131TIP3    H233885   6.546   2.640   4.441  1.5587 -0.0783 -1.6319
 4132TIP3   OH233886   3.792   1.270  16.113  0.2470 -0.4327  0.3868
 4132TIP3    H133887   3.712   1.311  16.080  0.8368 -0.4182 -1.0808
 4132TIP3    H233888   3.859   1.337  16.102  1.1566 -1.6075 -1.7434
 4133TIP3   OH233889   6.474   3.095  11.279 -0.1378  0.2768  0.6520
 4133TIP3    H133890   6.519   3.104  11.195 -0.4341 -0.6860  0.3819
 4133TIP3    H233891   6.381   3.101  11.257 -0.2277 -0.3734  0.8586
 4134TIP3   OH233892   0.502   6.511   1.576  0.0995  0.5020  0.4161
 4134TIP3    H133893   0.528   6.594   1.535 -1.1707  1.2368  0.9987
 4134TIP3    H233894   0.537   6.517   1.665  0.2705  0.2757  0.3630
 4135TIP3   OH233895   1.192   0.595   5.327 -0.3678 -0.4769  0.2070
 4135TIP3    H133896   1.281   0.611   5.357 -1.1432  0.8934  2.0018
 4135TIP3    H233897   1.190   0.502   5.303  1.1765 -0.8588  1.4279
 4136TIP3   OH233898   5.162   1.607  15.400  0.1015 -0.1062 -0.1704
 4136TIP3    H133899   5.085   1.553  15.383  0.0062  0.4786 -1.8505
 4136TIP3    H233900   5.128   1.696  15.407  0.6241  0.1889 -1.1699
 4137TIP3   OH233901   0.176   0.657   4.066  0.7926 -0.2340 -0.3116
 4137TIP3    H133902   0.150   0.716   4.137  2.0706  1.4529 -1.1476
 4137TIP3    H233903   0.186   0.571   4.108  0.6975  0.5364  1.3684
 4138TIP3   OH233904   5.010   0.208   5.189 -0.4228  0.1022  0.0456
 4138TIP3    H133905   4.928   0.241   5.228  0.0262  1.1708  0.1334
 4138TIP3    H233906   4.982   0.143   5.126 -1.4225  1.0819 -0.5612
 4139TIP3   OH233907   0.250   3.635   4.133 -0.1199 -0.1060  0.4523
 4139TIP3    H133908   0.157   3.615   4.124 -0.5531  1.6329  0.7070
 4139TIP3    H233909   0.288   3.556   4.173 -1.1349 -1.4994 -1.2110
 4140TIP3   OH233910   4.005   4.685   1.986  0.1508 -0.2543 -0.1561
 4140TIP3    H133911   3.962   4.615   2.035 -2.1993  0.1734 -1.5019
 4140TIP3    H233912   4.080   4.642   1.944 -1.8563 -2.2908 -1.8535
 4141TIP3   OH233913   5.892   4.401   4.089 -0.4811  0.0697 -0.2849
 4141TIP3    H133914   5.904   4.421   3.997 -1.3548 -3.3023 -1.2781
 4141TIP3    H233915   5.979   4.406   4.127  0.3821 -1.1402 -1.9661
 4142TIP3   OH233916   1.042   6.248   0.604 -0.0762 -0.2170  0.3908
 4142TIP3    H133917   1.041   6.338   0.637  0.1201 -0.5858  1.4610
 4142TIP3    H233918   1.134   6.230   0.585 -0.3786  0.5617 -2.0752
 4143TIP3   OH233919   6.415   4.233   3.704  0.4112  0.3790  0.5617
 4143TIP3    H133920   6.422   4.219   3.609  1.1823 -0.4665  0.7321
 4143TIP3    H233921   6.445   4.151   3.743 -2.0473 -0.1550  1.5394
 4144TIP3   OH233922   6.851   3.389   3.683 -0.0930  0.4880 -0.2526
 4144TIP3    H133923   6.781   3.419   3.741  0.3606 -1.4982  1.4252
 4144TIP3    H233924   6.927   3.441   3.709 -0.2475  0.6579 -0.1293
 4145TIP3   OH233925   0.276   2.121  13.166 -0.0507  0.0665  0.1441
 4145TIP3    H133926   0.260   2.211  13.137 -0.2326 -0.2957 -0.9083
 4145TIP3    H233927   0.301   2.130  13.258  2.6286  1.4560 -0.6226
 4146TIP3   OH233928   4.832   4.477  17.094 -0.2327 -0.4071  0.6271
 4146TIP3    H133929   4.796   4.396  17.129  0.3964 -0.6939  0.6194
 4146TIP3    H233930   4.765   4.543  17.112 -1.0695 -1.0602 -0.0352
 4147TIP3   OH233931   2.805   1.632   3.533 -0.5252  0.3055  0.5650
 4147TIP3    H133932   2.815   1.612   3.626 -1.4871  0.7504  0.7732
 4147TIP3    H233933   2.796   1.547   3.490  1.5837 -0.0206  0.6375
 4148TIP3   OH233934   2.427   4.459   4.147 -0.3600 -0.0893 -0.0725
 4148TIP3    H133935   2.437   4.435   4.054 -0.8493 -1.6063  0.2467
 4148TIP3    H233936   2.361   4.528   4.146  1.0923  1.3745 -1.0206
 4149TIP3   OH233937   1.011   0.192   3.800  0.4468 -0.0630  0.2543
 4149TIP3    H133938   0.950   0.153   3.737  0.4332  0.4881 -0.0836
 4149TIP3    H233939   0.971   0.176   3.885  0.2243 -0.4002  0.0883
 4150TIP3   OH233940   2.376   3.549  15.115 -0.3982 -0.2571  0.2518
 4150TIP3    H133941   2.375   3.473  15.057 -1.2321 -1.1962  1.4475
 4150TIP3    H233942   2.297   3.598  15.093  0.8116  1.0639 -1.4590
 4151TIP3   OH233943   0.257   1.065   6.357  0.1141  0.3132 -0.3446
 4151TIP3    H133944   0.293   1.146   6.322  0.3763 -0.0041 -0.8203
 4151TIP3    H233945   0.240   1.011   6.280 -1.9822  0.6858 -0.1843
 4152TIP3   OH233946   1.835   0.501   1.398  0.2592 -0.2139  0.4010
 4152TIP3    H133947   1.802   0.540   1.317  1.2531 -1.6614 -0.7518
 4152TIP3    H233948   1.921   0.540   1.410 -0.4925  1.1571  1.6534
 4153TIP3   OH233949   0.359   5.545   5.643  0.1310  0.1987 -0.3515
 4153TIP3    H133950   0.344   5.552   5.737  0.1846  0.2469 -0.3460
 4153TIP3    H233951   0.450   5.575   5.632 -0.5092  2.2058 -0.6666
 4154TIP3   OH233952   4.938   3.248   1.207 -0.5775  0.1140 -0.5721
 4154TIP3    H133953   4.858   3.251   1.154 -1.0158 -1.0001  0.0024
 4154TIP3    H233954   4.952   3.155   1.224  2.1632  0.0298 -2.6292
 4155TIP3   OH233955   4.900   5.866   2.357 -0.3055  0.2017 -0.3450
 4155TIP3    H133956   4.811   5.889   2.329 -0.3216  1.8596  0.8568
 4155TIP3    H233957   4.911   5.913   2.440  1.0557 -1.4435  0.4605
 4156TIP3   OH233958   6.314   6.253   3.173  0.3276 -0.3150 -0.0169
 4156TIP3    H133959   6.329   6.177   3.117 -0.9244 -1.2597  0.8661
 4156TIP3    H233960   6.385   6.314   3.151  0.4371 -1.0592 -1.8815
 4157TIP3   OH233961   6.158   4.963   0.001 -0.4551  0.0110 -0.1170
 4157TIP3    H133962   6.125   5.048   0.031 -0.6735 -0.0977 -0.0451
 4157TIP3    H233963   6.107   4.944  -0.078 -1.3863 -0.6909  0.6313
 4158TIP3   OH233964   0.486   5.223  16.194 -0.1228  0.5781 -0.3437
 4158TIP3    H133965   0.471   5.181  16.279 -0.1359 -1.6680 -1.3831
 4158TIP3    H233966   0.564   5.180  16.159  0.3613  2.0448 -1.1478
 4159TIP3   OH233967   6.332   4.428  11.312 -0.4302 -0.4970  0.2274
 4159TIP3    H133968   6.309   4.360  11.375 -0.0279  0.0914  1.0131
 4159TIP3    H233969   6.427   4.426  11.307 -0.4547 -0.4932 -0.3169
 4160TIP3   OH233970   5.128   1.738   4.061  0.1301 -0.0738 -0.1562
 4160TIP3    H133971   5.109   1.668   3.997 -0.3177  1.1179 -1.3797
 4160TIP3    H233972   5.224   1.744   4.062  0.1506 -0.3018 -0.5088
 4161TIP3   OH233973   3.072   4.419   1.670  0.0829  0.3982  0.5572
 4161TIP3    H133974   3.063   4.501   1.718  1.5700 -0.0063  1.6078
 4161TIP3    H233975   3.019   4.431   1.591 -0.4949  1.9859  1.1466
 4162TIP3   OH233976   4.400   6.099   3.598 -0.0521  0.4552  0.6693
 4162TIP3    H133977   4.368   6.111   3.509  0.8667 -0.7402  0.1394
 4162TIP3    H233978   4.348   6.159   3.651 -0.5927  1.2188 -0.6716
 4163TIP3   OH233979   0.816   2.106  15.598 -0.4577  0.6245 -0.2182
 4163TIP3    H133980   0.864   2.188  15.587  0.7475 -0.3317 -2.5302
 4163TIP3    H233981   0.742   2.113  15.538  1.8332 -1.4640 -3.5888
 4164TIP3   OH233982   2.694   3.328   3.170 -0.1453 -0.2709  0.1920
 4164TIP3    H133983   2.764   3.298   3.227  0.0211 -1.3566 -0.5447
 4164TIP3    H233984   2.731   3.401   3.121  0.5445 -0.9633 -0.3313
 4165TIP3   OH233985   1.408   1.976   0.947 -0.1768  0.5639  0.1667
 4165TIP3    H133986   1.479   1.993   0.885 -1.5003  1.1800 -1.2421
 4165TIP3    H233987   1.335   1.948   0.892 -1.5510  1.6134  1.3934
 4166TIP3   OH233988   3.559   5.788  14.275 -0.0712 -0.1297  0.7013
 4166TIP3    H133989   3.548   5.707  14.324  0.5344  0.9926  2.8216
 4166TIP3    H233990   3.473   5.830  14.277 -0.6886 -1.1309 -1.3482
 4167TIP3   OH233991   1.889   3.366  12.240 -0.7773  0.2392 -0.6723
 4167TIP3    H133992   1.863   3.351  12.331 -0.7544  0.7031 -0.5842
 4167TIP3    H233993   1.872   3.459  12.226 -1.9747 -0.0978 -1.5411
 4168TIP3   OH233994   2.838   4.311  15.229 -0.4902  0.1047 -0.0032
 4168TIP3    H133995   2.855   4.306  15.323  0.0460 -0.2811 -0.1123
 4168TIP3    H233996   2.919   4.346  15.192 -1.1322  1.4150 -0.1989
 4169TIP3   OH233997   2.692   1.384   3.484 -0.8899  0.2535 -0.4683
 4169TIP3    H133998   2.677   1.349   3.572  0.5093 -0.2379 -0.3911
 4169TIP3    H233999   2.758   1.325   3.446 -0.9440  0.8802 -1.5873
 4170TIP3   OH234000   2.194   1.904   2.619 -0.9371  0.1692  0.0030
 4170TIP3    H134001   2.217   1.880   2.530 -1.3777 -0.6702  0.1119
 4170TIP3    H234002   2.185   2.000   2.616 -1.4464  0.0993 -0.9644
 4171TIP3   OH234003   1.558   5.672   2.168  0.2774 -0.0383  0.0540
 4171TIP3    H134004   1.508   5.635   2.095  0.5719 -0.5180  0.0893
 4171TIP3    H234005   1.537   5.616   2.242  0.9559 -0.3123  0.0413
 4172TIP3   OH234006   3.540   4.921  10.783 -0.0642  0.1670  0.0827
 4172TIP3    H134007   3.521   4.827  10.777  2.4039 -0.5191  1.4369
 4172TIP3    H234008   3.620   4.932  10.731 -0.1705  1.4678  0.1709
 4173TIP3   OH234009   3.936   4.652  16.776 -0.4854  0.1119  0.0004
 4173TIP3    H134010   3.970   4.562  16.777  0.8044  0.5791  0.5380
 4173TIP3    H234011   3.996   4.701  16.832 -0.7341  1.4724 -0.8732
 4174TIP3   OH234012   6.793   5.037   0.914 -0.6272  0.3550  0.2282
 4174TIP3    H134013   6.726   5.009   0.976 -0.7632  1.5717  0.6539
 4174TIP3    H234014   6.860   5.079   0.968  0.2930 -0.4686 -0.2340
 4175TIP3   OH234015   4.607   1.211   3.029 -0.7706  0.0508 -0.0526
 4175TIP3    H134016   4.634   1.237   3.117 -0.1773  1.0115 -0.5094
 4175TIP3    H234017   4.568   1.289   2.992 -0.8141 -0.2856 -0.7244
 4176TIP3   OH234018   2.860   1.321  14.026  0.1134 -0.3764 -0.2907
 4176TIP3    H134019   2.843   1.272  14.107 -2.0859  2.9171  1.4757
 4176TIP3    H234020   2.933   1.379  14.048 -0.3223  0.3522 -0.7126
 4177TIP3   OH234021   0.598   3.562   0.722 -0.3899 -0.2649 -0.6541
 4177TIP3    H134022   0.619   3.486   0.776  0.9930  0.3424 -0.2797
 4177TIP3    H234023   0.600   3.636   0.783 -0.3468  0.2440 -1.2581
 4178TIP3   OH234024   1.557   2.113  16.637 -0.1192  0.5448 -0.0828
 4178TIP3    H134025   1.590   2.105  16.726 -0.7395 -1.3356  0.0009
 4178TIP3    H234026   1.542   2.023  16.608 -1.5943  1.1872 -1.4585
 4179TIP3   OH234027   0.903   0.698  11.599  0.1750 -0.1062 -0.5637
 4179TIP3    H134028   0.987   0.679  11.556  1.5367  1.9970  0.9467
 4179TIP3    H234029   0.869   0.774  11.553  2.0926  2.7565  2.3255
 4180TIP3   OH234030   2.810   3.935   6.268  0.1254  0.0091  0.1121
 4180TIP3    H134031   2.845   4.023   6.254  0.0601  0.1608  0.8388
 4180TIP3    H234032   2.880   3.876   6.240 -0.2398  0.2696 -1.4059
 4181TIP3   OH234033   1.396   2.731   4.892  0.5203  0.3891  0.2381
 4181TIP3    H134034   1.311   2.754   4.928  0.1703 -1.5238  0.7417
 4181TIP3    H234035   1.390   2.755   4.799 -0.1770  1.2231  0.4858
 4182TIP3   OH234036   0.532   0.734   0.496  0.3888 -0.2602  0.3171
 4182TIP3    H134037   0.468   0.698   0.557  2.0140 -1.1187  1.6310
 4182TIP3    H234038   0.600   0.772   0.553  1.3940 -0.0660 -0.9729
 4183TIP3   OH234039   4.545   1.940  15.074  0.3384 -0.3583  0.4672
 4183TIP3    H134040   4.577   1.854  15.103  1.1977 -0.4924 -0.8151
 4183TIP3    H234041   4.605   2.003  15.115  1.6042 -0.5517 -1.0102
 4184TIP3   OH234042   3.496   4.032  13.016  0.0544  0.0663 -0.1546
 4184TIP3    H134043   3.581   4.014  13.056  0.1793 -0.5743 -0.7065
 4184TIP3    H234044   3.443   3.956  13.037  0.1215 -0.2753 -1.2010
 4185TIP3   OH234045   0.164   3.675  13.971 -0.4412  0.0414 -0.5529
 4185TIP3    H134046   0.179   3.769  13.965 -0.8439  0.0732 -1.1615
 4185TIP3    H234047   0.168   3.644  13.880  0.6968 -0.6898 -0.2727
 4186TIP3   OH234048   2.807   2.643  16.571 -0.4357 -0.2651  0.2799
 4186TIP3    H134049   2.764   2.588  16.506 -1.3721  0.5090  0.2177
 4186TIP3    H234050   2.745   2.647  16.644 -0.7905  1.3899 -0.0755
 4187TIP3   OH234051   5.056   0.019   0.471 -0.6313  0.1570 -0.5955
 4187TIP3    H134052   5.110   0.009   0.392 -1.0811  0.0803 -0.8996
 4187TIP3    H234053   4.985  -0.045   0.460  0.0997 -0.9044  0.5687
 4188TIP3   OH234054   0.639   4.804   0.046 -0.4299  0.0613 -0.1081
 4188TIP3    H134055   0.575   4.767   0.107 -0.0570  1.4290  1.1781
 4188TIP3    H234056   0.615   4.767  -0.039 -2.0317 -0.5686  0.5741
 4189TIP3   OH234057   3.017   2.490   5.609  0.0071  0.1546  0.1854
 4189TIP3    H134058   3.105   2.527   5.596 -1.5971  4.3343 -0.3532
 4189TIP3    H234059   2.994   2.451   5.525  0.5645  0.9266 -0.3317
 4190TIP3   OH234060   5.399   2.384  13.189  0.2214  0.1068 -0.7063
 4190TIP3    H134061   5.469   2.446  13.209  0.4038 -0.7224  1.5612
 4190TIP3    H234062   5.438   2.323  13.126  0.9297  0.7323 -0.8871
 4191TIP3   OH234063   1.973   2.937  12.465 -0.4764  0.1886  0.2555
 4191TIP3    H134064   1.988   2.847  12.493  0.8743 -0.0074 -1.0148
 4191TIP3    H234065   1.902   2.931  12.401 -1.1381  0.1876  0.9743
 4192TIP3   OH234066   1.841   0.864  10.156  0.3666 -0.7185 -0.5277
 4192TIP3    H134067   1.772   0.813  10.114  0.6016 -0.7719 -0.8524
 4192TIP3    H234068   1.908   0.800  10.178  0.6363 -0.5659 -0.8837
 4193TIP3   OH234069   5.092   3.284   3.545  0.0978  0.3508  0.0141
 4193TIP3    H134070   5.096   3.191   3.565  1.0792  0.6779  1.4169
 4193TIP3    H234071   5.020   3.291   3.481 -0.3600 -1.2736  0.3050
 4194TIP3   OH234072   2.260   2.416   0.912 -0.2000  0.1000  0.1906
 4194TIP3    H134073   2.181   2.363   0.905 -1.3526  1.6862  0.6478
 4194TIP3    H234074   2.244   2.473   0.987  1.5810  0.1540  0.5747
 4195TIP3   OH234075   0.953   5.648   5.262  0.1231  0.5777 -0.3899
 4195TIP3    H134076   1.009   5.576   5.235  0.9327  0.2854  1.8398
 4195TIP3    H234077   0.998   5.727   5.229  0.3762  0.1952 -0.9755
 4196TIP3   OH234078   4.636   6.318  12.469 -0.3099 -0.3559  0.2464
 4196TIP3    H134079   4.556   6.275  12.498 -1.1868  0.6162 -0.6382
 4196TIP3    H234080   4.614   6.355  12.384  1.0993 -0.0798 -0.0336
 4197TIP3   OH234081   1.869   5.298   5.171  0.7094 -0.3585 -0.1749
 4197TIP3    H134082   1.943   5.253   5.214  2.0778  2.6848  0.9439
 4197TIP3    H234083   1.884   5.285   5.078  1.9071 -0.8911  0.0691
 4198TIP3   OH234084   3.501   6.154  14.318  0.2405 -0.0381  0.2096
 4198TIP3    H134085   3.485   6.120  14.230  2.1916  1.3717 -0.7494
 4198TIP3    H234086   3.469   6.245  14.315  2.1708  0.6833  0.2692
 4199TIP3   OH234087   3.326   5.563   2.595  0.0181  0.0627 -0.1405
 4199TIP3    H134088   3.240   5.567   2.553  0.4919  0.2729 -1.1273
 4199TIP3    H234089   3.380   5.624   2.545  0.9227 -0.5734  0.0274
 4200TIP3   OH234090   3.754   3.766   4.867  0.1411 -0.2787  0.0047
 4200TIP3    H134091   3.677   3.820   4.888  0.0300 -0.6536  0.5641
 4200TIP3    H234092   3.746   3.690   4.924 -0.0860 -1.2528 -1.2871
 4201TIP3   OH234093   0.287   2.011   5.784  0.0551  0.5834  0.1193
 4201TIP3    H134094   0.264   2.039   5.872 -0.7405 -0.1783  0.1580
 4201TIP3    H234095   0.204   1.998   5.739  0.3632 -1.5536  0.0498
 4202TIP3   OH234096   4.429   6.530  15.718 -0.6104  0.0449 -0.1326
 4202TIP3    H134097   4.452   6.457  15.661 -1.9578 -1.0684  0.6584
 4202TIP3    H234098   4.512   6.556  15.759 -0.1988 -1.6056  0.1704
 4203TIP3   OH234099   5.262   5.915   4.679 -0.1913 -0.4185  0.0637
 4203TIP3    H134100   5.302   5.946   4.597  1.1887  1.2218  1.2550
 4203TIP3    H234101   5.185   5.867   4.652  0.3721 -0.1643 -2.2167
 4204TIP3   OH234102   4.190   6.104  14.309 -0.2731 -0.3258  0.2066
 4204TIP3    H134103   4.144   6.059  14.380  0.0116  1.6049  1.6907
 4204TIP3    H234104   4.130   6.175  14.284  0.7814  0.6578  0.4075
 4205TIP3   OH234105   4.301   4.408  14.626  0.4255 -0.3899 -0.6514
 4205TIP3    H134106   4.273   4.472  14.560  0.1965  0.1952  0.0025
 4205TIP3    H234107   4.397   4.408  14.619  0.4361  0.1115 -0.5931
 4206TIP3   OH234108   3.153   5.900   0.964 -0.1607  0.1735 -0.4738
 4206TIP3    H134109   3.245   5.879   0.978 -0.6361 -1.4025  0.7252
 4206TIP3    H234110   3.130   5.854   0.883  0.1416  0.7538 -0.8972
 4207TIP3   OH234111   4.412   2.987  15.510  0.4360  0.0139 -0.0548
 4207TIP3    H134112   4.393   2.893  15.505 -2.7815  0.5846 -1.2176
 4207TIP3    H234113   4.443   3.010  15.422  1.1642  0.0703  0.2113
 4208TIP3   OH234114   0.792   0.221  16.876  0.5890 -0.1107  0.0015
 4208TIP3    H134115   0.762   0.195  16.962 -0.4002  0.2273 -0.2311
 4208TIP3    H234116   0.834   0.306  16.889  0.4433 -0.0622  0.1509
 4209TIP3   OH234117   2.139   4.044  15.014  0.2394 -0.5437  0.1905
 4209TIP3    H134118   2.050   4.017  15.038  0.0622 -0.7839 -0.6824
 4209TIP3    H234119   2.143   4.028  14.919  0.6299  1.1059 -0.0909
 4210TIP3   OH234120   2.652   0.303   1.240 -0.8703 -0.6076 -0.3985
 4210TIP3    H134121   2.688   0.392   1.233 -1.5136 -0.1508  1.4144
 4210TIP3    H234122   2.708   0.250   1.183 -0.4191  0.9297 -1.4557
 4211TIP3   OH234123   0.158   0.481   6.190 -0.2654  0.6883 -0.2021
 4211TIP3    H134124   0.204   0.547   6.138  1.0043 -0.4562 -0.5899
 4211TIP3    H234125   0.070   0.517   6.202  0.0609  1.9446 -1.3358
 4212TIP3   OH234126   2.352   1.614  16.174 -0.0096 -0.0089 -0.5183
 4212TIP3    H134127   2.329   1.688  16.118 -0.1741 -2.0765 -3.3622
 4212TIP3    H234128   2.441   1.635  16.205 -0.8072  2.2557  0.4758
 4213TIP3   OH234129   1.654   2.111   5.586  0.1903  0.6048 -0.0327
 4213TIP3    H134130   1.659   2.032   5.639  2.9442 -1.2676 -2.8131
 4213TIP3    H234131   1.723   2.168   5.621  0.1044  0.6003  0.1483
 4214TIP3   OH234132   3.223   4.243  14.357  0.3487  0.1131  0.0470
 4214TIP3    H134133   3.151   4.267  14.415  1.1621  0.3208  1.0029
 4214TIP3    H234134   3.188   4.255  14.269 -0.8192  0.0852  0.4871
 4215TIP3   OH234135   5.955   0.234   0.053 -0.4547  0.5210  0.3765
 4215TIP3    H134136   6.006   0.292   0.110 -0.1608 -0.2917  0.9587
 4215TIP3    H234137   5.870   0.275   0.046  0.1896  1.7801 -0.4060
 4216TIP3   OH234138   3.197   2.133   0.882 -0.3226 -0.0000 -0.0516
 4216TIP3    H134139   3.168   2.187   0.956  0.9027 -0.1175  0.5327
 4216TIP3    H234140   3.153   2.172   0.806 -1.6868  0.0571  0.7338
 4217TIP3   OH234141   5.262   3.009   1.579 -0.1173 -0.4165  0.6524
 4217TIP3    H134142   5.277   3.099   1.551 -2.3028  0.1554  1.1557
 4217TIP3    H234143   5.223   2.966   1.502  0.5287 -0.8326  0.5478
 4218TIP3   OH234144   4.598   0.120  16.084  0.4184  0.1211  0.1846
 4218TIP3    H134145   4.560   0.208  16.075 -1.8334 -0.8729 -0.6328
 4218TIP3    H234146   4.596   0.103  16.179 -0.8345  0.2726  0.2061
 4219TIP3   OH234147   5.704   5.114  11.856  0.4412  0.3386 -1.1957
 4219TIP3    H134148   5.797   5.111  11.834  0.8991  0.3910  0.5780
 4219TIP3    H234149   5.702   5.130  11.950 -1.3895  1.8070 -1.4274
 4220TIP3   OH234150   6.546   3.753  16.681 -0.4128 -0.3913 -0.3955
 4220TIP3    H134151   6.623   3.747  16.737 -0.9361 -1.6334  0.2319
 4220TIP3    H234152   6.577   3.798  16.602  0.6792  0.0907  0.2923
 4221TIP3   OH234153   3.383   2.493  11.743 -0.4635  0.2971  0.4046
 4221TIP3    H134154   3.446   2.421  11.736 -0.8351  0.0650 -0.8428
 4221TIP3    H234155   3.434   2.571  11.721 -0.5300  0.1537 -0.2623
 4222TIP3   OH234156   2.462   4.508  13.298 -0.1146 -0.5203 -0.4667
 4222TIP3    H134157   2.543   4.531  13.252 -1.5316  0.8531 -2.4641
 4222TIP3    H234158   2.448   4.581  13.358  0.3977 -1.0499  0.3168
 4223TIP3   OH234159   4.960   6.827  16.991 -0.0648  0.5041  0.0061
 4223TIP3    H134160   5.049   6.848  16.963 -0.0608  0.2935 -0.1421
 4223TIP3    H234161   4.948   6.876  17.072 -0.1362  1.2578 -0.4561
 4224TIP3   OH234162   4.160   6.397   0.821 -0.5375 -0.4448  0.3552
 4224TIP3    H134163   4.239   6.352   0.789  0.1128 -0.5110  1.9117
 4224TIP3    H234164   4.087   6.346   0.786  0.1323 -0.7863 -0.5655
 4225TIP3   OH234165   4.524   1.035   2.501  0.0751  0.0778  0.4851
 4225TIP3    H134166   4.590   0.978   2.462  0.0198  0.1150  0.3377
 4225TIP3    H234167   4.484   0.981   2.570 -1.0819 -0.6279 -0.6988
 4226TIP3   OH234168   5.466   0.760   5.128 -0.2454  0.0995  0.4848
 4226TIP3    H134169   5.549   0.767   5.176  0.4786  0.7473 -0.8053
 4226TIP3    H234170   5.405   0.724   5.192  1.0990 -0.7055  1.3904
 4227TIP3   OH234171   2.620   5.610   3.895 -0.2219 -0.0523  0.5793
 4227TIP3    H134172   2.653   5.666   3.965 -1.2693 -0.4737  1.4500
 4227TIP3    H234173   2.674   5.632   3.819  0.2264  1.2132  1.2254
 4228TIP3   OH234174   1.494   1.812   5.892 -0.3440 -0.0043 -0.6044
 4228TIP3    H134175   1.562   1.841   5.831  1.3827  1.3199  1.7895
 4228TIP3    H234176   1.540   1.795   5.974 -2.5418 -1.8206  0.3864
 4229TIP3   OH234177   6.491   1.950  11.323  0.2427  0.1322 -0.4942
 4229TIP3    H134178   6.487   1.855  11.309 -0.4351  0.2444 -1.1111
 4229TIP3    H234179   6.545   1.960  11.402 -1.7634 -0.8949  1.0910
 4230TIP3   OH234180   2.467   3.557  12.195 -0.4856 -0.1792 -0.2299
 4230TIP3    H134181   2.416   3.638  12.194 -2.2774 -1.0896  2.6709
 4230TIP3    H234182   2.556   3.584  12.216 -0.5812  1.1480 -1.3939
 4231TIP3   OH234183   2.379   6.008  12.209 -0.3215 -0.1184  0.1261
 4231TIP3    H134184   2.462   6.016  12.254 -0.5149  1.2091  0.2715
 4231TIP3    H234185   2.323   5.957  12.268  0.4055 -1.1348 -0.0348
 4232TIP3   OH234186   3.279   4.939  16.651 -0.0564 -0.0345  0.2044
 4232TIP3    H134187   3.280   4.867  16.588  1.3627  1.1512 -1.2174
 4232TIP3    H234188   3.327   5.010  16.608 -0.2351  1.3169  2.0800
 4233TIP3   OH234189   6.182   3.903   0.301  0.1402 -0.1523  1.0628
 4233TIP3    H134190   6.277   3.907   0.315  0.3873 -1.8401  0.2036
 4233TIP3    H234191   6.170   3.828   0.243 -1.6132  0.9117 -0.0293
 4234TIP3   OH234192   6.443   5.658  16.525 -0.0269  0.0080  0.2119
 4234TIP3    H134193   6.516   5.640  16.466  1.0608 -1.1611  1.8203
 4234TIP3    H234194   6.418   5.573  16.559 -0.8605  0.6098  1.1575
 4235TIP3   OH234195   3.583   5.619   5.146  0.7453 -0.3739  0.6967
 4235TIP3    H134196   3.650   5.632   5.213  0.2272  2.0212  0.8241
 4235TIP3    H234197   3.503   5.655   5.185 -0.2900 -1.7645 -0.0560
 4236TIP3   OH234198   1.418   1.534   4.545 -0.0156 -0.0941 -0.5392
 4236TIP3    H134199   1.507   1.514   4.573 -0.2240 -0.6133 -0.2362
 4236TIP3    H234200   1.400   1.620   4.585  0.4786  0.1966 -0.9246
 4237TIP3   OH234201   5.149   0.147  11.700  0.4743 -0.4469  0.5003
 4237TIP3    H134202   5.221   0.199  11.665  0.7388  0.5390  2.4200
 4237TIP3    H234203   5.097   0.124  11.623  1.8267  0.3636 -0.7046
 4238TIP3   OH234204   5.679   6.357   2.029  0.7630  0.5418 -0.3528
 4238TIP3    H134205   5.760   6.316   2.057  0.7438  0.2037 -0.7813
 4238TIP3    H234206   5.641   6.392   2.110  0.4539 -0.8480  0.1365
 4239TIP3   OH234207   0.971   3.017   2.145 -0.0696 -0.2016  0.2416
 4239TIP3    H134208   0.919   2.982   2.073 -0.8188 -1.9949  1.5763
 4239TIP3    H234209   1.059   3.025   2.109 -0.4564 -0.9457 -0.9218
 4240TIP3   OH234210   6.208   0.153  14.313  0.2087  0.4034  0.0131
 4240TIP3    H134211   6.299   0.180  14.303  0.0314  0.9312 -0.1896
 4240TIP3    H234212   6.183   0.121  14.227  1.0625 -2.4879  0.7294
 4241TIP3   OH234213   4.934   3.039   1.653  0.2310 -0.0676  0.1324
 4241TIP3    H134214   4.934   3.016   1.746  2.2943 -0.3374  0.1134
 4241TIP3    H234215   4.956   3.132   1.651 -0.3270  0.0681 -0.0910
 4242TIP3   OH234216   2.571   5.625  11.872  0.0475  0.0745 -0.6401
 4242TIP3    H134217   2.554   5.564  11.944  0.0598  0.7803 -0.0242
 4242TIP3    H234218   2.560   5.712  11.911 -1.6043  0.4774 -1.8897
 4243TIP3   OH234219   5.985   0.223  12.981 -0.0504 -0.2099 -0.1484
 4243TIP3    H134220   5.913   0.208  13.042  0.3851  1.2076  0.7768
 4243TIP3    H234221   5.953   0.192  12.897 -1.1055 -1.1370  0.5697
 4244TIP3   OH234222   2.838   5.445  13.798 -0.1027 -0.0565 -0.0949
 4244TIP3    H134223   2.843   5.355  13.763  1.2411 -0.0571  0.0477
 4244TIP3    H234224   2.842   5.501  13.721 -2.2169 -0.0805 -0.3040
 4245TIP3   OH234225   1.584   5.585   0.651  0.3920 -0.0555 -0.3937
 4245TIP3    H134226   1.520   5.585   0.722 -0.3223 -0.3763 -1.0270
 4245TIP3    H234227   1.659   5.538   0.687  1.2686  2.3892  1.1875
 4246TIP3   OH234228   0.001   1.994   5.732 -0.2552 -0.2607 -0.4256
 4246TIP3    H134229  -0.044   1.921   5.774  0.0903  0.4472  1.2727
 4246TIP3    H234230  -0.067   2.059   5.716 -0.1615  0.0664  0.4491
 4247TIP3   OH234231   5.435   6.535  12.851 -0.3968 -0.5805  0.9319
 4247TIP3    H134232   5.404   6.625  12.839 -0.5284 -0.4097  2.3929
 4247TIP3    H234233   5.465   6.508  12.764 -2.8870 -0.1071 -0.1586
 4248TIP3   OH234234   5.339   5.897   5.430 -0.4269 -0.5310 -0.2603
 4248TIP3    H134235   5.262   5.844   5.449 -0.6833  0.1352  0.6152
 4248TIP3    H234236   5.349   5.954   5.506  0.5527 -0.1539 -0.6452
 4249TIP3   OH234237   5.802   2.966  10.953  0.2053  0.7477  0.0961
 4249TIP3    H134238   5.884   3.001  10.988  1.0068 -2.0038  1.2805
 4249TIP3    H234239   5.824   2.937  10.864  0.7350 -0.4609  0.5913
 4250TIP3   OH234240   5.614   5.422  16.527  0.2849 -0.0736  0.3813
 4250TIP3    H134241   5.669   5.491  16.563 -0.0706 -0.3007  1.3921
 4250TIP3    H234242   5.640   5.343  16.575 -1.9997  0.0994  2.0802
 4251TIP3   OH234243   1.257   5.694   5.996 -0.0170  0.0032 -0.0998
 4251TIP3    H134244   1.213   5.712   6.079  1.2609  0.0410  0.5905
 4251TIP3    H234245   1.280   5.601   6.000 -2.5771 -0.8239 -1.7301
 4252TIP3   OH234246   4.250   5.042   0.124 -0.0220  0.0962  0.5704
 4252TIP3    H134247   4.196   5.047   0.203 -0.5069 -1.4810  0.3843
 4252TIP3    H234248   4.211   5.105   0.064 -0.8998 -0.1477  0.8753
 4253TIP3   OH234249   2.247   1.484  12.526 -0.3388 -0.3574  0.4073
 4253TIP3    H134250   2.262   1.391  12.508 -0.8139 -0.5526  1.0044
 4253TIP3    H234251   2.331   1.514  12.562  0.7595  0.1302 -2.3403
 4254TIP3   OH234252   2.361   2.946  14.764  0.0334 -0.6264 -0.2013
 4254TIP3    H134253   2.312   2.865  14.772  0.0077 -0.5550  0.4070
 4254TIP3    H234254   2.393   2.946  14.673  0.2340 -1.4270 -0.1409
 4255TIP3   OH234255   0.515   6.435   1.968 -0.2362  0.5258 -0.0915
 4255TIP3    H134256   0.426   6.407   1.947 -0.1923 -0.7595  1.2504
 4255TIP3    H234257   0.521   6.428   2.064  1.3573  0.3940 -0.1628
 4256TIP3   OH234258   5.619   0.510   1.500  0.1256  0.6178 -0.0827
 4256TIP3    H134259   5.714   0.521   1.510  0.6024 -0.4757 -2.5141
 4256TIP3    H234260   5.582   0.546   1.580  2.5022  2.3765  0.3369
 4257TIP3   OH234261   4.469   5.996   3.989 -0.0497 -0.2714 -0.5767
 4257TIP3    H134262   4.441   5.943   3.914 -1.5395  0.4403 -0.5639
 4257TIP3    H234263   4.559   6.022   3.968 -0.8424  0.9758 -2.7573
 4258TIP3   OH234264   0.361   3.512  16.707 -0.4742 -0.3566 -0.3062
 4258TIP3    H134265   0.341   3.485  16.618 -1.1855  0.6689 -0.4685
 4258TIP3    H234266   0.454   3.534  16.706 -0.7936  1.0341 -1.1617
 4259TIP3   OH234267   2.962   5.916   5.100 -0.4156 -0.6839  0.0306
 4259TIP3    H134268   2.946   5.840   5.156  1.8205 -0.9874  0.3529
 4259TIP3    H234269   2.960   5.991   5.160  1.8166 -0.9942  0.6000
 4260TIP3   OH234270   1.611   0.151  16.948  0.2375  0.5558  0.4382
 4260TIP3    H134271   1.575   0.216  17.009 -0.6825  0.8567 -0.3946
 4260TIP3    H234272   1.675   0.200  16.897  0.3468  0.5319  0.5524
 4261TIP3   OH234273   5.259   5.851  16.018 -0.1835 -0.8518 -0.0019
 4261TIP3    H134274   5.208   5.918  15.973 -1.1440 -1.5976 -0.0457
 4261TIP3    H234275   5.200   5.817  16.085  0.8799 -0.4567  1.1964
 4262TIP3   OH234276   4.229   1.422  16.314  0.4553  0.3411  0.3828
 4262TIP3    H134277   4.309   1.378  16.282  1.1185  3.2003 -2.4055
 4262TIP3    H234278   4.161   1.394  16.254  0.4195  1.3924 -0.0886
 4263TIP3   OH234279   5.793   5.526  15.426  0.1548 -0.0913 -0.2033
 4263TIP3    H134280   5.764   5.447  15.381 -1.5137 -0.2858  1.1074
 4263TIP3    H234281   5.738   5.596  15.391  1.0541  0.3661 -0.7521
 4264TIP3   OH234282   5.607   3.776  12.764  0.7464  0.2312 -0.3277
 4264TIP3    H134283   5.591   3.722  12.841  1.5999  1.6978  0.9408
 4264TIP3    H234284   5.634   3.715  12.696  2.5170 -0.8705  1.2867
 4265TIP3   OH234285   6.226   1.421  13.864 -0.0943 -0.1775  0.2550
 4265TIP3    H134286   6.180   1.434  13.782  1.1041  0.3010 -0.3692
 4265TIP3    H234287   6.308   1.379  13.840 -0.4845 -1.7028  1.4234
 4266TIP3   OH234288   1.016   6.239  16.082 -0.3444 -0.3386 -0.2001
 4266TIP3    H134289   1.091   6.209  16.134 -0.1183  1.0369  0.3116
 4266TIP3    H234290   0.942   6.186  16.113 -0.1993  0.3976  1.5119
 4267TIP3   OH234291   0.254   5.718  15.723 -0.4572 -0.1290 -0.2655
 4267TIP3    H134292   0.261   5.760  15.638  4.3358 -0.9898 -0.5989
 4267TIP3    H234293   0.259   5.624  15.704 -0.3630 -0.3813  0.8925
 4268TIP3   OH234294   1.904   2.095   0.277  0.0100  0.6615 -0.3562
 4268TIP3    H134295   1.856   2.028   0.325  1.1878  0.7494  0.9890
 4268TIP3    H234296   1.977   2.048   0.235  2.1635  1.3152  2.3887
 4269TIP3   OH234297   6.335   3.591   0.311  0.1376  0.2904  0.0374
 4269TIP3    H134298   6.302   3.670   0.267 -3.1905 -0.5813  0.6989
 4269TIP3    H234299   6.346   3.617   0.402 -0.0635  0.2339  0.0783
 4270TIP3   OH234300   2.534   1.173  11.136 -0.3204 -0.3314 -0.1223
 4270TIP3    H134301   2.617   1.131  11.159 -1.2712 -2.0004  0.3917
 4270TIP3    H234302   2.478   1.102  11.107 -1.9450  0.6073  0.5987
 4271TIP3   OH234303   6.807   2.679  15.030  0.2174  0.6549  0.4064
 4271TIP3    H134304   6.845   2.687  15.118 -1.1461  1.1606  0.9764
 4271TIP3    H234305   6.761   2.595  15.032  3.9891 -1.7436 -1.4190
 4272TIP3   OH234306   3.203   5.745  15.001  0.3730 -0.1789  0.1474
 4272TIP3    H134307   3.139   5.691  15.047  0.8274 -0.8183  0.0410
 4272TIP3    H234308   3.228   5.692  14.925  1.9693 -0.4930  0.8543
 4273TIP3   OH234309   3.227   1.525  16.961  0.6748  0.4927 -0.3632
 4273TIP3    H134310   3.298   1.544  17.022  0.5566 -1.0956  0.3171
 4273TIP3    H234311   3.167   1.599  16.970  0.7154  0.3487  1.3859
 4274TIP3   OH234312   1.690   0.863  15.203 -0.8305 -0.4904  0.2347
 4274TIP3    H134313   1.647   0.784  15.170  1.7065 -1.7296 -0.3256
 4274TIP3    H234314   1.628   0.899  15.267 -2.1019 -2.8982  0.4724
 4275TIP3   OH234315   0.190   0.340   1.809  0.6010  0.1989 -0.3029
 4275TIP3    H134316   0.192   0.433   1.789  0.5736  0.5551  1.2758
 4275TIP3    H234317   0.131   0.302   1.743  0.0219  1.4036 -0.4953
 4276TIP3   OH234318   5.575   2.889   0.689  0.0551  0.3403  0.1146
 4276TIP3    H134319   5.623   2.827   0.744  1.7626 -1.0866 -2.6932
 4276TIP3    H234320   5.566   2.967   0.742  2.1261 -0.6945  2.1794
 4277TIP3   OH234321   2.406   6.184  11.755  0.4614 -0.2480  0.1750
 4277TIP3    H134322   2.352   6.172  11.833  0.8636 -1.5084  0.2912
 4277TIP3    H234323   2.367   6.126  11.689 -0.1671  1.1580 -0.7489
 4278TIP3   OH234324   5.907   0.347  12.536 -0.1167  0.4879 -0.1862
 4278TIP3    H134325   5.818   0.369  12.509 -0.0359  0.5507 -0.4037
 4278TIP3    H234326   5.900   0.258  12.569 -0.3337  0.6303  0.1591
 4279TIP3   OH234327   1.693   5.868   3.350 -0.1990  0.1440  0.3229
 4279TIP3    H134328   1.688   5.960   3.323 -2.8946 -0.1502 -0.3884
 4279TIP3    H234329   1.676   5.819   3.270  0.4859 -0.9757  0.8493
 4280TIP3   OH234330   5.527   1.297  12.062  0.0532  0.4890 -0.1367
 4280TIP3    H134331   5.615   1.279  12.096 -0.1706  0.5096  0.4696
 4280TIP3    H234332   5.539   1.309  11.968  0.4375 -1.2565 -0.3418
 4281TIP3   OH234333   6.027   3.515   3.807  0.0951 -0.1780  0.2233
 4281TIP3    H134334   5.957   3.452   3.822 -0.4798  0.6425  1.1542
 4281TIP3    H234335   6.103   3.478   3.852 -0.2762 -0.1528  0.8868
 4282TIP3   OH234336   4.467   1.716  13.252 -0.2707 -0.4217 -0.2564
 4282TIP3    H134337   4.473   1.738  13.159 -2.1884  0.9385 -0.1122
 4282TIP3    H234338   4.545   1.662  13.269 -0.0746 -1.0348 -2.7150
 4283TIP3   OH234339   4.862   0.313   0.811  0.3314  0.2207 -0.2577
 4283TIP3    H134340   4.800   0.282   0.878 -1.1886  0.9713 -1.2455
 4283TIP3    H234341   4.909   0.235   0.784  0.9538 -0.1193  1.6266
 4284TIP3   OH234342   2.645   4.328   6.019 -0.2575  0.0286  0.0008
 4284TIP3    H134343   2.572   4.274   6.049  0.9212 -0.0429  3.1252
 4284TIP3    H234344   2.608   4.381   5.948 -2.6292 -1.7229 -0.1749
 4285TIP3   OH234345   1.432   3.871  16.892  0.3795  0.2988  0.7196
 4285TIP3    H134346   1.370   3.906  16.956 -1.5653  0.3261 -1.0507
 4285TIP3    H234347   1.397   3.899  16.807  1.1026 -2.3025 -0.5547
 4286TIP3   OH234348   6.836   4.640  16.768  0.2772  0.3127  0.2510
 4286TIP3    H134349   6.763   4.696  16.793 -0.1199  0.1663 -0.5561
 4286TIP3    H234350   6.796   4.568  16.720  0.8391 -0.3732  0.7848
 4287TIP3   OH234351   2.750   3.554  14.094 -0.5953 -0.0303  0.0761
 4287TIP3    H134352   2.778   3.480  14.148  0.7590  0.0779 -0.4483
 4287TIP3    H234353   2.823   3.570  14.035  0.0566  3.0770  1.5529
 4288TIP3   OH234354   3.380   6.766   5.126 -0.4661 -0.0883  0.0458
 4288TIP3    H134355   3.328   6.761   5.046  0.9589  0.0816 -0.9290
 4288TIP3    H234356   3.461   6.718   5.105  1.1990  2.4194  0.3544
 4289TIP3   OH234357   2.895   3.969   1.008 -0.1076  0.0468 -0.3719
 4289TIP3    H134358   2.885   3.982   0.914  1.0361 -1.3658 -0.7290
 4289TIP3    H234359   2.986   3.992   1.026 -0.5573  1.2191  0.5923
 4290TIP3   OH234360   4.103   3.770   2.334 -0.4025  0.1466 -0.1389
 4290TIP3    H134361   4.059   3.839   2.383  1.9620  1.0378  0.9052
 4290TIP3    H234362   4.115   3.699   2.398  1.3829  0.7275  0.2243
 4291TIP3   OH234363   0.945   5.082  14.706 -0.2324  0.0087  0.2980
 4291TIP3    H134364   1.009   5.044  14.767  1.6070  0.4213 -1.2563
 4291TIP3    H234365   0.885   5.010  14.687 -2.2549  0.4639  4.2026
 4292TIP3   OH234366   0.445   0.898  16.758  0.1828 -0.3115  0.1319
 4292TIP3    H134367   0.480   0.861  16.677 -0.1871  0.4545 -0.3856
 4292TIP3    H234368   0.373   0.839  16.782 -0.4990  0.1366 -0.7659
 4293TIP3   OH234369   0.654   3.093   4.804 -0.2688  0.2124  0.1894
 4293TIP3    H134370   0.594   3.166   4.822  0.7425  0.5772  2.4333
 4293TIP3    H234371   0.733   3.134   4.770  0.4059  0.2605  1.7151
 4294TIP3   OH234372   5.912   3.600  11.536 -0.2595  0.5174  0.0645
 4294TIP3    H134373   5.837   3.644  11.495 -1.6512 -1.4765  0.3069
 4294TIP3    H234374   5.886   3.508  11.540  2.1696 -0.2277  0.3181
 4295TIP3   OH234375   6.508   6.389  13.256 -0.2408 -0.5910 -0.0601
 4295TIP3    H134376   6.566   6.379  13.181 -1.0291 -2.1202 -0.5008
 4295TIP3    H234377   6.550   6.456  13.310  1.3368 -0.8556 -0.9123
 4296TIP3   OH234378   3.407   1.144   5.625  0.2849  0.9663  0.3717
 4296TIP3    H134379   3.402   1.076   5.692 -0.1089  0.4121 -0.1997
 4296TIP3    H234380   3.327   1.195   5.636 -0.4036  0.1031 -0.4598
 4297TIP3   OH234381   2.036   3.252   1.005  0.1136 -0.0643  0.0704
 4297TIP3    H134382   2.006   3.305   0.931 -0.7701 -0.1980  0.3219
 4297TIP3    H234383   2.130   3.242   0.991 -0.1336 -0.5953 -1.3647
 4298TIP3   OH234384   1.518   1.365  15.565  0.2550  0.4183  0.2235
 4298TIP3    H134385   1.564   1.419  15.630  1.0359  0.6719 -0.5126
 4298TIP3    H234386   1.576   1.290  15.551  0.1259  0.3965 -0.2118
 4299TIP3   OH234387   4.290   6.116  16.247 -0.2840 -0.0493  0.0939
 4299TIP3    H134388   4.250   6.038  16.209  0.0704  0.5252 -1.5361
 4299TIP3    H234389   4.232   6.188  16.221  2.5412  1.1037 -4.0228
 4300TIP3   OH234390   1.079   4.503   3.175  0.2234 -0.0719 -0.3657
 4300TIP3    H134391   1.156   4.541   3.217 -0.0592  2.9337 -2.2705
 4300TIP3    H234392   1.113   4.466   3.094  0.4362 -4.0101  1.3000
 4301TIP3   OH234393   4.896   4.860   5.745 -0.3719 -0.2597 -0.1568
 4301TIP3    H134394   4.869   4.947   5.774 -1.8708 -0.4831 -0.7648
 4301TIP3    H234395   4.941   4.875   5.662 -0.3126 -0.0368 -0.0849
 4302TIP3   OH234396   4.490   0.104  16.619 -0.5493  0.1421  0.1523
 4302TIP3    H134397   4.494   0.036  16.552 -0.3806 -1.5785  1.8210
 4302TIP3    H234398   4.564   0.086  16.676  0.5830  2.8504 -0.2879
 4303TIP3   OH234399   5.385   3.724  14.809  0.0764 -0.2113  0.0657
 4303TIP3    H134400   5.356   3.781  14.738  1.2961  0.0848 -0.2098
 4303TIP3    H234401   5.354   3.637  14.783 -1.5342  0.2362  0.3451
 4304TIP3   OH234402   5.029   4.932   2.971  0.0711  0.4779 -0.0102
 4304TIP3    H134403   4.976   4.926   2.891  1.6455 -1.8786 -1.0066
 4304TIP3    H234404   5.114   4.895   2.946  0.7305 -0.0251  2.6727
 4305TIP3   OH234405   0.803   3.809   0.501 -0.1425  0.3569  0.2529
 4305TIP3    H134406   0.828   3.761   0.423  0.4889 -0.6674  1.0588
 4305TIP3    H234407   0.708   3.819   0.494 -0.1163  0.1097 -0.5391
 4306TIP3   OH234408   2.079   0.429  11.653 -0.2003  0.3333 -0.0790
 4306TIP3    H134409   2.039   0.356  11.699 -0.1807  1.1484  1.2695
 4306TIP3    H234410   2.040   0.427  11.566 -2.3223  0.4115  0.8181
 4307TIP3   OH234411   4.935   2.149  14.801  0.0749  0.2506  0.3208
 4307TIP3    H134412   4.989   2.097  14.860  0.7489 -0.9960 -1.3171
 4307TIP3    H234413   4.998   2.203  14.752 -0.0513 -1.3941 -1.7814
 4308TIP3   OH234414   3.108   0.629  11.615  0.2222  0.2498 -0.3173
 4308TIP3    H134415   3.194   0.642  11.575  1.4729 -1.0516  1.7489
 4308TIP3    H234416   3.082   0.541  11.587  1.8446 -1.3621  2.7049
 4309TIP3   OH234417   6.787   3.996  15.284  0.1851  0.4190 -0.1183
 4309TIP3    H134418   6.796   4.073  15.228  0.9591 -0.1195 -0.7564
 4309TIP3    H234419   6.787   3.922  15.223 -0.6976 -0.0841  0.4733
 4310TIP3   OH234420   1.524   3.266  14.443  0.6165 -0.3578 -0.6236
 4310TIP3    H134421   1.604   3.314  14.463  0.5284  0.1629 -1.4706
 4310TIP3    H234422   1.454   3.320  14.479  0.6173 -0.6291 -0.2094
 4311TIP3   OH234423   1.665   3.536   3.191  0.2902  0.0863  0.0106
 4311TIP3    H134424   1.608   3.595   3.142 -0.4755  1.0119  1.9129
 4311TIP3    H234425   1.654   3.562   3.282  0.8305 -2.2510  0.8173
 4312TIP3   OH234426   4.728   3.610  14.823  0.5548  0.0547  0.2254
 4312TIP3    H134427   4.731   3.671  14.749 -0.6142 -1.7473 -1.4218
 4312TIP3    H234428   4.799   3.548  14.805 -0.5466 -1.1435 -0.1287
 4313TIP3   OH234429   0.640   2.895   2.930 -0.0681  0.0346 -0.7216
 4313TIP3    H134430   0.551   2.883   2.964  0.1418  1.5856  0.5092
 4313TIP3    H234431   0.697   2.850   2.992  0.2491  2.1869  0.6694
 4314TIP3   OH234432   1.152   6.364  15.812  0.4934  0.5804  0.3994
 4314TIP3    H134433   1.150   6.454  15.780  0.3205  0.1469 -0.8438
 4314TIP3    H234434   1.081   6.360  15.877 -0.4982  0.9532 -0.6332
 4315TIP3   OH234435   4.545   4.146  16.696  0.0935 -0.5032 -0.1312
 4315TIP3    H134436   4.549   4.094  16.777  1.1256  0.4196  0.4364
 4315TIP3    H234437   4.499   4.226  16.721 -0.9530 -0.8464 -0.8602
 4316TIP3   OH234438   6.204   4.905  16.601 -0.0169 -0.2435  0.2197
 4316TIP3    H134439   6.269   4.842  16.631  0.5520  0.1745 -0.1188
 4316TIP3    H234440   6.155   4.858  16.534 -0.4724 -0.7622  0.9009
 4317TIP3   OH234441   5.428   4.722  16.265 -0.1165 -0.6959  0.9318
 4317TIP3    H134442   5.458   4.693  16.351  3.2210 -2.8942 -0.7457
 4317TIP3    H234443   5.348   4.673  16.250 -0.1115 -1.1756  2.2994
 4318TIP3   OH234444   1.549   0.791  10.617 -0.1729  0.1393  0.1143
 4318TIP3    H134445   1.489   0.740  10.563 -0.2489 -0.1686  0.4802
 4318TIP3    H234446   1.550   0.878  10.577 -0.5306  0.0249 -0.1476
 4319TIP3   OH234447   5.722   1.379  14.389  0.1433  0.0142 -0.4664
 4319TIP3    H134448   5.810   1.382  14.352  0.9229 -1.4134  1.1255
 4319TIP3    H234449   5.734   1.405  14.480 -0.9755 -0.7591 -0.0811
 4320TIP3   OH234450   6.102   2.550  14.863  0.0892 -0.4951  0.0438
 4320TIP3    H134451   6.160   2.607  14.913  1.1750 -1.2352 -0.3261
 4320TIP3    H234452   6.035   2.608  14.828 -0.2234  0.1570  1.6560
 4321TIP3   OH234453   2.208   0.667   1.155  0.6216  0.3722  0.0171
 4321TIP3    H134454   2.253   0.621   1.084  0.3388  0.0398  0.0532
 4321TIP3    H234455   2.126   0.698   1.116  0.0947 -0.5024  0.4040
 4322TIP3   OH234456   2.605   0.214   3.728 -0.7922  0.2389 -0.8150
 4322TIP3    H134457   2.680   0.269   3.703 -0.6704 -0.0994 -1.1901
 4322TIP3    H234458   2.616   0.134   3.678 -1.0153 -0.1030 -0.3240
 4323TIP3   OH234459   6.728   1.015   0.697 -0.2427  0.0024 -0.4006
 4323TIP3    H134460   6.699   1.047   0.783 -1.7266 -0.9562 -0.5097
 4323TIP3    H234461   6.655   1.035   0.639  1.4174  2.1998 -1.8713
 4324TIP3   OH234462   1.645   6.686  13.266  0.2431  0.1266 -0.1898
 4324TIP3    H134463   1.617   6.774  13.294  0.8143  0.3443 -0.2931
 4324TIP3    H234464   1.648   6.691  13.171  0.3211  0.0130 -0.1929
 4325TIP3   OH234465   5.094   6.565  16.308 -0.0848  0.0071  0.0605
 4325TIP3    H134466   5.134   6.519  16.234 -1.1904  0.4571 -0.8356
 4325TIP3    H234467   5.001   6.567  16.288 -0.2293  1.3742  0.7890
 4326TIP3   OH234468   0.408   6.480  15.183 -0.2398 -0.6389 -0.2073
 4326TIP3    H134469   0.481   6.536  15.158  0.2889 -1.0167  0.4639
 4326TIP3    H234470   0.336   6.541  15.201  0.0977 -0.2246 -0.2515
 4327TIP3   OH234471   1.394   1.606   4.171  0.2087  0.2592  0.3776
 4327TIP3    H134472   1.477   1.626   4.214 -0.6664 -1.0981  2.9145
 4327TIP3    H234473   1.385   1.511   4.181 -0.9824  0.1893 -1.1497
 4328TIP3   OH234474   4.052   2.578  15.609  0.1736 -0.4455 -0.0658
 4328TIP3    H134475   4.087   2.659  15.645  1.4095  0.1471 -2.3903
 4328TIP3    H234476   4.013   2.604  15.525 -2.5527 -1.7337  0.6879
 4329TIP3   OH234477   1.397   1.729  12.519 -0.2044  0.5587  0.4198
 4329TIP3    H134478   1.403   1.753  12.611  0.7786 -0.7044  0.7075
 4329TIP3    H234479   1.415   1.635  12.517 -0.7991  0.4441 -0.9993
 4330TIP3   OH234480   3.766   6.777  11.707  0.0931 -0.1973  0.1090
 4330TIP3    H134481   3.749   6.800  11.616  2.3287 -0.1721 -0.3634
 4330TIP3    H234482   3.822   6.847  11.740 -1.1578  0.0929  1.7069
 4331TIP3   OH234483   4.436   6.824  16.966 -0.3683  0.2669  0.1999
 4331TIP3    H134484   4.350   6.855  16.938 -0.4024  0.9119  0.9743
 4331TIP3    H234485   4.423   6.731  16.983 -1.1530  0.5221  1.1394
 4332TIP3   OH234486   2.020   6.643  11.833  0.1654  0.3437  0.3163
 4332TIP3    H134487   2.028   6.575  11.766 -0.5809 -0.1762  0.7488
 4332TIP3    H234488   2.109   6.655  11.865  0.3406 -0.2689  0.0826
 4333TIP3   OH234489   5.069   4.991  10.403 -0.0339 -0.2622 -0.2034
 4333TIP3    H134490   4.999   4.931  10.379  1.2619 -1.3963 -1.3450
 4333TIP3    H234491   5.150   4.945  10.377  1.1536  0.8414  1.3503
 4334TIP3   OH234492   5.025   4.761   4.439  0.5169 -0.1405  0.7799
 4334TIP3    H134493   4.966   4.834   4.457 -0.1534 -0.3176 -0.6183
 4334TIP3    H234494   5.094   4.770   4.505 -1.2650 -0.1929  2.7504
 4335TIP3   OH234495   2.114   2.497   4.535 -0.3170  0.2992 -0.5414
 4335TIP3    H134496   2.183   2.473   4.472 -0.7881  1.6790 -1.6335
 4335TIP3    H234497   2.032   2.481   4.488 -0.7204  0.0960  0.2133
 4336TIP3   OH234498   1.175   4.765   2.473 -0.0007  0.2325 -0.2843
 4336TIP3    H134499   1.198   4.677   2.444  0.3045  0.3997 -0.5650
 4336TIP3    H234500   1.083   4.759   2.499 -0.0784 -0.0864 -0.6281
 4337TIP3   OH234501   0.816   2.925   5.240  0.4539 -0.7926 -0.7178
 4337TIP3    H134502   0.736   2.873   5.246  0.6203 -1.2307 -1.9810
 4337TIP3    H234503   0.790   3.001   5.187  1.2262 -1.7272 -2.5209
 4338TIP3   OH234504   2.989   1.070   0.534  0.0761 -0.1109 -0.2518
 4338TIP3    H134505   3.064   1.118   0.570 -0.1080 -0.4918  0.6627
 4338TIP3    H234506   3.022   1.032   0.453  1.6485 -2.2502  1.2712
 4339TIP3   OH234507   6.499   2.477   1.459 -0.0704  0.4780  0.1120
 4339TIP3    H134508   6.566   2.428   1.413  0.8430 -0.8758  2.6945
 4339TIP3    H234509   6.421   2.423   1.453  0.5903 -0.7385  1.8210
 4340TIP3   OH234510   2.506   1.693  15.921 -0.1443  0.1213 -0.0958
 4340TIP3    H134511   2.560   1.758  15.876 -0.7111  0.6087 -0.0883
 4340TIP3    H234512   2.424   1.692  15.872  0.0647 -1.0219 -0.4441
 4341TIP3   OH234513   6.039   1.420   4.709  0.2077 -0.1633  0.5630
 4341TIP3    H134514   5.947   1.442   4.721 -0.2182  0.0585 -2.3667
 4341TIP3    H234515   6.086   1.498   4.738 -0.7567  1.0364 -0.9895
 4342TIP3   OH234516   4.100   6.065   0.083 -0.6235  0.7034 -0.1582
 4342TIP3    H134517   4.106   6.151   0.042 -2.0544  0.4000 -1.0692
 4342TIP3    H234518   4.015   6.031   0.055 -0.3480 -0.7549  0.6837
 4343TIP3   OH234519   5.947   4.498  13.599  0.2332  0.1024  0.0747
 4343TIP3    H134520   6.017   4.510  13.664  0.5374 -1.0218 -0.0265
 4343TIP3    H234521   5.939   4.403  13.590  0.5702  0.2354 -1.9338
 4344TIP3   OH234522   5.998   3.957   3.114 -0.3260 -0.3203  0.0476
 4344TIP3    H134523   6.030   3.881   3.164  1.2879  1.3633  1.7350
 4344TIP3    H234524   5.987   4.025   3.180 -0.7395  1.2322 -1.5685
 4345TIP3   OH234525   0.114   4.963   3.452 -0.9228 -0.4113  0.2994
 4345TIP3    H134526   0.193   4.986   3.502 -1.0233  2.0611 -0.5282
 4345TIP3    H234527   0.147   4.938   3.365 -1.0186  0.4884 -0.0041
 4346TIP3   OH234528   3.150   4.821  17.095  0.6502 -0.2323  0.3904
 4346TIP3    H134529   3.086   4.820  17.167  2.2682  1.6117  1.9688
 4346TIP3    H234530   3.192   4.906  17.102  2.1339 -0.7435 -1.6468
 4347TIP3   OH234531   5.253   6.385  13.653 -0.4836  0.2924 -0.3659
 4347TIP3    H134532   5.209   6.307  13.620 -1.5536  0.9576 -0.5527
 4347TIP3    H234533   5.184   6.437  13.693  0.5588  0.2054  1.6396
 4348TIP3   OH234534   1.956   1.216  13.946 -0.2889  0.7736 -0.0942
 4348TIP3    H134535   1.930   1.254  13.862  0.4950 -0.5105 -0.9645
 4348TIP3    H234536   2.020   1.148  13.922 -0.5656 -0.0874  1.4967
 4349TIP3   OH234537   4.560   2.881   0.172 -0.6153  1.1696  0.3956
 4349TIP3    H134538   4.620   2.926   0.112 -1.0044  1.9470  0.5832
 4349TIP3    H234539   4.498   2.948   0.200 -1.9372  0.2728 -0.2335
 4350TIP3   OH234540   6.195   4.807  11.602 -0.5757 -0.7075  0.0351
 4350TIP3    H134541   6.170   4.847  11.519  1.6848 -1.2709 -0.9990
 4350TIP3    H234542   6.117   4.812  11.656 -1.4571  1.6917 -1.3401
 4351TIP3   OH234543   6.241   4.959  12.967  0.0373  0.0754 -0.2307
 4351TIP3    H134544   6.184   5.013  13.021 -0.9974 -1.5874  0.4191
 4351TIP3    H234545   6.292   5.022  12.916 -0.5248  1.6572  1.0614
 4352TIP3   OH234546   6.664   3.117  12.090 -0.6566  0.4046 -0.2849
 4352TIP3    H134547   6.592   3.178  12.077  0.2521  1.2783 -1.3612
 4352TIP3    H234548   6.743   3.170  12.081  0.1464 -0.7095 -0.0759
 4353TIP3   OH234549   2.221   2.824  14.412 -0.6697 -0.1275 -0.7616
 4353TIP3    H134550   2.229   2.770  14.491 -0.3647 -0.9646 -1.3621
 4353TIP3    H234551   2.182   2.766  14.347  0.6899  0.0272 -1.7513
 4354TIP3   OH234552   1.216   2.120  12.536 -0.5006 -0.0752  0.0803
 4354TIP3    H134553   1.281   2.170  12.487 -0.7908 -0.0889 -0.3257
 4354TIP3    H234554   1.211   2.036  12.490 -0.8487 -0.0504  0.0682
 4355TIP3   OH234555   4.212   5.829   3.150 -0.1352 -0.6908  0.4028
 4355TIP3    H134556   4.125   5.845   3.114  0.3955  1.2562 -0.1574
 4355TIP3    H234557   4.271   5.842   3.076  0.6789 -1.4548  0.9017
 4356TIP3   OH234558   5.588   1.989  14.103 -0.7176  0.4590 -0.1469
 4356TIP3    H134559   5.587   1.910  14.156  1.2789  0.4075 -0.1011
 4356TIP3    H234560   5.567   1.959  14.014  0.8696 -0.3234 -0.2974
 4357TIP3   OH234561   5.634   1.217  14.050 -0.3309  0.0591 -0.6731
 4357TIP3    H134562   5.704   1.213  13.985 -0.3970  0.4439 -0.7716
 4357TIP3    H234563   5.584   1.136  14.037  0.0318 -0.1671 -0.6713
 4358TIP3   OH234564   2.845   0.820   5.158  0.2251  0.0265  0.5568
 4358TIP3    H134565   2.753   0.848   5.158 -0.5451 -2.1996 -1.5409
 4358TIP3    H234566   2.844   0.734   5.201  1.0715 -0.6541 -0.7214
 4359TIP3   OH234567   5.037   5.789   1.477  0.4356  0.1004  0.4758
 4359TIP3    H134568   4.984   5.841   1.416 -0.7117 -0.2054  1.1763
 4359TIP3    H234569   5.032   5.836   1.560 -0.9156 -1.2414  1.2177
 4360TIP3   OH234570   4.482   6.003   0.480 -0.5400  0.3519 -0.9654
 4360TIP3    H134571   4.405   5.967   0.437 -2.0239 -0.6420  2.2331
 4360TIP3    H234572   4.447   6.062   0.547  1.3120 -1.0630  1.4241
 4361TIP3   OH234573   3.038   5.126   4.643  0.1622 -0.8177 -0.4456
 4361TIP3    H134574   2.973   5.168   4.587  1.9969 -0.5954 -2.5534
 4361TIP3    H234575   3.045   5.037   4.608  1.1277 -0.7641 -0.4246
 4362TIP3   OH234576   5.890   4.643  12.031 -0.1878 -0.2422 -0.5193
 4362TIP3    H134577   5.898   4.625  12.125  1.5693 -1.2738 -0.8146
 4362TIP3    H234578   5.808   4.692  12.023 -0.1938  0.2044  1.5850
 4363TIP3   OH234579   5.599   4.612   0.395  0.2923 -0.2705  0.3131
 4363TIP3    H134580   5.510   4.577   0.395  0.2334 -0.1573 -0.9869
 4363TIP3    H234581   5.640   4.571   0.471 -0.5183 -1.2466  0.2538
 4364TIP3   OH234582   0.590   3.714   3.210  0.1770  0.0248 -0.4648
 4364TIP3    H134583   0.567   3.752   3.125 -0.0192 -0.3875 -0.5991
 4364TIP3    H234584   0.621   3.788   3.262 -0.0786  0.3466 -0.7656
 4365TIP3   OH234585   2.895   2.326   1.432 -0.1938 -0.1762 -0.3562
 4365TIP3    H134586   2.984   2.361   1.438  0.2889 -1.5382  2.0037
 4365TIP3    H234587   2.905   2.241   1.389 -0.1692 -0.7004  0.6373
 4366TIP3   OH234588   3.884   3.404   2.055  0.0037  0.4146  0.2361
 4366TIP3    H134589   3.805   3.457   2.043 -0.9852 -1.2543 -1.2972
 4366TIP3    H234590   3.859   3.340   2.122  0.1168  0.0572 -0.0550
 4367TIP3   OH234591   5.163   1.679  10.598  0.0427  0.0223 -0.0788
 4367TIP3    H134592   5.102   1.720  10.660 -0.8145 -0.2445 -0.7260
 4367TIP3    H234593   5.144   1.586  10.603  2.0777 -0.3716  1.4809
 4368TIP3   OH234594   2.473   0.034  15.440 -0.1047  0.0056 -0.1988
 4368TIP3    H134595   2.501   0.052  15.350  1.5184 -2.9932 -0.4392
 4368TIP3    H234596   2.420   0.110  15.464  2.6006  2.8267 -2.2561
 4369TIP3   OH234597   0.533   2.331   0.913 -0.0436  0.2685  0.7374
 4369TIP3    H134598   0.469   2.259   0.910 -1.2884  1.3506  0.1728
 4369TIP3    H234599   0.602   2.299   0.970 -0.2824 -1.6011  0.0485
 4370TIP3   OH234600   4.857   1.648  13.143 -0.2503 -0.1310  0.4311
 4370TIP3    H134601   4.823   1.613  13.225  0.8974 -1.4506  0.3913
 4370TIP3    H234602   4.898   1.731  13.167  0.9429 -0.9645  1.4143
 4371TIP3   OH234603   4.665   2.017  12.680 -0.9345  0.2078 -0.1032
 4371TIP3    H134604   4.701   1.932  12.707  0.3548  0.4129 -1.1356
 4371TIP3    H234605   4.612   1.997  12.603 -0.4613  0.3701 -0.4707
 4372TIP3   OH234606   4.204   5.868  15.579  0.1086  0.1368  0.3074
 4372TIP3    H134607   4.234   5.950  15.618 -0.7217  0.3347  0.5599
 4372TIP3    H234608   4.219   5.802  15.646  2.0062 -0.1779 -0.3744
 4373TIP3   OH234609   0.948   3.991  16.648  0.0669 -0.2757  0.5803
 4373TIP3    H134610   0.989   4.068  16.608  1.3098 -1.3413 -0.2698
 4373TIP3    H234611   0.938   4.015  16.740  2.0305  0.3045  0.6931
 4374TIP3   OH234612   1.254   3.252  16.441 -0.1744  0.2419 -0.2544
 4374TIP3    H134613   1.234   3.345  16.427  0.1361  0.0789 -2.0173
 4374TIP3    H234614   1.201   3.227  16.517 -0.7311  1.6943 -0.1317
 4375TIP3   OH234615   5.564   2.743  12.891 -0.1008 -0.1684 -0.2301
 4375TIP3    H134616   5.579   2.812  12.826 -0.9626 -0.9880 -1.3415
 4375TIP3    H234617   5.538   2.790  12.970  0.1159  0.8166 -0.7194
 4376TIP3   OH234618   0.122   3.169   1.671  0.1123  0.0179 -0.4691
 4376TIP3    H134619   0.185   3.110   1.630 -1.3034 -1.7786 -0.1818
 4376TIP3    H234620   0.164   3.197   1.752  0.6876 -0.8453 -0.4611
 4377TIP3   OH234621   3.797   5.758   0.469  0.2784 -0.1294 -0.0954
 4377TIP3    H134622   3.718   5.787   0.422  0.4002 -0.3383 -0.4240
 4377TIP3    H234623   3.855   5.724   0.401  1.4835  1.8438 -0.1293
 4378TIP3   OH234624   1.459   3.199   1.723  0.0656  0.2020  0.8597
 4378TIP3    H134625   1.451   3.170   1.814 -0.2169  0.7342  1.0105
 4378TIP3    H234626   1.473   3.294   1.730  1.1356  0.0824  0.3825
 4379TIP3   OH234627   0.456   0.653  10.597 -0.0173  0.5270  0.8690
 4379TIP3    H134628   0.457   0.749  10.599  1.1836  0.5553 -0.2052
 4379TIP3    H234629   0.546   0.628  10.581  0.5381 -0.9591  5.0486
 4380TIP3   OH234630   2.298   4.543   4.470 -0.8156  0.2412  0.0363
 4380TIP3    H134631   2.360   4.471   4.455 -0.2340  0.9389 -1.0799
 4380TIP3    H234632   2.249   4.517   4.548  0.7968 -0.3907  0.8848
 4381TIP3   OH234633   0.203   4.987   0.456  0.1645  0.1335 -0.1749
 4381TIP3    H134634   0.260   5.057   0.423  0.9943 -1.2186 -1.7758
 4381TIP3    H234635   0.162   4.950   0.378 -0.0683 -1.2928  0.5803
 4382TIP3   OH234636   1.339   1.269  14.414 -0.5516 -0.3563 -0.1707
 4382TIP3    H134637   1.301   1.350  14.379 -1.4755  0.1534  1.8480
 4382TIP3    H234638   1.268   1.229  14.465 -0.5246 -3.1552 -2.1145
 4383TIP3   OH234639   3.821   4.721  14.837 -0.0759  0.1145  0.0314
 4383TIP3    H134640   3.813   4.628  14.858 -0.1302  0.2883  0.8302
 4383TIP3    H234641   3.739   4.743  14.793  0.0713 -0.2854 -0.4490
 4384TIP3   OH234642   3.163   0.371  14.930 -0.1224 -0.0902 -0.4053
 4384TIP3    H134643   3.255   0.389  14.911 -0.2557 -0.6562 -1.6530
 4384TIP3    H234644   3.122   0.359  14.845 -1.3829  0.2367  0.1290
 4385TIP3   OH234645   6.195   0.150   2.784  0.3270 -0.0020  0.2737
 4385TIP3    H134646   6.197   0.073   2.840 -0.1039 -0.0693  0.1962
 4385TIP3    H234647   6.133   0.210   2.826 -0.2148 -0.1677 -0.2745
 4386TIP3   OH234648   2.023   3.941  10.774  0.3288 -0.5154 -0.5895
 4386TIP3    H134649   2.034   3.871  10.709  1.6597 -1.0079  0.1200
 4386TIP3    H234650   2.112   3.957  10.807  0.2812  2.3738 -1.5856
 4387TIP3   OH234651   2.105   3.633  12.889 -0.1508  0.6181  0.0081
 4387TIP3    H134652   2.076   3.543  12.899 -0.5547  0.8114  0.6266
 4387TIP3    H234653   2.067   3.680  12.964 -0.3857  1.4071 -0.5878
 4388TIP3   OH234654   4.591   0.510   3.372  0.0704  0.1769  0.0815
 4388TIP3    H134655   4.576   0.566   3.295  0.4168  1.2481  0.7637
 4388TIP3    H234656   4.508   0.509   3.418 -0.8666 -2.3589 -1.4287
 4389TIP3   OH234657   6.743   1.921   3.418  0.6072 -0.1547  0.2661
 4389TIP3    H134658   6.657   1.963   3.417  1.7999  2.4659  0.1453
 4389TIP3    H234659   6.735   1.849   3.355 -0.8221  1.4945 -1.5608
 4390TIP3   OH234660   1.439   5.833   1.251 -0.2051 -0.3947 -0.7138
 4390TIP3    H134661   1.451   5.898   1.181 -1.5259 -1.0327 -1.5629
 4390TIP3    H234662   1.356   5.791   1.231 -1.1604  0.1114  1.8315
 4391TIP3   OH234663   5.978   0.784   1.322 -0.0555 -0.4895  0.4605
 4391TIP3    H134664   6.034   0.752   1.393  0.9974  1.0418  0.3629
 4391TIP3    H234665   6.038   0.803   1.250 -0.8343  0.1090 -0.0467
 4392TIP3   OH234666   3.399   5.244  11.978 -0.5550  0.4259  0.8093
 4392TIP3    H134667   3.364   5.292  11.903 -0.9918 -1.1170 -0.0083
 4392TIP3    H234668   3.340   5.267  12.050 -0.5179  1.4151  0.5381
 4393TIP3   OH234669   3.146   5.049  11.222 -0.1566 -0.1996  0.3148
 4393TIP3    H134670   3.055   5.068  11.241 -0.1913  1.1015 -0.9432
 4393TIP3    H234671   3.169   5.109  11.151  1.0860 -1.9229 -0.8419
 4394TIP3   OH234672   1.421   2.732   3.997 -0.4420 -0.1999  0.9055
 4394TIP3    H134673   1.400   2.707   3.907 -2.6478  1.5275  0.8652
 4394TIP3    H234674   1.506   2.776   3.990  2.0174 -4.3949  0.5483
 4395TIP3   OH234675   3.373   4.437   2.996 -0.3043 -0.0809 -0.4940
 4395TIP3    H134676   3.435   4.364   2.990 -2.4676 -1.9030 -2.6249
 4395TIP3    H234677   3.418   4.510   2.953  0.6917 -1.1248 -1.2984
 4396TIP3   OH234678   5.496   4.110  15.747 -0.3514 -0.2747  0.1465
 4396TIP3    H134679   5.409   4.112  15.787  0.7409 -1.6175  2.8588
 4396TIP3    H234680   5.555   4.091  15.820  2.1149 -0.4474 -1.7797
 4397TIP3   OH234681   3.465   1.401   2.256  0.0692 -0.5112  0.1301
 4397TIP3    H134682   3.516   1.481   2.242 -0.1120 -0.4635 -0.2481
 4397TIP3    H234683   3.524   1.331   2.229  1.6957 -0.8476  3.9016
 4398TIP3   OH234684   6.747   6.726   1.092  0.0443 -0.0219  0.2374
 4398TIP3    H134685   6.703   6.788   1.034 -2.2817 -1.8183 -0.1045
 4398TIP3    H234686   6.699   6.733   1.175  1.4388  0.4240  1.0493
 4399TIP3   OH234687   3.069   3.294  12.063  0.2243 -0.0532 -0.2799
 4399TIP3    H134688   3.126   3.225  12.097  0.6188  0.5196  0.2479
 4399TIP3    H234689   3.128   3.361  12.030 -0.1528  0.1115 -0.6379
 4400TIP3   OH234690   3.873   6.703  15.151 -0.1743  0.0034 -0.1876
 4400TIP3    H134691   3.885   6.609  15.143  2.2206  0.2180  0.1481
 4400TIP3    H234692   3.931   6.740  15.085 -1.4786  1.2739 -0.6824
 4401TIP3   OH234693   1.256   0.438  13.073 -0.4213  0.5754  1.2581
 4401TIP3    H134694   1.208   0.415  12.993  4.1380 -3.1955 -0.9223
 4401TIP3    H234695   1.303   0.518  13.050  0.4248 -0.1716  0.3112
 4402TIP3   OH234696   5.632   2.507   4.491 -0.1898  0.1689 -0.4388
 4402TIP3    H134697   5.566   2.452   4.449  0.6672 -0.2758 -1.2574
 4402TIP3    H234698   5.704   2.511   4.427 -0.4368  2.7280 -0.6959
 4403TIP3   OH234699   1.481   5.909  12.486  0.4264 -0.0961 -0.1367
 4403TIP3    H134700   1.510   5.987  12.535 -0.6537  0.5523 -0.5051
 4403TIP3    H234701   1.425   5.862  12.547 -0.3657  0.3543 -0.5117
 4404TIP3   OH234702   0.269   1.828   4.659 -0.4560  0.1952  0.0963
 4404TIP3    H134703   0.348   1.850   4.708 -1.0571 -0.1046  1.2342
 4404TIP3    H234704   0.299   1.771   4.589  0.4383  0.7081  0.0398
 4405TIP3   OH234705   4.792   0.231   3.708 -0.3186 -0.3328 -0.3827
 4405TIP3    H134706   4.879   0.228   3.668  0.3183  2.1649  0.6736
 4405TIP3    H234707   4.732   0.236   3.633  0.6366  0.7365 -1.1166
 4406TIP3   OH234708   3.888   3.534  16.669 -0.4066 -0.3591 -0.3357
 4406TIP3    H134709   3.825   3.591  16.714  1.5047  0.0455  2.0555
 4406TIP3    H234710   3.865   3.541  16.577 -2.2624  1.7410  0.1926
 4407TIP3   OH234711   5.932   0.922   5.292  0.6573  0.0178  0.4465
 4407TIP3    H134712   6.021   0.928   5.258  0.4102  1.3404 -0.0201
 4407TIP3    H234713   5.929   0.988   5.362  0.0068  0.0685  0.3736
 4408TIP3   OH234714   0.070   4.868   1.394  0.1030 -0.6539  0.1250
 4408TIP3    H134715   0.140   4.824   1.441  0.6170  1.0239  1.0229
 4408TIP3    H234716   0.045   4.806   1.325  1.1102 -2.0943  0.9883
 4409TIP3   OH234717   4.823   0.278   0.258 -0.1429  0.3972  0.2486
 4409TIP3    H134718   4.826   0.305   0.349 -1.4405 -0.5339  0.5918
 4409TIP3    H234719   4.768   0.343   0.215 -0.1370  0.4191  0.2743
 4410TIP3   OH234720   4.420   4.546   4.379 -0.1679 -0.2188 -0.0289
 4410TIP3    H134721   4.492   4.589   4.425 -0.0450  0.0498 -0.4586
 4410TIP3    H234722   4.463   4.479   4.325 -0.0739  0.8614 -1.3520
 4411TIP3   OH234723   5.694   1.110  16.240 -0.0799 -0.2369 -0.6648
 4411TIP3    H134724   5.630   1.148  16.179  0.3311  0.1688 -0.8500
 4411TIP3    H234725   5.697   1.018  16.217  0.0008 -0.1047 -1.1969
 4412TIP3   OH234726   0.586   6.630  15.020 -0.1401  0.4248 -0.4413
 4412TIP3    H134727   0.616   6.713  14.984  2.3281 -0.6604 -1.1137
 4412TIP3    H234728   0.582   6.571  14.945  1.2755 -0.8669  0.4294
 4413TIP3   OH234729   5.275   2.965  17.055 -0.3103  0.7757 -0.3905
 4413TIP3    H134730   5.198   3.016  17.031 -0.0575  1.8147  0.8799
 4413TIP3    H234731   5.335   2.974  16.981 -1.0324  0.7407 -0.9833
 4414TIP3   OH234732   5.135   6.511  15.041 -0.3186 -0.0655 -0.3419
 4414TIP3    H134733   5.162   6.498  15.132 -0.5699  0.6246 -0.1635
 4414TIP3    H234734   5.057   6.456  15.031  1.3261 -2.4159 -0.9824
 4415TIP3   OH234735   0.950   3.626   0.370 -0.3950 -0.3395 -0.1410
 4415TIP3    H134736   0.883   3.581   0.422 -1.6335  1.2216 -0.3245
 4415TIP3    H234737   0.943   3.586   0.283 -2.4847  1.0751 -0.7028
 4416TIP3   OH234738   6.731   1.198   1.168  0.0751  0.0553  0.2385
 4416TIP3    H134739   6.799   1.259   1.139  1.1101 -0.5668  1.2794
 4416TIP3    H234740   6.691   1.241   1.244  0.3508 -0.2677  0.5661
 4417TIP3   OH234741   3.646   1.285  17.081 -0.0251 -0.3287 -0.3408
 4417TIP3    H134742   3.568   1.278  17.136  0.4162 -0.1075  0.3326
 4417TIP3    H234743   3.718   1.255  17.138  0.4206 -0.2293 -0.8429
 4418TIP3   OH234744   5.658   6.011  14.085 -0.1162 -0.0505 -0.0586
 4418TIP3    H134745   5.625   6.100  14.089 -1.2122 -0.4638  2.8235
 4418TIP3    H234746   5.721   6.006  14.157 -0.1729 -1.6190 -0.0847
 4419TIP3   OH234747   0.305   5.894  11.806 -0.2578 -0.1257 -0.0600
 4419TIP3    H134748   0.276   5.828  11.869  0.0886 -0.2881 -0.0674
 4419TIP3    H234749   0.301   5.976  11.855 -0.1807 -0.2236  0.1141
 4420TIP3   OH234750   3.226   0.090   0.202 -0.8497  0.9014 -0.2372
 4420TIP3    H134751   3.158   0.027   0.224 -0.4497  0.2242 -0.9064
 4420TIP3    H234752   3.308   0.047   0.226 -0.5847  1.2273 -0.5331
 4421TIP3   OH234753   5.338   0.876   2.856 -0.7582  0.1618  0.0976
 4421TIP3    H134754   5.421   0.828   2.855 -0.8859 -0.0659 -0.9292
 4421TIP3    H234755   5.279   0.823   2.803 -1.3752  0.6498  0.2834
 4422TIP3   OH234756   6.630   6.685  13.229  0.1170 -0.0729 -0.0652
 4422TIP3    H134757   6.563   6.730  13.178  0.9765 -0.3323 -1.4577
 4422TIP3    H234758   6.667   6.621  13.169 -0.2232 -1.8280  1.4871
 4423TIP3   OH234759   2.292   6.551  13.468  0.2759  0.6524  0.3464
 4423TIP3    H134760   2.215   6.568  13.414 -0.1784 -0.7735  0.4910
 4423TIP3    H234761   2.268   6.584  13.555 -0.2099  0.1733  0.4038
 4424TIP3   OH234762   2.619   0.987   1.555 -0.6441 -0.0245  0.1616
 4424TIP3    H134763   2.533   1.001   1.515 -0.6914 -0.4666  0.1038
 4424TIP3    H234764   2.682   1.005   1.485 -0.6703  0.7212  0.3217
 4425TIP3   OH234765   3.430   2.593  12.130  0.5068 -0.4362 -0.7326
 4425TIP3    H134766   3.465   2.637  12.207 -0.0162 -1.0235 -0.1413
 4425TIP3    H234767   3.487   2.517  12.117  0.1075 -0.7950 -0.4183
 4426TIP3   OH234768   5.568   4.922   5.873  0.0997  0.0257  0.0068
 4426TIP3    H134769   5.623   4.956   5.802  0.2212  0.5011  0.3224
 4426TIP3    H234770   5.584   4.828   5.872 -0.5257 -0.0816 -1.1179
 4427TIP3   OH234771   3.659   3.782  12.660 -0.2320 -0.7079 -0.1742
 4427TIP3    H134772   3.653   3.689  12.680 -1.7098 -0.6219 -0.1296
 4427TIP3    H234773   3.706   3.786  12.577  1.1778 -1.3874  0.5611
 4428TIP3   OH234774   1.728   1.526  10.350 -0.0226  0.0658 -0.1338
 4428TIP3    H134775   1.807   1.474  10.336  0.3687  1.1436 -2.2348
 4428TIP3    H234776   1.757   1.597  10.408 -0.4334 -1.6055  2.2892
 4429TIP3   OH234777   0.199   2.421  16.535 -0.1029 -0.2409  0.2215
 4429TIP3    H134778   0.279   2.372  16.517  1.7572  2.2778  1.1005
 4429TIP3    H234779   0.199   2.433  16.630 -0.7198  1.0488  0.0833
 4430TIP3   OH234780   0.060   2.814   2.290 -0.4931 -0.6580  0.1829
 4430TIP3    H134781   0.147   2.773   2.281 -0.1475  0.1345 -0.1846
 4430TIP3    H234782   0.057   2.844   2.380 -1.1194 -2.2776  0.7444
 4431TIP3   OH234783   1.511   6.831   5.381 -0.0012 -0.1966  0.4510
 4431TIP3    H134784   1.597   6.834   5.423  1.7877  0.0293 -2.8447
 4431TIP3    H234785   1.493   6.737   5.372  0.8644 -0.2873 -0.5176
 4432TIP3   OH234786   0.806   5.644  13.067 -0.4415 -0.3083  0.3772
 4432TIP3    H134787   0.811   5.706  13.139  0.4537 -0.1877  0.2157
 4432TIP3    H234788   0.813   5.699  12.988  0.2690 -0.6085  0.2323
 4433TIP3   OH234789   2.362   0.758  16.169 -0.3476 -0.0438 -0.5751
 4433TIP3    H134790   2.448   0.728  16.197 -0.0278  1.8068  0.6222
 4433TIP3    H234791   2.302   0.719  16.233  0.0613  1.7195  0.9653
 4434TIP3   OH234792   0.701   6.402  13.995  0.3655  0.4212 -0.3658
 4434TIP3    H134793   0.700   6.314  13.958  1.7478  0.9481 -1.7574
 4434TIP3    H234794   0.777   6.444  13.954  0.5256  1.8317  1.2854
 4435TIP3   OH234795   6.382   3.905   1.611  0.1311  0.1050 -0.3777
 4435TIP3    H134796   6.369   4.000   1.615  1.0215  0.3963 -2.6893
 4435TIP3    H234797   6.444   3.886   1.682 -1.7904  0.8105  1.6198
 4436TIP3   OH234798   0.895   3.896  11.714 -0.1690  0.2879  0.0635
 4436TIP3    H134799   0.807   3.925  11.692  0.2366  1.3789 -0.1538
 4436TIP3    H234800   0.888   3.861  11.803 -0.9989 -0.5038 -0.2914
 4437TIP3   OH234801   5.761   2.879   2.636 -0.2212  0.0460 -0.2057
 4437TIP3    H134802   5.802   2.943   2.695 -0.8908 -1.0989  1.5715
 4437TIP3    H234803   5.679   2.920   2.609 -1.0314 -0.3241  1.5564
 4438TIP3   OH234804   0.324   4.141  15.294  0.4998 -0.7519 -0.0631
 4438TIP3    H134805   0.403   4.145  15.348  0.1378  1.1828  0.3955
 4438TIP3    H234806   0.259   4.192  15.343  0.2153  1.2832 -2.3562
 4439TIP3   OH234807   0.296   1.991  11.995 -0.2051  0.2891 -0.3728
 4439TIP3    H134808   0.221   2.045  12.020 -0.1545  0.3860 -0.4331
 4439TIP3    H234809   0.351   2.048  11.941  0.1781  0.3849  0.1093
 4440TIP3   OH234810   4.134   1.746   0.949  0.1150  0.4660 -0.0952
 4440TIP3    H134811   4.147   1.673   0.887  2.1964 -0.6064  1.4776
 4440TIP3    H234812   4.161   1.824   0.901  0.4646 -0.1671 -0.9472
 4441TIP3   OH234813   4.878   0.821   1.794  0.2191  0.0111  0.2498
 4441TIP3    H134814   4.973   0.823   1.783  0.2376  2.0734  0.4487
 4441TIP3    H234815   4.853   0.913   1.804 -1.5695 -0.6064  2.1299
 4442TIP3   OH234816   6.838   5.988  15.530  0.9186  0.3530  0.1081
 4442TIP3    H134817   6.833   6.008  15.624  1.9536  0.2248  0.2010
 4442TIP3    H234818   6.932   5.976  15.513  0.8687  1.5440 -1.1887
 4443TIP3   OH234819   2.175   0.721   2.286 -0.0516  0.9797 -0.2603
 4443TIP3    H134820   2.184   0.626   2.283 -0.3837  0.9329  0.2733
 4443TIP3    H234821   2.083   0.737   2.266 -0.4095  1.0941  1.3654
 4444TIP3   OH234822   5.768   1.471   6.056  0.1508  0.5028 -0.3488
 4444TIP3    H134823   5.795   1.410   6.125  0.5342  2.4636  1.3386
 4444TIP3    H234824   5.683   1.503   6.086  0.3409  1.3999 -0.7605
 4445TIP3   OH234825   3.230   6.021  12.698  0.0409  0.5596  0.2242
 4445TIP3    H134826   3.259   6.039  12.609 -0.9613 -0.0263 -0.2418
 4445TIP3    H234827   3.139   6.052  12.700  0.0854  0.6443  1.0626
 4446TIP3   OH234828   6.525   3.858   6.047 -0.0842 -0.1470  0.0869
 4446TIP3    H134829   6.511   3.953   6.047  1.3995  0.1294 -1.4348
 4446TIP3    H234830   6.607   3.846   6.095 -0.3173 -0.6648  0.3552
 4447TIP3   OH234831   6.394   6.782   0.060 -0.1194  0.9958 -0.3762
 4447TIP3    H134832   6.391   6.690   0.086  1.3007  1.2207  0.6907
 4447TIP3    H234833   6.314   6.819   0.097  0.0562  0.5092  0.5212
 4448TIP3   OH234834   2.013   4.064   2.809  0.0761  0.5250 -0.3078
 4448TIP3    H134835   2.027   4.073   2.715  1.1916 -2.5986 -0.5718
 4448TIP3    H234836   1.930   4.017   2.816  0.6326 -0.4291  0.1400
 4449TIP3   OH234837   0.163   4.443  13.349  0.1668  0.3780 -0.2119
 4449TIP3    H134838   0.089   4.455  13.290 -1.6004 -1.1462  1.5352
 4449TIP3    H234839   0.226   4.392  13.299 -0.4471  0.7160 -1.3662
 4450TIP3   OH234840   0.990   6.227   3.901  0.2684  0.4225 -0.6301
 4450TIP3    H134841   1.013   6.140   3.934  0.0102  0.3073 -0.7501
 4450TIP3    H234842   1.055   6.244   3.832 -0.5411 -0.2946 -1.5967
 4451TIP3   OH234843   6.452   0.010  14.076  0.5023 -0.5377 -0.0605
 4451TIP3    H134844   6.422   0.098  14.055  1.9602  0.3289  1.2664
 4451TIP3    H234845   6.394  -0.048  14.026 -0.6447  1.1460 -0.7686
 4452TIP3   OH234846   4.149   5.801  10.618  0.1426 -0.3684  0.0511
 4452TIP3    H134847   4.189   5.829  10.701  0.0038 -1.1502  0.3891
 4452TIP3    H234848   4.059   5.834  10.623  0.7672  1.6562 -0.8419
 4453TIP3   OH234849   1.125   3.150   0.923  0.2573  0.1642 -0.0621
 4453TIP3    H134850   1.068   3.144   0.999  1.0619 -1.5773  0.4453
 4453TIP3    H234851   1.207   3.110   0.951  1.5420  1.9614 -0.9941
 4454TIP3   OH234852   3.905   6.375  16.480  0.0588 -0.4514  0.2298
 4454TIP3    H134853   3.855   6.295  16.500 -0.6088 -0.5131 -1.5017
 4454TIP3    H234854   3.982   6.370  16.536 -0.8626 -1.4045  1.4645
 4455TIP3   OH234855   1.512   6.602   4.856  0.1123 -0.1809 -0.0379
 4455TIP3    H134856   1.470   6.543   4.793  0.4823 -0.8998  0.3830
 4455TIP3    H234857   1.602   6.611   4.823  0.0543  0.1609 -0.1061
 4456TIP3   OH234858   6.160   6.569  11.813 -0.0029 -0.7579 -0.1084
 4456TIP3    H134859   6.214   6.489  11.818 -0.6108 -1.2903 -1.5451
 4456TIP3    H234860   6.074   6.542  11.845  0.4723  0.0656  2.0724
 4457TIP3   OH234861   4.058   3.765   3.875 -0.2286  0.1968  0.1391
 4457TIP3    H134862   4.141   3.810   3.888 -0.4607  0.7082 -0.1422
 4457TIP3    H234863   4.000   3.830   3.836 -1.2845  0.3536  1.8681
 4458TIP3   OH234864   0.713   5.225  11.636  0.0441 -0.0566  0.8218
 4458TIP3    H134865   0.789   5.248  11.583  0.7076 -1.5561  1.0713
 4458TIP3    H234866   0.667   5.159  11.585  0.5514 -1.3381  1.9571
 4459TIP3   OH234867   3.377   1.623  10.913 -0.0967 -0.0831  0.1104
 4459TIP3    H134868   3.444   1.554  10.905 -0.9601 -0.9060 -0.1584
 4459TIP3    H234869   3.365   1.632  11.008 -0.6527 -0.9774  0.1339
 4460TIP3   OH234870   5.655   3.154   2.744 -0.3599  0.2316  0.1233
 4460TIP3    H134871   5.601   3.216   2.695  0.1260  0.6020  0.0520
 4460TIP3    H234872   5.723   3.127   2.683 -0.4266 -0.1880  0.2337
 4461TIP3   OH234873   5.309   0.346  16.016 -0.2634  0.2377 -0.0048
 4461TIP3    H134874   5.234   0.287  16.009 -0.9973  0.8970  1.7240
 4461TIP3    H234875   5.383   0.288  16.038 -0.4165 -0.3181 -0.9117
 4462TIP3   OH234876   0.227   1.832   4.969 -0.2365  0.5378  0.0865
 4462TIP3    H134877   0.316   1.827   4.934  0.4254  2.1405  1.4219
 4462TIP3    H234878   0.231   1.788   5.053  0.0152  2.8132  1.3580
 4463TIP3   OH234879   5.857   2.829  14.145  0.3292  0.0017 -0.2382
 4463TIP3    H134880   5.863   2.861  14.055  0.6777 -1.0375 -0.6104
 4463TIP3    H234881   5.830   2.905  14.196 -0.4294  0.4826 -1.3029
 4464TIP3   OH234882   0.415   5.392  10.829  0.4810  0.4204  0.0820
 4464TIP3    H134883   0.344   5.398  10.765  0.9916 -2.7728 -0.9701
 4464TIP3    H234884   0.381   5.438  10.906 -1.6165  1.2923 -1.2590
 4465TIP3   OH234885   5.487   2.407   3.394  0.0081  0.2470 -0.0430
 4465TIP3    H134886   5.572   2.451   3.388  0.6689 -0.9768  0.0577
 4465TIP3    H234887   5.460   2.396   3.303  0.1248  0.3102 -0.0863
 4466TIP3   OH234888   1.300   5.456   3.649 -0.8224  0.7143  0.3848
 4466TIP3    H134889   1.232   5.523   3.647 -0.9055  0.6471  0.7909
 4466TIP3    H234890   1.284   5.402   3.571  0.7793  2.6398 -1.4104
 4467TIP3   OH234891   3.486   2.372  14.983 -0.1197  0.6450 -0.1379
 4467TIP3    H134892   3.393   2.378  15.004 -0.1364 -0.7413  0.3149
 4467TIP3    H234893   3.492   2.393  14.889 -0.6351  2.4316  0.1896
 4468TIP3   OH234894   1.266   0.617   2.015  0.3209  0.1194 -0.1081
 4468TIP3    H134895   1.239   0.528   1.994  0.5812  0.0498 -0.1480
 4468TIP3    H234896   1.185   0.662   2.038  0.1639 -0.0764 -0.2758
 4469TIP3   OH234897   0.941   2.485   3.234 -0.4889 -0.1319 -0.2304
 4469TIP3    H134898   0.926   2.536   3.155 -0.0365  2.3050  1.1519
 4469TIP3    H234899   1.022   2.438   3.217 -1.3920 -1.1925 -1.8896
 4470TIP3   OH234900   4.633   4.660  15.379  0.2855  0.1455 -0.1229
 4470TIP3    H134901   4.573   4.637  15.309  0.8820 -3.0283  0.2533
 4470TIP3    H234902   4.714   4.686  15.334 -0.4229  1.6681 -0.5819
 4471TIP3   OH234903   2.464   0.225  10.081 -0.2353  0.7353  0.3595
 4471TIP3    H134904   2.484   0.305  10.130 -0.7768  0.0873  1.6870
 4471TIP3    H234905   2.526   0.225  10.008  0.8823  1.5275  1.2738
 4472TIP3   OH234906   5.333   0.639  11.376 -0.2220 -0.3906  0.1894
 4472TIP3    H134907   5.382   0.557  11.386  0.8018 -0.2133 -2.5794
 4472TIP3    H234908   5.312   0.665  11.465  0.1073 -3.2490  1.2140
 4473TIP3   OH234909   2.917   0.378  13.606 -0.3526  0.0730  0.4525
 4473TIP3    H134910   2.906   0.387  13.701 -0.0870  2.2623  0.3354
 4473TIP3    H234911   2.828   0.388  13.571 -0.4132 -0.4669  0.4424
 4474TIP3   OH234912   3.925   3.570   0.295 -0.3274 -0.4498  0.5875
 4474TIP3    H134913   4.005   3.518   0.295  0.4015  0.6345 -0.0543
 4474TIP3    H234914   3.939   3.636   0.363 -0.2650  0.3237 -0.1582
 4475TIP3   OH234915   6.042   4.182   3.676  0.3489  0.3408  0.0754
 4475TIP3    H134916   5.998   4.246   3.732  0.4651 -0.0321  0.6050
 4475TIP3    H234917   6.098   4.133   3.736  0.6476  0.0812 -0.4097
 4476TIP3   OH234918   1.156   3.581   2.874 -0.3160  0.0355 -0.8558
 4476TIP3    H134919   1.250   3.577   2.858 -0.2162  1.8148 -0.8222
 4476TIP3    H234920   1.147   3.565   2.968 -0.0575 -0.1953 -0.8691
 4477TIP3   OH234921   1.122   0.038  12.975 -0.1075  0.0326  0.4223
 4477TIP3    H134922   1.103  -0.009  12.894  0.1459  1.7296 -0.6864
 4477TIP3    H234923   1.192  -0.012  13.016 -0.1657 -0.8022 -0.4490
 4478TIP3   OH234924   4.859   2.776   2.121  0.0607  0.7993 -0.4968
 4478TIP3    H134925   4.892   2.687   2.113  1.3819  1.3245 -1.2056
 4478TIP3    H234926   4.764   2.767   2.110  0.3741 -0.2719 -3.2542
 4479TIP3   OH234927   5.195   6.502  15.310  1.3498 -0.0836  0.2326
 4479TIP3    H134928   5.226   6.449  15.384  1.9750  0.9363  0.7384
 4479TIP3    H234929   5.271   6.556  15.287  1.2994 -0.7078 -1.4728
 4480TIP3   OH234930   5.711   2.963   2.994 -0.2131 -0.0746  0.7690
 4480TIP3    H134931   5.701   2.963   3.090  0.9504  0.4131  0.9086
 4480TIP3    H234932   5.667   2.883   2.965 -0.3046 -0.3866  1.7374
 4481TIP3   OH234933   5.307   4.646  12.825  0.7964  0.5477  0.5716
 4481TIP3    H134934   5.342   4.706  12.759  1.3203 -1.1060 -0.7132
 4481TIP3    H234935   5.218   4.678  12.841 -0.7066 -0.8890 -3.5543
 4482TIP3   OH234936   6.567   2.017  17.022  0.1483 -0.1667 -0.4697
 4482TIP3    H134937   6.536   2.081  17.085  3.7428  0.3559  1.0398
 4482TIP3    H234938   6.526   1.935  17.049 -0.7182  0.6112  0.6617
 4483TIP3   OH234939   6.623   1.558  14.680  0.1145  0.0029 -0.1662
 4483TIP3    H134940   6.602   1.648  14.654  0.7285  0.4907  0.9464
 4483TIP3    H234941   6.719   1.556  14.682  0.0947 -0.3461  0.8975
 4484TIP3   OH234942   6.078   5.996  11.599  0.9814 -0.0833  0.2420
 4484TIP3    H134943   6.078   6.070  11.660 -1.0862 -0.4636  0.7808
 4484TIP3    H234944   6.135   6.024  11.527  0.6448  1.8353  0.6583
 4485TIP3   OH234945   4.420   1.154   6.070  0.7146  0.0833  0.2396
 4485TIP3    H134946   4.341   1.193   6.106  1.1871 -0.7913  2.3477
 4485TIP3    H234947   4.490   1.215   6.093  0.6660  1.2468 -2.2713
 4486TIP3   OH234948   5.779   2.943   3.760  0.1607 -0.8392  0.3282
 4486TIP3    H134949   5.755   2.939   3.853  1.2699  0.1908  0.6953
 4486TIP3    H234950   5.747   2.861   3.723 -1.1608 -0.8342  1.4027
 4487TIP3   OH234951   4.889   6.479   6.225  0.0618  0.1103  0.0219
 4487TIP3    H134952   4.855   6.391   6.241  0.8356  0.0613  1.6157
 4487TIP3    H234953   4.936   6.472   6.142 -0.9841 -0.6327 -0.5299
 4488TIP3   OH234954   2.050   5.236  13.982  0.8132  0.5050 -0.0030
 4488TIP3    H134955   1.971   5.266  13.936  0.2211  1.8720  1.7519
 4488TIP3    H234956   2.083   5.164  13.929 -1.8877 -0.4450 -0.5689
 4489TIP3   OH234957   3.196   0.762   3.403 -0.1674  0.2988  1.1820
 4489TIP3    H134958   3.162   0.739   3.316 -1.2205 -0.6558  1.8231
 4489TIP3    H234959   3.201   0.858   3.401 -1.2212  0.3700  0.4279
 4490TIP3   OH234960   5.093   2.404  13.932 -0.3302  0.7407  0.1761
 4490TIP3    H134961   5.100   2.309  13.938 -0.6871  0.4360 -2.7446
 4490TIP3    H234962   5.036   2.429  14.005 -2.3616 -1.6313 -0.4709
 4491TIP3   OH234963   5.568   5.076  15.411 -0.0544 -0.0621 -0.3235
 4491TIP3    H134964   5.533   5.018  15.343 -0.1094  0.7900 -1.0520
 4491TIP3    H234965   5.609   5.017  15.474 -0.9603 -0.9518 -0.5269
 4492TIP3   OH234966   6.070   1.829   2.817  0.1986 -0.3389  0.0730
 4492TIP3    H134967   6.142   1.777   2.852 -1.3637 -1.0186  2.5615
 4492TIP3    H234968   6.081   1.915   2.856 -0.3696 -0.4936  0.6082
 4493TIP3   OH234969   2.686   1.065  15.426  0.5068 -0.0154  0.2782
 4493TIP3    H134970   2.703   1.043  15.518 -0.4384  1.8089  0.9452
 4493TIP3    H234971   2.722   1.153  15.415 -1.6075  0.8374 -0.3486
 4494TIP3   OH234972   2.864   0.348  16.568 -0.2680  0.0034  0.3937
 4494TIP3    H134973   2.802   0.389  16.629 -1.4403  1.7316 -1.7875
 4494TIP3    H234974   2.943   0.402  16.574 -1.3729  2.0385 -1.5423
 4495TIP3   OH234975   4.078   4.064   4.652 -0.6313  0.3782 -0.0316
 4495TIP3    H134976   4.106   4.008   4.725 -0.8361  1.0689  0.5867
 4495TIP3    H234977   4.056   4.003   4.582  1.3250 -0.2473 -0.1636
 4496TIP3   OH234978   1.741   5.086   0.281  0.0978  0.3283 -0.3170
 4496TIP3    H134979   1.744   5.070   0.375 -1.0580 -1.4042 -0.5315
 4496TIP3    H234980   1.674   5.026   0.248 -1.5641  2.8229 -1.8852
 4497TIP3   OH234981   2.967   6.767  16.165  0.4948  0.2779 -0.0463
 4497TIP3    H134982   2.932   6.700  16.106  1.0039 -0.3632  0.3628
 4497TIP3    H234983   2.959   6.849  16.117 -0.2638 -0.0591 -0.5027
 4498TIP3   OH234984   4.115   3.241  11.210  0.5106 -0.1391  0.0367
 4498TIP3    H134985   4.085   3.250  11.119  1.2341  1.2771 -0.0944
 4498TIP3    H234986   4.211   3.235  11.203  0.4873 -1.3966  0.6311
 4499TIP3   OH234987   4.631   5.080   6.118  0.1108 -0.2380  0.0742
 4499TIP3    H134988   4.575   5.024   6.172  0.5346 -0.5265  0.2158
 4499TIP3    H234989   4.589   5.078   6.032 -1.2609  1.1987  0.6613
 4500TIP3   OH234990   6.203   0.468  16.718  0.0528  0.3510 -0.1206
 4500TIP3    H134991   6.166   0.548  16.755 -0.8040 -1.2641  2.7970
 4500TIP3    H234992   6.128   0.411  16.701  0.7774 -0.7978  0.3566
 4501TIP3   OH234993   4.458   4.911   2.403 -0.6146 -0.1182 -0.2127
 4501TIP3    H134994   4.413   4.990   2.374 -1.0796  0.3261  1.5576
 4501TIP3    H234995   4.398   4.871   2.466  0.0759 -1.3192 -0.2815
 4502TIP3   OH234996   1.900   6.137  16.524 -0.0041 -0.0859 -0.2396
 4502TIP3    H134997   1.833   6.117  16.459 -1.5204  0.9492  0.9363
 4502TIP3    H234998   1.980   6.151  16.473 -0.9980  0.0926 -1.8194
 4503TIP3   OH234999   4.312   2.696  15.544  0.3670  0.0083 -0.2707
 4503TIP3    H135000   4.302   2.603  15.566  1.3819 -0.2013 -0.6421
 4503TIP3    H235001   4.269   2.742  15.616 -0.0976 -0.7486 -0.0491
 4504TIP3   OH235002   0.534   0.639   4.271 -0.0318 -0.1216  0.4804
 4504TIP3    H135003   0.452   0.661   4.315 -0.7915 -0.1131 -0.8915
 4504TIP3    H235004   0.521   0.666   4.180  1.3022 -0.6119  0.1122
 4505TIP3   OH235005   6.568   1.697  12.688 -0.7991  0.0033  0.2298
 4505TIP3    H135006   6.489   1.731  12.647  0.4235  0.5550 -1.8029
 4505TIP3    H235007   6.567   1.603  12.667 -1.1865 -0.1002  0.6993
 4506TIP3   OH235008   3.338   5.687   3.644  0.1766  0.4572  0.0536
 4506TIP3    H135009   3.370   5.600   3.668 -1.1846 -0.4430 -1.2123
 4506TIP3    H235010   3.276   5.710   3.713  0.5258  0.4251  0.3808
 4507TIP3   OH235011   0.138   4.498  12.576 -0.0304 -0.1817  0.3583
 4507TIP3    H135012   0.058   4.506  12.628 -0.4368  0.3186 -0.3216
 4507TIP3    H235013   0.208   4.491  12.641 -0.3522  1.9295  1.0400
 4508TIP3   OH235014   4.283   2.287   0.159 -0.0933 -0.6363 -0.4375
 4508TIP3    H135015   4.283   2.304   0.065  1.1373 -2.8064 -0.8691
 4508TIP3    H235016   4.364   2.327   0.190 -0.2863 -0.3051 -0.3489
 4509TIP3   OH235017   5.717   2.080   5.710  0.3042 -0.2066  0.3662
 4509TIP3    H135018   5.798   2.116   5.745  0.0106  2.5918 -1.5543
 4509TIP3    H235019   5.663   2.064   5.787  0.9449  2.3929  1.4420
 4510TIP3   OH235020   5.278   4.224   1.098  0.0232  0.4622 -0.0751
 4510TIP3    H135021   5.293   4.275   1.177 -0.3846  1.5116 -0.6526
 4510TIP3    H235022   5.273   4.133   1.128  2.6739  0.4969  0.7538
 4511TIP3   OH235023   2.268   3.082  13.299 -0.0581  0.1222  0.1834
 4511TIP3    H135024   2.339   3.039  13.347  0.6974  1.2669  0.1545
 4511TIP3    H235025   2.191   3.068  13.353  0.2803 -0.7284  0.4692
 4512TIP3   OH235026   0.077   3.181   0.259  0.1252  0.1313 -0.2043
 4512TIP3    H135027   0.096   3.087   0.260  0.1868  0.1459  1.1123
 4512TIP3    H235028   0.111   3.211   0.174  0.1800 -1.0088 -0.6051
 4513TIP3   OH235029   3.638   6.803   3.686 -0.2576  0.5546  0.0403
 4513TIP3    H135030   3.699   6.738   3.721 -0.6690  1.1475  1.9689
 4513TIP3    H235031   3.686   6.886   3.692 -0.2804  0.6539 -1.0057
 4514TIP3   OH235032   5.489   0.403  11.392 -0.3943  0.6056  0.3481
 4514TIP3    H135033   5.558   0.378  11.453 -1.1158 -1.2175  0.4901
 4514TIP3    H235034   5.510   0.355  11.311 -0.9799  0.7627  0.0948
 4515TIP3   OH235035   1.641   6.560  10.492  0.2301  0.4815 -0.2999
 4515TIP3    H135036   1.711   6.542  10.430  1.5185  1.8690  0.6803
 4515TIP3    H235037   1.573   6.604  10.441  1.0661  1.1842 -0.8207
 4516TIP3   OH235038   5.847   1.635   2.115 -0.2978 -0.7055  0.6314
 4516TIP3    H135039   5.851   1.674   2.028 -0.2422 -2.0332  0.0119
 4516TIP3    H235040   5.780   1.685   2.161  0.1238  0.4327  0.0548
 4517TIP3   OH235041   6.242   5.225  12.778 -0.2077  0.0869  0.4169
 4517TIP3    H135042   6.251   5.310  12.735  0.0966  0.3917  1.0717
 4517TIP3    H235043   6.161   5.188  12.742  0.8255 -0.3663 -1.5689
 4518TIP3   OH235044   5.427   6.011   2.076  0.4638 -0.1918  0.3858
 4518TIP3    H135045   5.489   5.957   2.127  1.5126 -0.2469 -0.9048
 4518TIP3    H235046   5.482   6.075   2.032 -0.1662 -1.2422 -2.0864
 4519TIP3   OH235047   4.362   5.736   0.331  0.0224 -0.3192 -0.9123
 4519TIP3    H135048   4.292   5.673   0.347  1.0050 -1.1729  0.2637
 4519TIP3    H235049   4.317   5.819   0.314 -1.2870 -0.5819  0.9545
 4520TIP3   OH235050   5.290   1.976   4.830  0.9837 -0.1537  0.2549
 4520TIP3    H135051   5.213   1.969   4.886 -0.9868 -1.2663 -2.3739
 4520TIP3    H235052   5.321   2.066   4.843 -1.2563  0.6045  0.8196
 4521TIP3   OH235053   5.542   4.152   4.243 -0.4246 -0.2349 -0.4270
 4521TIP3    H135054   5.598   4.136   4.320 -1.2154  1.0168  0.4366
 4521TIP3    H235055   5.492   4.230   4.265 -3.3709 -1.8879 -0.6752
 4522TIP3   OH235056   0.455   3.035  13.770 -0.2578  0.9214 -0.3699
 4522TIP3    H135057   0.482   2.998  13.854 -1.0235  0.6711 -0.2207
 4522TIP3    H235058   0.536   3.043  13.720 -0.0461 -0.8823 -0.3786
 4523TIP3   OH235059   5.272   3.306  14.952 -0.4572 -0.5186 -0.1117
 4523TIP3    H135060   5.298   3.269  14.868  0.4397  0.6982 -0.3875
 4523TIP3    H235061   5.341   3.368  14.974 -0.2307 -1.3880  1.9252
 4524TIP3   OH235062   0.781   2.175   0.495  0.4174  0.1256 -0.2110
 4524TIP3    H135063   0.758   2.241   0.430  0.5471  1.2764  0.8704
 4524TIP3    H235064   0.833   2.111   0.447  0.3456  0.8437 -1.2842
 4525TIP3   OH235065   1.956   4.760   1.191 -0.7177  0.0227  0.0706
 4525TIP3    H135066   1.985   4.709   1.267  1.0050  0.0579 -0.5204
 4525TIP3    H235067   1.944   4.849   1.224 -0.9833 -0.1729  0.5058
 4526TIP3   OH235068   1.329   2.343   0.894 -0.1263  0.1578  0.5140
 4526TIP3    H135069   1.274   2.361   0.818  0.2265  2.3097  0.7137
 4526TIP3    H235070   1.415   2.378   0.870  0.0284  0.7415  1.8411
 4527TIP3   OH235071   6.734   0.430   0.756  0.9622 -0.4581  0.0651
 4527TIP3    H135072   6.799   0.480   0.707  0.9211 -0.0551  0.4214
 4527TIP3    H235073   6.690   0.494   0.811  0.5423 -0.7976  0.1315
 4528TIP3   OH235074   1.667   6.593  16.777 -0.3860  0.1756  0.0391
 4528TIP3    H135075   1.624   6.677  16.759 -0.6055  0.2759  1.0049
 4528TIP3    H235076   1.599   6.528  16.758 -0.3863  0.2358 -0.1797
 4529TIP3   OH235077   1.294   5.174   3.132  0.4107  0.5103 -0.3958
 4529TIP3    H135078   1.207   5.203   3.157  0.2254 -0.4469  0.0899
 4529TIP3    H235079   1.342   5.255   3.115 -0.3285  1.0675  0.1364
 4530TIP3   OH235080   3.234   0.448  12.232 -0.4775 -0.0905  0.6306
 4530TIP3    H135081   3.328   0.429  12.224 -0.2371  1.2229  0.0927
 4530TIP3    H235082   3.225   0.538  12.202 -1.8835 -0.1008  0.9490
 4531TIP3   OH235083   6.608   4.756   5.743  0.3020  0.0686 -0.1491
 4531TIP3    H135084   6.626   4.765   5.837 -0.9622  0.3040  0.0869
 4531TIP3    H235085   6.516   4.779   5.734  0.6383  0.9880 -1.5974
 4532TIP3   OH235086   2.603   4.076   3.928  0.4414  0.1819 -0.5726
 4532TIP3    H135087   2.572   3.992   3.962 -0.5072 -0.5009 -2.8989
 4532TIP3    H235088   2.695   4.080   3.955  0.6145 -1.7930 -0.6900
 4533TIP3   OH235089   5.196   6.209  14.638 -0.4875 -0.2730 -0.4490
 4533TIP3    H135090   5.175   6.275  14.571  1.0467  0.8910  0.1415
 4533TIP3    H235091   5.133   6.139  14.623 -2.5454  1.5354 -0.7905
 4534TIP3   OH235092   1.363   5.793  10.862 -0.3897  0.2675 -0.0429
 4534TIP3    H135093   1.316   5.778  10.779  1.1517 -1.1083 -0.7077
 4534TIP3    H235094   1.392   5.706  10.889  0.4608  0.9018  1.1481
 4535TIP3   OH235095   3.783   6.819   2.189  0.6890  0.5122  0.0494
 4535TIP3    H135096   3.692   6.805   2.215  0.7311  0.4569  0.1659
 4535TIP3    H235097   3.810   6.738   2.146  0.9706  0.1856  0.8348
 4536TIP3   OH235098   6.180   5.750   3.874  0.0812 -0.4750 -0.8144
 4536TIP3    H135099   6.229   5.782   3.799 -1.1380  1.9561 -0.6786
 4536TIP3    H235100   6.151   5.662   3.849  1.7119 -0.6624 -2.1680
 4537TIP3   OH235101   2.434   0.821  17.077 -0.1450  0.2763 -0.7891
 4537TIP3    H135102   2.390   0.848  16.997 -0.7253 -1.6004 -1.1708
 4537TIP3    H235103   2.513   0.775  17.048  0.1371  0.3993 -0.2467
 4538TIP3   OH235104   6.051   2.076   4.551 -0.2981  0.3845 -0.0185
 4538TIP3    H135105   6.012   2.104   4.633 -1.8671 -1.4083 -0.1103
 4538TIP3    H235106   6.140   2.113   4.553 -0.6384  1.1932  1.9928
 4539TIP3   OH235107   6.668   4.601  11.774  0.5369 -0.2533  0.3310
 4539TIP3    H135108   6.586   4.644  11.749  0.6143  0.0345  0.5655
 4539TIP3    H235109   6.677   4.619  11.868  2.0388  1.7571 -0.1202
 4540TIP3   OH235110   0.834   5.564  11.841 -0.0876  0.1770 -0.2317
 4540TIP3    H135111   0.882   5.496  11.888 -0.3467 -0.1511 -0.4338
 4540TIP3    H235112   0.760   5.518  11.801  0.0106  0.4890 -0.7825
 4541TIP3   OH235113   6.286   0.120  11.667 -0.2829 -0.3076  0.1607
 4541TIP3    H135114   6.303   0.173  11.589  0.5510 -1.3185 -0.3824
 4541TIP3    H235115   6.194   0.137  11.689  0.3090  2.3977  0.8597
 4542TIP3   OH235116   2.671   1.515   4.120 -0.1066  0.0424 -0.1469
 4542TIP3    H135117   2.640   1.496   4.209  1.1703 -0.9578  0.1174
 4542TIP3    H235118   2.623   1.454   4.065  1.1518 -1.3386  0.2314
 4543TIP3   OH235119   1.954   2.773  16.005 -0.6483  0.0628  0.3211
 4543TIP3    H135120   1.993   2.693  15.969 -0.1604  1.0180 -1.3452
 4543TIP3    H235121   2.028   2.832  16.019 -0.9438  0.0977  2.0105
 4544TIP3   OH235122   4.580   1.926  11.559  0.1547  0.4686  0.0160
 4544TIP3    H135123   4.595   2.017  11.532  0.7826 -0.1139 -1.7337
 4544TIP3    H235124   4.621   1.874  11.490  0.6107 -1.1576  1.4443
 4545TIP3   OH235125   3.760   1.090  14.831  0.0132 -0.3235 -0.6270
 4545TIP3    H135126   3.693   1.024  14.850 -1.2401  0.0199 -3.2907
 4545TIP3    H235127   3.710   1.170  14.816  1.3521  0.7736  0.5672
 4546TIP3   OH235128   1.678   3.990  11.247 -0.6277 -0.1624  0.1137
 4546TIP3    H135129   1.680   3.980  11.342 -0.1922 -0.0159  0.1215
 4546TIP3    H235130   1.592   4.027  11.228 -0.9182 -0.6801  0.4021
 4547TIP3   OH235131   0.788   0.424  13.274 -0.0593  0.3987 -0.4132
 4547TIP3    H135132   0.791   0.377  13.358  1.3175 -0.7132 -1.0330
 4547TIP3    H235133   0.696   0.421  13.248 -0.1733 -1.0872  0.0765
 4548TIP3   OH235134   6.454   3.807  14.057 -0.0182 -0.1472 -0.0077
 4548TIP3    H135135   6.533   3.860  14.052  0.4481 -0.7629  0.6123
 4548TIP3    H235136   6.424   3.816  14.148 -1.2725  0.9221 -0.4935
 4549TIP3   OH235137   0.703   5.376  16.002 -0.2581 -0.3090 -0.3367
 4549TIP3    H135138   0.643   5.427  16.056 -0.1246 -2.6300  2.1886
 4549TIP3    H235139   0.781   5.431  15.993 -0.5710  0.4320  1.2570
 4550TIP3   OH235140   5.199   2.730   3.889  0.6417  0.4477 -0.5488
 4550TIP3    H135141   5.255   2.688   3.954  2.0636  2.2097 -0.5682
 4550TIP3    H235142   5.230   2.697   3.805  0.6911  0.3399 -0.4887
 4551TIP3   OH235143   2.658   4.276   0.131 -0.1004  0.0385 -0.5625
 4551TIP3    H135144   2.673   4.323   0.049  0.0426 -0.9905 -1.1334
 4551TIP3    H235145   2.604   4.201   0.107  0.5539 -0.6794  0.1478
 4552TIP3   OH235146   1.906   4.993   4.127 -0.0390 -0.0165 -0.2937
 4552TIP3    H135147   1.980   5.030   4.176 -1.0104  1.5464  0.0625
 4552TIP3    H235148   1.878   5.063   4.069 -0.6045 -0.9446 -1.1658
 4553TIP3   OH235149   5.639   6.466   4.272  0.3012  0.3320 -1.3950
 4553TIP3    H135150   5.623   6.506   4.186  0.4700  0.8569 -1.1865
 4553TIP3    H235151   5.714   6.408   4.258  0.4763  0.5954 -1.5503
 4554TIP3   OH235152   5.433   0.173   4.560 -0.0552 -0.0373 -0.5411
 4554TIP3    H135153   5.487   0.243   4.524  1.3226 -1.0542 -0.5857
 4554TIP3    H235154   5.419   0.113   4.487  1.7729 -1.5247  0.2423
 4555TIP3   OH235155   2.811   2.995   4.341 -0.2044  0.1557  0.0268
 4555TIP3    H135156   2.889   3.017   4.392 -0.6518  0.7737  0.4696
 4555TIP3    H235157   2.744   3.057   4.372 -0.9509 -0.5413 -0.1407
 4556TIP3   OH235158   4.787   3.441  13.283 -0.0401 -0.5177 -0.0551
 4556TIP3    H135159   4.696   3.423  13.259 -0.2305 -1.5036  1.2991
 4556TIP3    H235160   4.827   3.474  13.202 -1.2580 -1.3414 -1.0302
 4557TIP3   OH235161   5.011   0.073   1.564  0.0923 -0.3466 -0.5037
 4557TIP3    H135162   5.048   0.160   1.550  0.2121 -0.4670 -0.9326
 4557TIP3    H235163   5.081   0.024   1.607 -0.5623  0.2728  1.3916
 4558TIP3   OH235164   4.447   0.566   1.599 -0.2466 -0.4414 -0.1297
 4558TIP3    H135165   4.443   0.491   1.658 -3.1199  0.3745  0.8680
 4558TIP3    H235166   4.491   0.634   1.650 -2.0231  0.0193  0.8438
 4559TIP3   OH235167   3.726   5.890   6.490 -0.0483  0.6801  0.6011
 4559TIP3    H135168   3.787   5.963   6.496 -2.0354  2.4865  0.0625
 4559TIP3    H235169   3.654   5.923   6.437 -0.8746 -1.8248  0.0296
 4560TIP3   OH235170   0.534   0.693  14.040 -0.7659 -0.1166 -0.2341
 4560TIP3    H135171   0.544   0.612  14.089 -2.7352 -1.5802 -2.0559
 4560TIP3    H235172   0.479   0.669  13.965  0.6226  2.3525 -2.2162
 4561TIP3   OH235173   1.884   0.254   2.662  0.4837  0.2115  0.1842
 4561TIP3    H135174   1.809   0.270   2.719  0.0932 -1.7625  0.2777
 4561TIP3    H235175   1.955   0.233   2.722  0.8215  0.8759  0.0327
 4562TIP3   OH235176   5.693   6.354   0.599  0.0992  0.1814  0.0926
 4562TIP3    H135177   5.783   6.321   0.592  0.8742  2.2892 -0.7995
 4562TIP3    H235178   5.638   6.279   0.579  1.7490 -0.4531 -2.6131
 4563TIP3   OH235179   1.013   6.809   6.168 -0.5956 -0.6252  0.5979
 4563TIP3    H135180   1.082   6.802   6.234 -0.8376 -2.5964  0.6969
 4563TIP3    H235181   1.040   6.750   6.098 -1.3114 -0.0656 -0.1695
 4564TIP3   OH235182   6.547   5.135   1.687 -0.2395  0.2807  0.6368
 4564TIP3    H135183   6.462   5.125   1.729 -0.7844  0.9952 -0.2486
 4564TIP3    H235184   6.548   5.225   1.655  0.3743 -0.0547 -0.3648
 4565TIP3   OH235185   2.395   4.739   0.978 -0.6621  0.2539 -0.4172
 4565TIP3    H135186   2.315   4.700   0.943  0.0859  0.6909 -2.7886
 4565TIP3    H235187   2.386   4.832   0.959  0.5747  0.2468 -1.0847
 4566TIP3   OH235188   6.332   3.655   1.157  0.6134  0.3062 -0.2528
 4566TIP3    H135189   6.396   3.621   1.220  0.4103  0.0589 -0.1811
 4566TIP3    H235190   6.280   3.579   1.132  1.4578  0.1421 -1.6248
 4567TIP3   OH235191   1.240   3.829  10.891  0.3418  0.1200 -0.0899
 4567TIP3    H135192   1.334   3.816  10.883  0.2707 -0.5733  0.1693
 4567TIP3    H235193   1.204   3.802  10.807  0.3497  0.1063 -0.0891
 4568TIP3   OH235194   0.242   3.265   5.553  0.0447  0.5250  0.4798
 4568TIP3    H135195   0.293   3.240   5.630  0.9920  0.8124 -0.0314
 4568TIP3    H235196   0.226   3.359   5.565 -0.1133  0.4959  0.4969
 4569TIP3   OH235197   3.493   0.742   3.581 -0.4706 -0.2215 -0.0537
 4569TIP3    H135198   3.397   0.740   3.586 -0.4576  0.5808  0.6736
 4569TIP3    H235199   3.519   0.650   3.586 -1.2042 -0.4430 -0.2200
 4570TIP3   OH235200   2.351   4.421   5.177  0.2956 -0.4587 -0.0117
 4570TIP3    H135201   2.293   4.456   5.108  1.4413 -0.2168 -0.8882
 4570TIP3    H235202   2.321   4.464   5.257  0.3251  0.9653 -0.7234
 4571TIP3   OH235203   4.824   3.718   2.528  0.2260  0.8402 -0.6230
 4571TIP3    H135204   4.860   3.752   2.610  0.1544  0.0033 -0.2331
 4571TIP3    H235205   4.752   3.776   2.507  0.9899  1.7754 -0.7286
 4572TIP3   OH235206   2.775   0.976  13.339 -0.2073  0.6080 -0.5268
 4572TIP3    H135207   2.827   1.044  13.383  0.2024  0.7084 -1.1506
 4572TIP3    H235208   2.800   0.983  13.247 -0.7937  0.1667 -0.7229
 4573TIP3   OH235209   2.958   4.524   2.569 -0.2768  0.4521 -0.4523
 4573TIP3    H135210   3.050   4.499   2.561 -0.0380  0.5611  1.4471
 4573TIP3    H235211   2.958   4.594   2.635 -1.8938 -0.9084  1.0939
 4574TIP3   OH235212   1.957   3.076  13.462 -0.3651  0.1506 -0.4844
 4574TIP3    H135213   1.935   3.010  13.528 -0.0125 -1.2930 -1.7662
 4574TIP3    H235214   1.896   3.061  13.390 -0.9689  1.9231 -0.4100
 4575TIP3   OH235215   6.129   1.596  16.079 -0.0038 -0.1534 -0.1017
 4575TIP3    H135216   6.146   1.512  16.122 -1.2335 -0.4762 -0.2192
 4575TIP3    H235217   6.208   1.613  16.028 -0.0537 -1.6543 -0.7474
 4576TIP3   OH235218   0.400   4.145   4.270  0.1481 -0.1061  0.0104
 4576TIP3    H135219   0.379   4.122   4.179  0.1209 -0.0689  0.0070
 4576TIP3    H235220   0.446   4.229   4.263  0.4517 -0.2731  0.0031
 4577TIP3   OH235221   2.098   1.851  16.747  0.0802 -0.2155  0.0409
 4577TIP3    H135222   2.132   1.787  16.686  0.1345 -0.2428  0.1006
 4577TIP3    H235223   2.003   1.850  16.732 -0.1396 -1.5857  1.2644
 4578TIP3   OH235224   2.875   2.804  16.175 -0.3492  0.2733  0.1957
 4578TIP3    H135225   2.969   2.827  16.179  0.0555 -1.2296 -0.2803
 4578TIP3    H235226   2.857   2.794  16.082 -0.7182 -0.5349  0.3534
 4579TIP3   OH235227   3.964   1.311   1.335  0.2017 -0.6364  0.1034
 4579TIP3    H135228   4.036   1.249   1.322  2.4756  1.7414  0.6346
 4579TIP3    H235229   3.998   1.395   1.307 -1.4460  1.0960  2.7803
 4580TIP3   OH235230   1.819   4.076  16.380 -1.0447 -0.5125 -0.0462
 4580TIP3    H135231   1.780   4.070  16.293  1.5862  4.1695 -1.9182
 4580TIP3    H235232   1.901   4.026  16.373  0.0157  1.2712 -0.9737
 4581TIP3   OH235233   4.496   1.268   3.855 -0.1932 -0.0398 -0.4774
 4581TIP3    H135234   4.543   1.185   3.848 -1.4247 -0.7052 -1.1305
 4581TIP3    H235235   4.456   1.266   3.942 -0.7319 -0.4194 -0.7296
 4582TIP3   OH235236   3.423   0.718  12.878 -0.0073 -0.1255  0.0891
 4582TIP3    H135237   3.468   0.746  12.799  0.4468  1.1407  0.7635
 4582TIP3    H235238   3.360   0.789  12.896 -0.9247 -0.9504  0.2301
 4583TIP3   OH235239   2.912   5.338   0.298  0.0817 -0.1663  0.3382
 4583TIP3    H135240   2.867   5.295   0.225  0.9917 -0.2201 -0.2092
 4583TIP3    H235241   2.891   5.431   0.288 -0.5553 -0.2860  0.5569
 4584TIP3   OH235242   2.546   3.237   5.818 -0.1308  0.4774 -0.5488
 4584TIP3    H135243   2.619   3.287   5.856  0.3968 -0.5057 -0.2509
 4584TIP3    H235244   2.472   3.257   5.876  0.7349 -1.2359  1.2545
 4585TIP3   OH235245   4.639   3.106  11.942 -0.0555 -0.0200 -0.8572
 4585TIP3    H135246   4.590   3.025  11.957  0.1070 -0.1890 -1.2282
 4585TIP3    H235247   4.580   3.176  11.971  0.5285 -0.3587  1.3200
 4586TIP3   OH235248   2.500   4.761   5.654 -0.1558  0.3206  0.1488
 4586TIP3    H135249   2.483   4.830   5.718 -1.9251  1.1018 -1.0782
 4586TIP3    H235250   2.525   4.808   5.574  0.0435 -0.5285 -0.3006
 4587TIP3   OH235251   6.465   0.477   1.280  0.1436  0.2750 -0.0575
 4587TIP3    H135252   6.370   0.493   1.278 -0.2979 -1.6130  1.7926
 4587TIP3    H235253   6.504   0.561   1.257 -1.9492  0.6007 -3.0755
 4588TIP3   OH235254   3.958   6.300   3.753 -0.7156 -0.0550  0.3211
 4588TIP3    H135255   3.891   6.353   3.796 -0.0979  1.3422 -0.3461
 4588TIP3    H235256   3.913   6.257   3.681 -1.4061 -1.1136  1.3579
 4589TIP3   OH235257   6.095   0.781   0.401  0.4053 -0.5298 -0.1557
 4589TIP3    H135258   6.125   0.835   0.474 -0.0332  0.9910 -1.0384
 4589TIP3    H235259   6.174   0.744   0.364  0.6440 -1.2429  1.0035
 4590TIP3   OH235260   3.516   6.159  12.825  0.2152 -0.0877 -0.5614
 4590TIP3    H135261   3.425   6.161  12.852  0.3849  0.8347 -0.0061
 4590TIP3    H235262   3.517   6.202  12.739  0.0032 -0.9497 -1.0043
 4591TIP3   OH235263   5.034   3.639  15.714 -0.0462  0.1946 -0.2124
 4591TIP3    H135264   4.946   3.601  15.713  0.5169 -1.1703 -0.3269
 4591TIP3    H235265   5.038   3.688  15.796 -1.6056  2.0663 -1.1846
 4592TIP3   OH235266   3.719   4.195  15.005 -0.0411  0.0509 -0.5946
 4592TIP3    H135267   3.689   4.195  15.096  0.0881 -3.2934 -0.4356
 4592TIP3    H235268   3.644   4.167  14.954  0.0992  1.1834 -1.4613
 4593TIP3   OH235269   4.607   1.139   1.159 -0.3605 -0.0783 -0.0820
 4593TIP3    H135270   4.639   1.152   1.249  1.1278  0.9826 -0.7275
 4593TIP3    H235271   4.648   1.057   1.131  0.6662  0.5191 -0.3904
 4594TIP3   OH235272   2.675   4.419   3.726 -0.4107 -0.0625 -0.4149
 4594TIP3    H135273   2.734   4.358   3.683 -0.6979 -1.0188  0.5160
 4594TIP3    H235274   2.699   4.415   3.819 -1.7742 -0.3226 -0.0430
 4595TIP3   OH235275   2.606   0.528  17.089 -0.5649  0.8010  0.1168
 4595TIP3    H135276   2.635   0.586  17.018  0.6311  1.5208  1.1516
 4595TIP3    H235277   2.687   0.504  17.134 -1.1095 -1.1717  0.1145
 4596TIP3   OH235278   2.628   2.520   5.313 -0.2503  0.2024 -0.7391
 4596TIP3    H135279   2.557   2.474   5.268  0.1106 -1.4547  0.3310
 4596TIP3    H235280   2.681   2.451   5.351  1.5339  1.4426 -0.8626
 4597TIP3   OH235281   6.345   0.758   2.912  0.3456 -0.0633  0.1969
 4597TIP3    H135282   6.407   0.761   2.838 -0.8040 -0.8844 -0.8430
 4597TIP3    H235283   6.325   0.849   2.930  0.0849  0.1380 -1.0218
 4598TIP3   OH235284   2.272   1.775   2.367 -0.0611  0.2990 -0.0144
 4598TIP3    H135285   2.219   1.763   2.288 -0.0477 -1.1993  0.1606
 4598TIP3    H235286   2.362   1.771   2.336 -0.0473  1.1393 -0.0954
 4599TIP3   OH235287   5.961   6.000  12.498 -0.4726 -0.1757  0.1353
 4599TIP3    H135288   5.917   5.918  12.476  2.5688 -2.3421  1.4618
 4599TIP3    H235289   5.952   6.008  12.593 -0.0210  0.6072  0.1233
 4600TIP3   OH235290   0.212   2.883   2.871  0.3496  0.6030  0.3542
 4600TIP3    H135291   0.269   2.808   2.889 -0.1319  0.2744  0.5515
 4600TIP3    H235292   0.241   2.951   2.931 -0.0371  0.1402  1.0757
 4601TIP3   OH235293   6.831   4.362  10.604  0.2623  0.6061 -0.5470
 4601TIP3    H135294   6.828   4.442  10.657  0.2375 -0.2587  0.7985
 4601TIP3    H235295   6.743   4.356  10.565 -0.7511 -0.2857  1.7257
 4602TIP3   OH235296   5.286   2.696  12.891  0.2300  0.1086  0.3838
 4602TIP3    H135297   5.235   2.683  12.810 -0.0472  0.5562  0.4863
 4602TIP3    H235298   5.376   2.675  12.866  0.4026  1.6738 -0.4337
 4603TIP3   OH235299   1.160   4.668   4.271 -0.1409 -0.1081  0.1666
 4603TIP3    H135300   1.159   4.578   4.240  1.7447  0.1546 -0.8334
 4603TIP3    H235301   1.182   4.661   4.364 -0.8535 -0.7055  0.2937
 4604TIP3   OH235302   0.255   3.144   3.653 -0.5217  0.0659 -0.0548
 4604TIP3    H135303   0.288   3.212   3.711  0.1594  0.3999 -0.8137
 4604TIP3    H235304   0.300   3.159   3.570 -2.3572  0.3663 -1.0533
 4605TIP3   OH235305   4.729   1.115   1.452  0.2547 -0.0834  0.1035
 4605TIP3    H135306   4.718   1.206   1.477  0.6208  0.8840 -2.8759
 4605TIP3    H235307   4.823   1.105   1.440  0.0207 -0.1018 -1.9630
 4606TIP3   OH235308   2.220   4.698   2.729 -0.1641 -0.5733  0.2791
 4606TIP3    H135309   2.261   4.635   2.788  0.1855 -0.9949 -0.4100
 4606TIP3    H235310   2.142   4.727   2.777  0.4561 -0.4092  1.2279
 4607TIP3   OH235311   2.846   6.805   5.287 -0.1007 -0.2868 -0.5135
 4607TIP3    H135312   2.790   6.810   5.365 -1.9991  0.5968 -1.8405
 4607TIP3    H235313   2.919   6.748   5.313 -1.6747 -1.6214  1.2877
 4608TIP3   OH235314   2.448   2.098  16.464 -0.6292 -0.2849 -0.0604
 4608TIP3    H135315   2.379   2.033  16.456 -1.7312  0.7576  0.5700
 4608TIP3    H235316   2.491   2.078  16.547  0.3464 -1.3748 -0.7891
 4609TIP3   OH235317   5.260   4.794   0.198 -0.1435 -0.0138  0.5095
 4609TIP3    H135318   5.181   4.849   0.207 -0.3013 -0.2265  0.4322
 4609TIP3    H235319   5.232   4.723   0.140  0.5029  0.6830 -0.6892
 4610TIP3   OH235320   6.308   1.959   3.162 -0.0501  0.0323  0.6005
 4610TIP3    H135321   6.213   1.951   3.169 -0.2413  0.0789 -1.5337
 4610TIP3    H235322   6.322   2.029   3.098  1.4339  0.1170  0.9715
 4611TIP3   OH235323   0.755   6.685  13.830  0.3789 -0.0734  0.2253
 4611TIP3    H135324   0.694   6.647  13.766  0.0004 -0.7681  0.9915
 4611TIP3    H235325   0.704   6.754  13.873  0.9632  1.1431 -0.9343
 4612TIP3   OH235326   1.024   1.971   2.992  0.3441 -0.2977  0.8104
 4612TIP3    H135327   0.937   2.007   2.980  0.5316  0.8091  2.4759
 4612TIP3    H235328   1.055   1.952   2.903 -0.1464  2.7658 -0.1318
 4613TIP3   OH235329   2.298   5.791  15.396 -0.7303 -0.7944 -0.4254
 4613TIP3    H135330   2.317   5.882  15.419 -0.3639 -0.3724 -2.1993
 4613TIP3    H235331   2.205   5.792  15.373 -0.5719 -0.6912 -1.0998
 4614TIP3   OH235332   6.050   3.504   3.509 -0.1246  0.5113  0.5955
 4614TIP3    H135333   6.043   3.471   3.598 -0.3097  2.2406  1.2573
 4614TIP3    H235334   5.995   3.582   3.507 -3.3797 -1.5706 -2.1596
 4615TIP3   OH235335   6.822   2.373   1.078 -0.1570  0.3021 -0.6157
 4615TIP3    H135336   6.747   2.410   1.124  0.0103  1.7152 -1.4442
 4615TIP3    H235337   6.879   2.341   1.148 -0.2901  1.6458  0.1412
 4616TIP3   OH235338   3.122   2.258   1.111  0.2387 -0.4241  0.2510
 4616TIP3    H135339   3.150   2.250   1.202  0.8559  1.5489  0.2798
 4616TIP3    H235340   3.035   2.298   1.117 -0.4007 -1.7356 -0.0019
 4617TIP3   OH235341   3.079   4.569  11.969 -0.1742 -0.0506  0.3772
 4617TIP3    H135342   3.002   4.512  11.962  0.0297 -0.1591 -2.0155
 4617TIP3    H235343   3.145   4.526  11.915  1.2616  0.5566  1.5912
 4618TIP3   OH235344   3.062   5.822   0.442 -0.1621 -0.0606 -0.1452
 4618TIP3    H135345   2.979   5.779   0.465 -2.0212  4.0868  1.8440
 4618TIP3    H235346   3.059   5.830   0.347 -2.3191  0.3412 -0.1080
 4619TIP3   OH235347   5.643   0.111  16.738  0.3456 -0.3534 -0.7315
 4619TIP3    H135348   5.656   0.201  16.709 -0.0047 -0.3300 -0.8141
 4619TIP3    H235349   5.677   0.057  16.667  1.1422 -0.2850 -0.4127
 4620TIP3   OH235350   0.215   6.036  14.310 -0.0053  0.7623  0.8865
 4620TIP3    H135351   0.215   6.068  14.400  0.6806  0.4268  1.0087
 4620TIP3    H235352   0.299   6.064  14.275 -0.5274  1.4506  0.1414
 4621TIP3   OH235353   3.177   3.523   0.886  0.3622 -0.2451 -0.0082
 4621TIP3    H135354   3.142   3.451   0.937  0.8610 -0.6410 -0.2167
 4621TIP3    H235355   3.267   3.498   0.866  0.6025  0.5126  0.0655
 4622TIP3   OH235356   4.161   6.025   6.038 -0.3977 -0.2424 -0.4705
 4622TIP3    H135357   4.106   6.086   6.086 -0.6265  0.3466 -1.4610
 4622TIP3    H235358   4.143   6.043   5.946  2.3550  0.8822 -0.9063
 4623TIP3   OH235359   6.113   5.006   1.173  0.4751  0.2753 -0.1495
 4623TIP3    H135360   6.158   5.086   1.200 -0.1667  1.3962 -2.1852
 4623TIP3    H235361   6.183   4.943   1.159  1.0537  0.6839  0.7825
 4624TIP3   OH235362   6.612   0.938  13.739  0.1690  0.9295  0.2140
 4624TIP3    H135363   6.618   0.978  13.826 -0.6316 -0.6820  1.0632
 4624TIP3    H235364   6.519   0.937  13.719  0.3560  1.3600 -0.7233
 4625TIP3   OH235365   4.385   5.871   2.566  0.2540  0.0720  0.0857
 4625TIP3    H135366   4.425   5.787   2.543  0.3387 -0.0390  0.6240
 4625TIP3    H235367   4.458   5.930   2.582  0.2429  0.9479 -2.6169
 4626TIP3   OH235368   2.137   6.798  10.811 -0.5948  0.4957 -0.4991
 4626TIP3    H135369   2.111   6.797  10.903  0.5560  1.7664 -0.1228
 4626TIP3    H235370   2.232   6.808  10.813 -0.5754  0.8193 -1.8211
 4627TIP3   OH235371   4.843   3.535  15.963 -0.2633 -0.1386 -0.4579
 4627TIP3    H135372   4.762   3.503  16.003  0.2484 -1.0057 -0.0820
 4627TIP3    H235373   4.910   3.521  16.030  0.0058  1.7057 -0.3057
 4628TIP3   OH235374   5.703   2.322   0.139  0.5344 -0.7293  0.0785
 4628TIP3    H135375   5.658   2.365   0.067  0.6974 -1.2295 -0.3288
 4628TIP3    H235376   5.633   2.299   0.201  0.0434 -2.5208 -1.0677
 4629TIP3   OH235377   2.163   6.077  14.302 -0.0559  0.6923 -0.0583
 4629TIP3    H135378   2.230   6.128  14.347 -1.9302  1.2708  2.2450
 4629TIP3    H235379   2.173   5.988  14.336  0.1776  0.5390 -0.5097
 4630TIP3   OH235380   4.829   5.494  13.934  0.1934  0.2498 -0.4899
 4630TIP3    H135381   4.741   5.461  13.914  0.1480  0.2464 -0.2818
 4630TIP3    H235382   4.814   5.583  13.964  0.2473  0.1888 -0.2855
 4631TIP3   OH235383   0.305   5.195   0.162 -0.1938  0.5136  0.3459
 4631TIP3    H135384   0.234   5.218   0.222 -1.8624 -0.5234 -1.1102
 4631TIP3    H235385   0.261   5.182   0.078  1.3390 -2.4593 -0.1344
 4632TIP3   OH235386   3.933   2.089  11.156 -0.6904 -0.0717 -0.4689
 4632TIP3    H135387   3.910   2.145  11.082 -0.9226 -0.8650 -1.0213
 4632TIP3    H235388   4.029   2.084  11.153 -0.7404 -0.9207 -1.3749
 4633TIP3   OH235389   1.852   2.154   2.731 -0.1083  0.5337  0.5448
 4633TIP3    H135390   1.838   2.083   2.794  2.0962  0.5335  1.0998
 4633TIP3    H235391   1.824   2.233   2.778 -1.3789  0.2101  0.3744
 4634TIP3   OH235392   5.486   0.848   6.013  0.4091  0.2002  0.1262
 4634TIP3    H135393   5.428   0.913   6.052 -0.8435 -2.4162  3.0703
 4634TIP3    H235394   5.523   0.801   6.088 -0.0140 -3.5032 -1.7408
 4635TIP3   OH235395   5.564   2.233   6.069 -0.0140  0.1258  0.3635
 4635TIP3    H135396   5.521   2.244   6.154 -1.9938  1.2908 -0.7164
 4635TIP3    H235397   5.631   2.301   6.067  0.2542 -0.1043  1.0954
 4636TIP3   OH235398   6.835   5.905  15.242  0.1713 -0.3449 -0.0302
 4636TIP3    H135399   6.840   5.885  15.335 -0.3236 -1.1481 -0.1622
 4636TIP3    H235400   6.760   5.855  15.211  0.3097 -0.0592 -0.8589
 4637TIP3   OH235401   3.682   5.854   1.169 -0.2995 -0.6118  0.1022
 4637TIP3    H135402   3.720   5.880   1.085  0.4978  0.6923  0.8276
 4637TIP3    H235403   3.613   5.792   1.146 -0.2955 -0.0665 -1.5339
 4638TIP3   OH235404   5.012   4.570  12.133  0.1443  0.8672 -0.3964
 4638TIP3    H135405   5.067   4.639  12.095 -1.5620  3.5527  1.6085
 4638TIP3    H235406   4.941   4.558  12.069  0.0251  1.6176 -0.4209
 4639TIP3   OH235407   2.622   5.541  15.669 -0.0967 -0.1764 -0.3110
 4639TIP3    H135408   2.690   5.559  15.734 -1.1858  1.5169  0.4227
 4639TIP3    H235409   2.542   5.528  15.720 -0.7963  0.2583 -1.2559
 4640TIP3   OH235410   0.446   5.062  13.690  0.0934 -0.1659 -0.0974
 4640TIP3    H135411   0.503   5.065  13.613  0.5334  1.0826  0.2387
 4640TIP3    H235412   0.370   5.011  13.663  0.2856  0.1836 -1.3370
 4641TIP3   OH235413   3.293   1.346  12.749  0.2631  0.7239 -0.0151
 4641TIP3    H135414   3.242   1.353  12.669 -1.1667 -1.0392  0.6708
 4641TIP3    H235415   3.364   1.286  12.728 -0.0000  0.4159 -0.0407
 4642TIP3   OH235416   5.342   5.085  16.719  0.5840 -0.6417 -0.2830
 4642TIP3    H135417   5.289   5.054  16.646 -0.2500 -0.7246  0.3389
 4642TIP3    H235418   5.283   5.083  16.795  0.0959  3.3626 -0.3188
 4643TIP3   OH235419   2.759   3.133  13.327  0.2740 -0.1232  0.4212
 4643TIP3    H135420   2.758   3.146  13.422 -0.7213  1.0018  0.2859
 4643TIP3    H235421   2.721   3.046  13.314 -0.7180  0.2096  1.0089
 4644TIP3   OH235422   6.023   1.062   2.047  0.3491 -0.0724 -0.2008
 4644TIP3    H135423   6.096   1.056   2.108  0.0839 -2.1510 -0.0094
 4644TIP3    H235424   5.947   1.031   2.097  0.1260 -1.8003 -1.5245
 4645TIP3   OH235425   6.082   1.963   5.115 -0.1564 -0.0880  0.7394
 4645TIP3    H135426   6.027   2.041   5.119 -0.6907 -0.3292 -0.9889
 4645TIP3    H235427   6.098   1.951   5.021  2.9594  0.0513  1.1508
 4646TIP3   OH235428   2.811   1.522   1.802 -0.5358  0.9585  0.1317
 4646TIP3    H135429   2.903   1.542   1.820 -0.1129 -1.3988  0.9604
 4646TIP3    H235430   2.812   1.431   1.773 -2.7230  0.4542  1.4215
 4647TIP3   OH235431   6.010   5.506  13.165 -0.3704  0.3375 -0.8760
 4647TIP3    H135432   6.014   5.498  13.261 -0.2626 -0.3855 -0.9369
 4647TIP3    H235433   6.100   5.524  13.139 -0.6741  2.3693 -0.7057
 4648TIP3   OH235434   6.177   6.258  14.421  0.6017 -0.3334 -0.1575
 4648TIP3    H135435   6.132   6.236  14.502 -0.2435 -2.4506 -1.1249
 4648TIP3    H235436   6.260   6.209  14.425  0.0861 -1.3206 -0.9890
 4649TIP3   OH235437   1.996   0.668  16.669 -0.2019 -0.1746  0.5764
 4649TIP3    H135438   2.023   0.722  16.595  0.1513 -1.4314 -0.2513
 4649TIP3    H235439   1.901   0.659  16.659  0.0875 -2.2755 -1.1725
 4650TIP3   OH235440   3.241   0.005  16.242 -0.1072  1.1067 -0.2342
 4650TIP3    H135441   3.167  -0.042  16.203 -1.8249  3.5651 -0.1816
 4650TIP3    H235442   3.211   0.027  16.330  1.4360  0.6525  0.4362
 4651TIP3   OH235443   3.428   1.747   0.241  0.2893 -0.0735  0.2250
 4651TIP3    H135444   3.363   1.802   0.284  1.2521  0.8749  0.5139
 4651TIP3    H235445   3.512   1.780   0.272  0.9098 -2.7649  1.7534
 4652TIP3   OH235446   2.979   2.162   1.910  0.6617 -0.0203 -0.0290
 4652TIP3    H135447   2.915   2.216   1.955 -0.2518 -2.0236  1.1945
 4652TIP3    H235448   3.039   2.225   1.868  0.6677  1.9350  2.6888
 4653TIP3   OH235449   1.069   4.764  16.316 -0.0325  0.0154  0.0853
 4653TIP3    H135450   1.064   4.699  16.247  0.5764 -0.4440  0.4622
 4653TIP3    H235451   1.147   4.740  16.366 -0.6891  0.0840  1.1786
 4654TIP3   OH235452   6.368   1.171  14.035 -0.8736  0.3453  0.0910
 4654TIP3    H135453   6.366   1.253  14.084 -1.1945 -0.5566  1.6492
 4654TIP3    H235454   6.276   1.143  14.031 -0.7389 -0.0707 -0.2205
 4655TIP3   OH235455   1.995   3.074   2.173  0.5602 -0.7171 -0.3209
 4655TIP3    H135456   2.078   3.108   2.205  0.7150 -1.3036 -0.0930
 4655TIP3    H235457   1.981   2.993   2.222 -0.1337 -0.6376 -0.3753
 4656TIP3   OH235458   3.811   6.007  14.720  0.0970  0.7588 -0.2515
 4656TIP3    H135459   3.721   6.033  14.699 -0.1072  0.8391  0.6832
 4656TIP3    H235460   3.803   5.917  14.752 -0.0294  1.5479  2.1797
 4657TIP3   OH235461   4.780   6.407   1.712  0.3359  0.1345  0.2870
 4657TIP3    H135462   4.742   6.338   1.658  1.0334 -0.0226 -0.0171
 4657TIP3    H235463   4.871   6.381   1.723  0.9871  1.6695 -0.9737
 4658TIP3   OH235464   2.383   1.627   4.756  0.1760  0.5237  0.2022
 4658TIP3    H135465   2.295   1.649   4.786  0.1714  0.1974  0.4346
 4658TIP3    H235466   2.372   1.542   4.712  0.3108  0.6555 -0.0897
 4659TIP3   OH235467   5.419   2.397  16.714 -0.2577  0.3209  0.1491
 4659TIP3    H135468   5.335   2.359  16.689  0.1694  0.1514 -1.0913
 4659TIP3    H235469   5.405   2.491  16.712 -0.5655  0.2824  0.4922
 4660TIP3   OH235470   6.760   3.335  13.276  0.2973  0.6474 -0.0541
 4660TIP3    H135471   6.688   3.360  13.217  0.0367  0.8237  0.3374
 4660TIP3    H235472   6.797   3.419  13.304 -0.8795  0.6503  1.6459
 4661TIP3   OH235473   0.079   5.634   2.168  0.6884  0.0077 -0.3486
 4661TIP3    H135474   0.078   5.554   2.221 -0.3456 -0.5027 -1.1073
 4661TIP3    H235475   0.163   5.632   2.123  0.6161 -0.7351 -0.4644
 4662TIP3   OH235476   3.000   3.044  14.230 -0.3435 -0.2674 -0.4490
 4662TIP3    H135477   2.971   3.002  14.149  1.4049 -0.3490 -1.0894
 4662TIP3    H235478   3.094   3.057  14.217 -0.5258  2.5087  0.3057
 4663TIP3   OH235479   0.038   3.836  12.422 -0.0125 -0.6863 -0.4662
 4663TIP3    H135480   0.082   3.920  12.405 -0.5836 -0.3097 -0.1233
 4663TIP3    H235481  -0.055   3.854  12.408 -0.1616 -1.2116 -0.1891
 4664TIP3   OH235482   5.524   1.785  13.389 -0.5480 -0.0187 -0.4145
 4664TIP3    H135483   5.554   1.717  13.328 -0.5139  0.1867 -0.6290
 4664TIP3    H235484   5.556   1.757  13.475 -0.6689 -0.3535 -0.4781
 4665TIP3   OH235485   4.600   4.986  12.038 -0.4391  0.1390 -0.4528
 4665TIP3    H135486   4.517   5.007  12.081  0.2598 -0.7522  1.4702
 4665TIP3    H235487   4.589   4.898  12.004 -0.5334  0.3179 -0.8911
 4666TIP3   OH235488   0.657   3.899   3.394 -0.1995  0.1360  0.0583
 4666TIP3    H135489   0.670   3.896   3.489  0.8377 -0.7062 -0.0986
 4666TIP3    H235490   0.600   3.975   3.380  2.8649  2.8457  0.9955
 4667TIP3   OH235491   3.953   2.870   2.895  0.3120  0.3011 -0.4962
 4667TIP3    H135492   4.012   2.802   2.862  0.9183  0.7318 -0.3336
 4667TIP3    H235493   3.979   2.882   2.987 -1.7222 -1.2756  0.3643
 4668TIP3   OH235494   4.920   0.620  14.368 -0.8224  0.2873 -0.3304
 4668TIP3    H135495   4.931   0.661  14.282 -0.4344 -0.9544 -0.9080
 4668TIP3    H235496   4.879   0.535  14.349  0.9574 -0.8222  0.4831
 4669TIP3   OH235497   4.107   4.463  13.836  0.3017 -0.0275 -0.2616
 4669TIP3    H135498   4.190   4.469  13.882 -0.3121 -0.8488  0.9809
 4669TIP3    H235499   4.132   4.445  13.745  1.5123  1.3686 -0.2515
 4670TIP3   OH235500   0.678   6.118   5.602  0.0802  0.3901 -0.4909
 4670TIP3    H135501   0.662   6.047   5.665 -1.3864  0.1734 -1.0824
 4670TIP3    H235502   0.771   6.138   5.613  0.1835 -0.6082  0.7405
 4671TIP3   OH235503   3.352   3.382  14.056  0.2401  0.2991  0.1571
 4671TIP3    H135504   3.406   3.307  14.032 -0.2637  0.2744 -0.9714
 4671TIP3    H235505   3.412   3.456  14.057  0.3367  0.2577 -1.0108
 4672TIP3   OH235506   5.093   6.531   0.788  0.2660  0.0654  0.0952
 4672TIP3    H135507   5.006   6.559   0.757 -0.4306 -1.3047  0.7426
 4672TIP3    H235508   5.080   6.442   0.821  1.4540  0.6047  2.2148
 4673TIP3   OH235509   4.076   1.359  10.897  0.1745 -1.0690  0.1879
 4673TIP3    H135510   4.040   1.303  10.966 -0.5740  1.1804  1.7530
 4673TIP3    H235511   4.165   1.377  10.925 -0.3754  0.4864  1.0780
 4674TIP3   OH235512   3.151   2.412   2.186 -0.4284 -0.2122 -0.4704
 4674TIP3    H135513   3.136   2.440   2.096 -0.8964  0.2450 -0.2582
 4674TIP3    H235514   3.064   2.399   2.222 -0.2302 -2.6239 -0.7415
 4675TIP3   OH235515   1.395   1.314  13.505 -0.5769  0.3332  0.3215
 4675TIP3    H135516   1.391   1.376  13.432  0.7265 -0.6764 -0.6749
 4675TIP3    H235517   1.352   1.235  13.471 -0.7174  0.1367  0.9506
 4676TIP3   OH235518   1.578   0.904  14.665  0.3731  0.2999 -0.0457
 4676TIP3    H135519   1.491   0.924  14.632  0.8538  0.7437 -1.0677
 4676TIP3    H235520   1.574   0.926  14.758 -0.7371 -0.1424  0.0231
 4677TIP3   OH235521   6.397   6.554  12.959 -0.4002  0.4002 -0.4481
 4677TIP3    H135522   6.431   6.643  12.955 -0.1358  0.2537 -2.3882
 4677TIP3    H235523   6.427   6.521  13.044  0.3331  1.8259 -0.1253
 4678TIP3   OH235524   4.217   0.995   3.959 -0.1042 -0.0744  0.4845
 4678TIP3    H135525   4.220   1.085   3.929  1.5350  0.4606  2.0534
 4678TIP3    H235526   4.144   0.955   3.912  0.8634  1.2916 -2.3558
 4679TIP3   OH235527   2.292   0.694  14.654  0.2247 -0.3112  0.4575
 4679TIP3    H135528   2.218   0.734  14.699  0.5110  2.9340 -1.6027
 4679TIP3    H235529   2.253   0.652  14.577  0.2251 -1.7989  1.2294
 4680TIP3   OH235530   1.595   0.125  14.084 -0.1227  0.1069  0.0382
 4680TIP3    H135531   1.634   0.091  14.165 -1.1534 -0.1673  0.4229
 4680TIP3    H235532   1.671   0.141  14.026  0.5174 -1.0915  0.5144
 4681TIP3   OH235533   2.901   6.171   5.255 -0.5456  0.1699 -0.0015
 4681TIP3    H135534   2.832   6.235   5.240  0.3080  1.1027 -0.0595
 4681TIP3    H235535   2.877   6.128   5.338 -0.6335  1.2460  0.5470
 4682TIP3   OH235536   0.566   1.725  14.073 -0.1666 -0.8474 -0.1503
 4682TIP3    H135537   0.563   1.652  14.135 -0.4864 -1.2044 -0.5790
 4682TIP3    H235538   0.548   1.684  13.988 -0.3379 -0.2675 -0.3932
 4683TIP3   OH235539   1.556   5.676  14.277  0.2009  0.2622 -0.2621
 4683TIP3    H135540   1.484   5.623  14.309 -1.8170  2.3893 -1.0123
 4683TIP3    H235541   1.554   5.663  14.182 -0.1785  1.4429 -0.4322
 4684TIP3   OH235542   4.868   0.411   0.505  0.4310 -0.1624  0.1047
 4684TIP3    H135543   4.803   0.482   0.497  1.5489  0.7093 -1.8856
 4684TIP3    H235544   4.859   0.382   0.596  0.2029  2.8357  1.1795
 4685TIP3   OH235545   2.125   5.485  10.212  0.1893 -0.5124  0.0759
 4685TIP3    H135546   2.144   5.578  10.197  0.9209 -0.6170  0.3163
 4685TIP3    H235547   2.047   5.468  10.160  0.8438 -0.0943 -1.0714
 4686TIP3   OH235548   4.137   3.067  14.138 -0.0930  0.4068 -0.1606
 4686TIP3    H135549   4.225   3.048  14.170  0.1940  0.8198 -0.6870
 4686TIP3    H235550   4.151   3.127  14.064 -0.8682  1.1486  0.2868
 4687TIP3   OH235551   2.625   0.384  15.087  0.6981 -0.2815  0.6359
 4687TIP3    H135552   2.609   0.463  15.137  0.6153 -0.6354  1.1713
 4687TIP3    H235553   2.720   0.382  15.075  0.5042  2.0908 -2.9923
 4688TIP3   OH235554   5.746   4.615  13.773 -0.1046  0.0704  0.0257
 4688TIP3    H135555   5.712   4.695  13.734  2.1001  0.0315 -2.2626
 4688TIP3    H235556   5.817   4.588  13.714  1.3372 -1.8289  2.4463
 4689TIP3   OH235557   0.095   3.218  15.033  0.3870  0.4449  0.3914
 4689TIP3    H135558   0.126   3.281  15.099  0.6326  0.9329 -0.1849
 4689TIP3    H235559   0.077   3.139  15.083 -0.9271  1.2741  1.2992
 4690TIP3   OH235560   0.425   5.301  14.177  0.0877  0.0050  0.4763
 4690TIP3    H135561   0.518   5.317  14.164 -0.1716  1.6296  0.3117
 4690TIP3    H235562   0.385   5.388  14.168 -1.2845 -0.4248  1.9387
 4691TIP3   OH235563   3.440   1.896  11.618 -0.0323 -0.4053 -0.4122
 4691TIP3    H135564   3.431   1.941  11.702 -1.0074  0.3680 -0.9153
 4691TIP3    H235565   3.356   1.851  11.605 -0.2497  0.2536 -1.4024
 4692TIP3   OH235566   0.797   1.611  12.127  0.0463 -0.2839  0.0985
 4692TIP3    H135567   0.841   1.670  12.187 -0.1397  0.4797 -0.5006
 4692TIP3    H235568   0.855   1.534  12.122  1.5653  0.8727 -1.0164
 4693TIP3   OH235569   0.366   4.191  16.763 -0.0723  0.1299 -0.4169
 4693TIP3    H135570   0.369   4.216  16.856 -0.9513  0.4465 -0.4718
 4693TIP3    H235571   0.418   4.110  16.759  0.5145  0.4637  0.2328
 4694TIP3   OH235572   0.478   2.057   2.024  0.0378 -0.1873 -0.5683
 4694TIP3    H135573   0.560   2.067   2.072  0.4970 -0.9228 -1.1814
 4694TIP3    H235574   0.497   1.990   1.958 -0.2736  1.4546 -2.4188
 4695TIP3   OH235575   1.846   3.893   4.705  0.4274 -0.7907 -0.3618
 4695TIP3    H135576   1.877   3.974   4.745 -0.6627 -0.0290 -1.0232
 4695TIP3    H235577   1.752   3.891   4.724 -0.0128 -0.6875 -2.3678
 4696TIP3   OH235578   2.359   4.200   2.270  0.4312 -0.1028  0.6477
 4696TIP3    H135579   2.334   4.108   2.261 -0.5387  0.1984  0.1239
 4696TIP3    H235580   2.302   4.246   2.208  0.1156  0.9846  1.7166
 4697TIP3   OH235581   0.766   5.771  15.234  0.1194 -1.0107  0.5597
 4697TIP3    H135582   0.760   5.737  15.145 -0.5801  0.3776  0.0605
 4697TIP3    H235583   0.679   5.756  15.271 -0.8200  1.8012 -0.2876
 4698TIP3   OH235584   5.983   3.137   5.140  0.1550  0.0091 -0.1731
 4698TIP3    H135585   6.035   3.218   5.146  1.7785 -1.0623  1.2055
 4698TIP3    H235586   5.961   3.116   5.231 -1.5867 -0.3072 -0.6364
 4699TIP3   OH235587   6.367   0.690   5.559  0.3080  0.3094 -0.7755
 4699TIP3    H135588   6.395   0.683   5.468  0.2590 -0.7457 -0.7236
 4699TIP3    H235589   6.418   0.624   5.606 -0.1851  0.3406 -0.1678
 4700TIP3   OH235590   4.914   1.677   4.533 -0.0028 -0.3067  0.4667
 4700TIP3    H135591   4.942   1.646   4.447  0.2509 -0.6339  0.6639
 4700TIP3    H235592   4.968   1.628   4.595  0.0406  0.1584  0.8036
 4701TIP3   OH235593   1.982   1.255  16.296 -0.8795  0.5102  0.0277
 4701TIP3    H135594   2.066   1.300  16.306 -1.1648  0.7595  1.6794
 4701TIP3    H235595   2.001   1.163  16.316 -0.8458  0.4240 -0.4030
 4702TIP3   OH235596   6.814   1.202  13.667  0.4513  0.0522 -0.1021
 4702TIP3    H135597   6.720   1.211  13.650  0.5181  0.5315 -0.2221
 4702TIP3    H235598   6.855   1.257  13.601  0.8629 -0.9271 -0.6797
 4703TIP3   OH235599   5.361   1.282  15.016  0.2511  0.4251  0.0451
 4703TIP3    H135600   5.436   1.312  14.964  0.5211 -0.9592 -0.3940
 4703TIP3    H235601   5.400   1.236  15.090 -0.1598  0.3323  0.2066
 4704TIP3   OH235602   5.123   1.629  12.086 -0.4289 -0.7412  0.0950
 4704TIP3    H135603   5.066   1.612  12.011 -0.3803 -2.3385  0.3991
 4704TIP3    H235604   5.212   1.611  12.054 -0.4409 -1.8158  0.6175
 4705TIP3   OH235605   2.699   3.463  14.867  0.2049  0.1743  0.1524
 4705TIP3    H135606   2.786   3.429  14.890  0.2094 -0.2723 -0.4923
 4705TIP3    H235607   2.715   3.528  14.799  0.1387  1.0463  0.9489
 4706TIP3   OH235608   6.076   4.290   0.838 -0.1674 -0.0026  0.0828
 4706TIP3    H135609   6.081   4.265   0.930 -2.0385  0.0075  0.2304
 4706TIP3    H235610   6.054   4.208   0.792  3.1553 -0.5607 -0.7489
 4707TIP3   OH235611   3.637   4.548   4.216 -0.2795 -0.2334  0.5892
 4707TIP3    H135612   3.614   4.640   4.201  2.1947  0.2179 -0.8739
 4707TIP3    H235613   3.668   4.516   4.132  0.8227 -1.8387  1.5369
 4708TIP3   OH235614   1.638   1.752  16.120 -0.1071  0.1539 -0.2425
 4708TIP3    H135615   1.594   1.831  16.090 -0.6867 -0.5147 -1.2289
 4708TIP3    H235616   1.571   1.705  16.171 -0.4247 -0.6504 -1.3698
 4709TIP3   OH235617   5.478   5.842  15.741 -0.1664 -0.8871 -0.2970
 4709TIP3    H135618   5.517   5.926  15.765  0.2286 -1.0503 -0.3650
 4709TIP3    H235619   5.431   5.814  15.820 -0.1950 -0.6652 -0.2329
 4710TIP3   OH235620   3.344   0.551  11.006 -0.2858  0.2204  0.3015
 4710TIP3    H135621   3.373   0.601  10.930 -1.0996  0.7809  0.3530
 4710TIP3    H235622   3.359   0.459  10.982 -0.9908  0.3614 -0.7275
 4711TIP3   OH235623   0.545   0.894   4.869 -0.2309  0.4951 -0.0952
 4711TIP3    H135624   0.629   0.892   4.823  0.0546  0.4339  0.4170
 4711TIP3    H235625   0.483   0.930   4.805  0.4509  1.7736 -0.0707
 4712TIP3   OH235626   3.662   2.389   2.903 -0.1776 -0.6397 -0.4106
 4712TIP3    H135627   3.628   2.467   2.861  1.5034 -0.1064 -0.8610
 4712TIP3    H235628   3.598   2.369   2.972 -0.1985  1.6773  0.3291
 4713TIP3   OH235629   1.144   2.215  16.230  0.6295 -0.1015  0.7294
 4713TIP3    H135630   1.051   2.238  16.227  0.3394 -0.7544  2.8675
 4713TIP3    H235631   1.189   2.299  16.246  0.3227  0.0761  0.6635
 4714TIP3   OH235632   5.075   0.408   2.439  0.2895 -0.0025 -0.0172
 4714TIP3    H135633   5.053   0.376   2.527 -0.5610 -1.4982 -0.7252
 4714TIP3    H235634   5.161   0.370   2.421 -0.1174 -0.8052 -0.3234
 4715TIP3   OH235635   2.136   4.030  13.916 -0.0057 -0.3125  0.1859
 4715TIP3    H135636   2.114   3.951  13.966 -0.2297 -0.6603 -0.4465
 4715TIP3    H235637   2.083   4.099  13.956  1.7805  0.0193  2.1504
 4716TIP3   OH235638   6.321   2.781   5.282  0.0427  0.5073 -1.1718
 4716TIP3    H135639   6.319   2.771   5.187  4.0239 -0.8012 -1.2992
 4716TIP3    H235640   6.339   2.874   5.296  0.8146  0.4585 -1.7946
 4717TIP3   OH235641   5.329   2.535   7.000 -0.1846 -0.8207 -0.3366
 4717TIP3    H135642   5.318   2.599   7.070  0.2384 -0.4994 -0.5556
 4717TIP3    H235643   5.326   2.588   6.920  0.2735 -1.0619 -0.5137
 4718TIP3   OH235644   4.567   3.167  13.052  0.4522  0.3069  0.1076
 4718TIP3    H135645   4.489   3.124  13.087  0.6114  0.0038  0.0892
 4718TIP3    H235646   4.601   3.107  12.986  1.1556  0.0645  0.6778
 4719TIP3   OH235647   6.212   5.148   6.275  0.2233 -0.1269  0.2152
 4719TIP3    H135648   6.167   5.104   6.347  0.8279 -0.6040  0.3128
 4719TIP3    H235649   6.152   5.217   6.247 -0.3044 -0.3720  0.7307
 4720TIP3   OH235650   1.422   4.964  11.192  0.5021 -0.5956  0.5605
 4720TIP3    H135651   1.381   5.036  11.241 -0.0578 -0.1695 -0.5117
 4720TIP3    H235652   1.476   5.007  11.126  0.9632 -1.1703  0.5496
 4721TIP3   OH235653   3.421   1.945  14.581 -0.3576  0.2867 -0.0560
 4721TIP3    H135654   3.452   2.001  14.652 -0.9657  1.3857 -0.6444
 4721TIP3    H235655   3.477   1.867  14.586 -0.2367  0.4473  1.4663
 4722TIP3   OH235656   3.306   3.457   5.537 -0.0758  0.0429 -0.5239
 4722TIP3    H135657   3.335   3.518   5.605 -1.3505 -0.2198  0.2918
 4722TIP3    H235658   3.264   3.513   5.471 -0.1909  0.1666 -0.3482
 4723TIP3   OH235659   0.136   5.620   2.935  0.2980 -0.6979 -0.5084
 4723TIP3    H135660   0.184   5.626   2.852 -1.3592  1.2755 -1.4212
 4723TIP3    H235661   0.152   5.703   2.978  0.1653 -1.2409  0.6216
 4724TIP3   OH235662   6.024   1.077   0.004 -0.1899 -0.1112 -0.3808
 4724TIP3    H135663   6.113   1.111  -0.005 -0.1535 -0.5104 -1.7741
 4724TIP3    H235664   6.029   1.018   0.080  0.8836 -0.5660 -0.7807
 4725TIP3   OH235665   1.473   3.527  16.659  0.0476  0.0299  0.5353
 4725TIP3    H135666   1.517   3.522  16.744  0.9165 -1.5230  0.0308
 4725TIP3    H235667   1.391   3.479  16.672  0.1982 -0.2409  0.4957
 4726TIP3   OH235668   0.533   4.828   5.648 -0.2610  0.1230 -0.7692
 4726TIP3    H135669   0.506   4.808   5.738 -0.4180  0.1483 -0.8105
 4726TIP3    H235670   0.592   4.756   5.625  1.6697  1.3263  0.1719
 4727TIP3   OH235671   3.665   0.104  16.820  0.3210 -0.3307  0.1085
 4727TIP3    H135672   3.597   0.055  16.868 -1.5699  1.2063 -0.8703
 4727TIP3    H235673   3.654   0.077  16.729  0.2264  0.8135 -0.2283
 4728TIP3   OH235674   5.524   4.437   3.515  0.1496 -0.3314 -0.2109
 4728TIP3    H135675   5.517   4.532   3.523 -0.5306 -0.4611  0.8192
 4728TIP3    H235676   5.580   4.411   3.588  2.0543 -0.5408 -1.6519
 4729TIP3   OH235677   0.390   3.192   5.765 -0.1362 -0.0035  0.3428
 4729TIP3    H135678   0.319   3.204   5.827 -0.2242 -0.0348  0.2488
 4729TIP3    H235679   0.466   3.170   5.819 -0.0309  0.7272  0.5021
 4730TIP3   OH235680   0.239   6.776   2.626 -0.5368  0.4444 -0.1369
 4730TIP3    H135681   0.198   6.860   2.605  0.7154  0.5779 -2.3309
 4730TIP3    H235682   0.176   6.711   2.596 -0.0606  0.6522 -1.6974
 4731TIP3   OH235683   3.182   0.017  12.856 -0.3218 -0.3725  0.8092
 4731TIP3    H135684   3.183   0.107  12.824  1.3555 -0.3017  0.9600
 4731TIP3    H235685   3.223   0.022  12.942 -0.7296 -1.2138  1.0682
 4732TIP3   OH235686   0.533   0.830   3.093  0.3923 -0.3187 -0.2739
 4732TIP3    H135687   0.620   0.829   3.134  0.5666 -0.1682 -0.6356
 4732TIP3    H235688   0.482   0.890   3.148  0.1002 -1.4685  0.7562
 4733TIP3   OH235689   4.242   5.835  16.897 -0.2649 -0.1953 -0.3427
 4733TIP3    H135690   4.311   5.793  16.845  2.1894  0.9673  1.7329
 4733TIP3    H235691   4.282   5.914  16.931 -1.6629 -0.7942  3.1787
 4734TIP3   OH235692   0.472   1.532  11.896  0.3370  0.2899  0.4344
 4734TIP3    H135693   0.546   1.551  11.838 -0.0850 -0.4078 -0.3623
 4734TIP3    H235694   0.457   1.614  11.943 -0.3489  1.4257 -1.6323
 4735TIP3   OH235695   2.581   2.496  16.921 -0.2832 -0.2640 -0.2813
 4735TIP3    H135696   2.570   2.577  16.871 -1.0717  0.5405  1.1098
 4735TIP3    H235697   2.520   2.434  16.880 -1.1808  0.4849 -0.1128
 4736TIP3   OH235698   5.495   4.808   0.039  0.2809  0.0285 -0.4081
 4736TIP3    H135699   5.406   4.798   0.073  0.7359 -1.6191  0.4003
 4736TIP3    H235700   5.494   4.893  -0.004 -1.7046  0.0165 -0.5012
 4737TIP3   OH235701   2.026   1.844  10.684  0.9606 -0.3204 -0.1472
 4737TIP3    H135702   1.993   1.926  10.722  1.1315 -0.5994  0.5984
 4737TIP3    H235703   2.111   1.867  10.647  0.6974 -0.0011 -0.5780
 4738TIP3   OH235704   1.295   5.750   4.094 -0.0522 -0.0845  0.0954
 4738TIP3    H135705   1.204   5.759   4.121 -0.2430 -0.7450 -0.3020
 4738TIP3    H235706   1.294   5.681   4.028  0.8142 -0.4708  0.4674
 4739TIP3   OH235707   3.720   2.261  15.587 -0.1166  0.4241  0.0128
 4739TIP3    H135708   3.793   2.224  15.636 -0.0931  0.2251 -0.1733
 4739TIP3    H235709   3.736   2.356  15.587 -0.4097  0.4819  0.8741
 4740TIP3   OH235710   5.510   0.052   3.897  0.3052  0.6763  0.0259
 4740TIP3    H135711   5.510  -0.043   3.912  0.0749  0.8757  1.4104
 4740TIP3    H235712   5.566   0.063   3.820 -0.6542 -0.6757 -0.9132
 4741TIP3   OH235713   3.196   1.088  15.966  0.0711 -0.0724  0.0253
 4741TIP3    H135714   3.260   1.146  16.007  0.0664 -0.2196  0.2452
 4741TIP3    H235715   3.119   1.094  16.023  0.5318 -1.3371  0.8275
 4742TIP3   OH235716   2.778   4.444  12.178  0.4785  0.2246 -0.1393
 4742TIP3    H135717   2.836   4.472  12.250  0.0951  0.2701  0.1542
 4742TIP3    H235718   2.838   4.417  12.108  0.8588  0.8022 -0.0461
 4743TIP3   OH235719   3.142   2.913  11.866 -0.4167  0.5586  0.4406
 4743TIP3    H135720   3.173   2.889  11.779  0.1464  2.2317  0.1461
 4743TIP3    H235721   3.047   2.920  11.856 -0.3594  0.7008 -0.0396
 4744TIP3   OH235722   0.495   2.915  14.014 -0.0192  0.5267  0.4940
 4744TIP3    H135723   0.549   2.857  14.068 -1.6118 -1.0972  0.4312
 4744TIP3    H235724   0.456   2.977  14.077 -0.9580 -0.6295  1.0833
 4745TIP3   OH235725   5.145   6.134  12.569 -0.1002  0.3572  0.0701
 4745TIP3    H135726   5.231   6.092  12.571 -0.7208 -1.0012 -0.5333
 4745TIP3    H235727   5.130   6.152  12.476  0.9002  3.6268  0.4295
 4746TIP3   OH235728   4.433   4.202   0.788  0.2641  0.6463  0.5360
 4746TIP3    H135729   4.406   4.195   0.880 -1.7641 -0.1700 -0.0759
 4746TIP3    H235730   4.492   4.127   0.776 -2.2807 -1.4590  0.3248
 4747TIP3   OH235731   4.089   3.517  13.722  0.2414  0.7547 -0.2272
 4747TIP3    H135732   4.099   3.612  13.707  0.5487  0.7061 -0.3518
 4747TIP3    H235733   4.084   3.480  13.635  0.3458  0.6343 -0.1822
 4748TIP3   OH235734   4.888   3.570   1.001  0.2085 -0.7881 -0.1661
 4748TIP3    H135735   4.898   3.575   0.906 -0.7312 -1.6604 -0.3275
 4748TIP3    H235736   4.804   3.525   1.014 -0.4889  0.7792  1.0824
 4749TIP3   OH235737   5.022   3.669   2.111  0.2881  0.3773 -0.6594
 4749TIP3    H135738   5.031   3.580   2.144  1.7223 -0.4012 -2.9689
 4749TIP3    H235739   4.970   3.660   2.031 -3.2659  2.2341  1.1448
 4750TIP3   OH235740   3.270   5.378   6.286 -0.3845 -0.1869  0.1479
 4750TIP3    H135741   3.179   5.352   6.297 -0.0453 -1.1081  0.8837
 4750TIP3    H235742   3.319   5.296   6.283  0.5048  0.3031  0.5690
 4751TIP3   OH235743   6.624   5.768  11.611  0.0496  0.2844  0.4568
 4751TIP3    H135744   6.699   5.788  11.556 -0.4789  0.2751 -0.2720
 4751TIP3    H235745   6.575   5.702  11.563 -1.2614  1.4075  0.1793
 4752TIP3   OH235746   2.244   1.092  13.072  0.2618 -0.1283  0.1129
 4752TIP3    H135747   2.204   1.005  13.077  1.3641 -0.5910  1.7979
 4752TIP3    H235748   2.171   1.153  13.079 -0.3620 -0.9433  0.9307
 4753TIP3   OH235749   1.699   1.482  12.942  0.2582 -0.0310  0.4823
 4753TIP3    H135750   1.709   1.554  12.879  1.0200 -0.1072  0.5114
 4753TIP3    H235751   1.777   1.487  12.996  0.5892 -1.2274  0.1326
 4754TIP3   OH235752   3.441   1.067  16.674  0.1734  0.1207  0.4089
 4754TIP3    H135753   3.355   1.061  16.632 -0.4161 -0.4678  1.6667
 4754TIP3    H235754   3.449   1.160  16.697  0.5018  0.4539 -0.9464
 4755TIP3   OH235755   0.683   4.459  12.001 -0.2986 -0.0559  0.3113
 4755TIP3    H135756   0.765   4.502  11.978 -1.1979  1.0994 -0.8616
 4755TIP3    H235757   0.626   4.475  11.927 -1.6297 -0.7656  1.1460
 4756TIP3   OH235758   3.867   4.006   1.292 -0.0485  0.7507 -0.5907
 4756TIP3    H135759   3.894   3.996   1.383  1.4894  2.4636 -0.8096
 4756TIP3    H235760   3.777   4.035   1.297  0.8065  3.5038  0.5551
 4757TIP3   OH235761   5.161   0.454  15.303 -0.6477 -0.5701  0.0271
 4757TIP3    H135762   5.179   0.498  15.386 -0.9380  1.9372 -1.1638
 4757TIP3    H235763   5.090   0.392  15.324 -0.8490  0.1298  1.5943
 4758TIP3   OH235764   3.452   5.397  16.417  0.1065 -0.4313  0.1439
 4758TIP3    H135765   3.504   5.472  16.444  0.0560 -1.1128  2.3004
 4758TIP3    H235766   3.365   5.434  16.400  0.9274  0.5555 -2.6109
 4759TIP3   OH235767   3.731   2.570  16.767  0.5108 -0.3124 -0.2005
 4759TIP3    H135768   3.753   2.522  16.687 -1.7332 -1.1338 -0.3897
 4759TIP3    H235769   3.747   2.508  16.838  1.9400  0.2239 -0.0174
 4760TIP3   OH235770   6.776   5.398  15.967  0.0347 -0.2887  0.7083
 4760TIP3    H135771   6.823   5.481  15.960 -0.8285  0.4316  2.7067
 4760TIP3    H235772   6.722   5.395  15.888  1.3054  0.2345 -0.2098
 4761TIP3   OH235773   2.488   6.646  11.044 -0.1557  0.2813 -0.7460
 4761TIP3    H135774   2.451   6.689  11.121 -0.6581 -0.3738 -0.6136
 4761TIP3    H235775   2.474   6.709  10.973  0.6124  1.0314 -0.2517
 4762TIP3   OH235776   6.259   3.274   2.995  0.3421  0.5681  0.6008
 4762TIP3    H135777   6.263   3.199   2.935 -1.8673  1.5114 -0.8576
 4762TIP3    H235778   6.311   3.341   2.953 -1.3603  1.2929 -0.4558
 4763TIP3   OH235779   5.111   6.651  14.595 -0.7034  0.0021 -0.2775
 4763TIP3    H135780   5.190   6.598  14.600 -0.1880  0.8731  1.6291
 4763TIP3    H235781   5.100   6.668  14.501  1.1178 -0.4888 -0.6214
 4764TIP3   OH235782   1.137   4.650  13.425  0.2789  0.1541  0.2995
 4764TIP3    H135783   1.067   4.605  13.377 -1.0072  2.1273  0.2220
 4764TIP3    H235784   1.143   4.603  13.508 -2.7011  1.1675  1.2244
 4765TIP3   OH235785   5.137   1.142  12.787  0.1860  0.0373  0.3930
 4765TIP3    H135786   5.116   1.207  12.721  0.0744  0.7758  1.1426
 4765TIP3    H235787   5.066   1.147  12.851  0.4108 -0.4957  0.6990
 4766TIP3   OH235788   6.190   0.410  11.226 -0.1371 -0.1214 -0.1938
 4766TIP3    H135789   6.263   0.405  11.164 -0.0416  0.0279 -0.0951
 4766TIP3    H235790   6.114   0.429  11.172 -0.1423 -0.4960 -0.3243
 4767TIP3   OH235791   4.283   5.241   3.670 -0.2135 -0.3224 -0.8298
 4767TIP3    H135792   4.344   5.282   3.608  1.6982 -0.1849  1.0140
 4767TIP3    H235793   4.277   5.150   3.642  0.5720 -0.2491 -1.2659
 4768TIP3   OH235794   4.434   5.165  13.986  0.1587  0.6784 -0.0395
 4768TIP3    H135795   4.474   5.241  13.944 -0.8635  0.6995 -1.0201
 4768TIP3    H235796   4.495   5.141  14.056  1.3353  1.3552 -0.7974
 4769TIP3   OH235797   3.206   2.900  11.603  0.2182 -0.2333 -0.2674
 4769TIP3    H135798   3.241   2.981  11.568  2.3817 -1.1188 -0.3138
 4769TIP3    H235799   3.227   2.834  11.537  0.1942 -1.1456  0.6031
 4770TIP3   OH235800   6.341   6.392  10.408  0.8053  0.2133  0.7604
 4770TIP3    H135801   6.404   6.335  10.451  1.1246  0.7944  1.0874
 4770TIP3    H235802   6.331   6.466  10.468  3.0248  2.2353 -1.1247
 4771TIP3   OH235803   6.741   3.427  17.059  0.0772 -0.3040  0.0219
 4771TIP3    H135804   6.732   3.388  16.972 -0.4043 -0.4151  0.1203
 4771TIP3    H235805   6.831   3.461  17.061 -0.1675  0.4270 -0.8201
 4772TIP3   OH235806   4.246   2.716   4.186  0.3292  0.5814  0.0873
 4772TIP3    H135807   4.174   2.678   4.136 -0.3761 -0.7278  2.0181
 4772TIP3    H235808   4.219   2.807   4.199 -1.3273 -0.0283  1.2956
 4773TIP3   OH235809   1.305   4.586   1.148 -0.2563 -0.5362  0.2236
 4773TIP3    H135810   1.319   4.675   1.117 -2.3001 -0.2812 -0.0774
 4773TIP3    H235811   1.308   4.594   1.244 -2.6954  0.3528  0.3024
 4774TIP3   OH235812   0.056   3.652  16.447 -0.2744 -0.5019  0.3263
 4774TIP3    H135813   0.088   3.743  16.451 -1.1896 -0.1744  0.3700
 4774TIP3    H235814   0.053   3.624  16.539 -0.4539 -0.4088  0.3497
 4775TIP3   OH235815   4.606   1.181   5.552 -0.4479  0.0132  0.1515
 4775TIP3    H135816   4.590   1.090   5.528 -2.1805  0.2774  0.1742
 4775TIP3    H235817   4.581   1.186   5.644 -1.0031  0.6529 -0.0272
 4776TIP3   OH235818   3.409   1.196  11.723  0.0411  0.4222 -0.2627
 4776TIP3    H135819   3.470   1.154  11.663  0.0086  0.5750 -0.4018
 4776TIP3    H235820   3.375   1.271  11.675  0.3843  0.8302  0.1268
 4777TIP3   OH235821   1.031   2.171   4.958  0.2910  0.3243 -0.0280
 4777TIP3    H135822   1.040   2.079   4.985 -0.3956  0.1689 -0.2974
 4777TIP3    H235823   1.111   2.190   4.910 -0.5332 -0.8434 -1.9714
 4778TIP3   OH235824   3.947   2.411  12.137 -0.0134 -0.2610 -0.0591
 4778TIP3    H135825   3.929   2.329  12.092  0.3126  0.0278 -0.7403
 4778TIP3    H235826   3.867   2.463  12.125 -0.4939 -0.7372  0.9923
 4779TIP3   OH235827   5.451   0.864  13.013 -0.7639  0.1696 -0.1163
 4779TIP3    H135828   5.386   0.893  12.949  0.2240 -1.1895 -1.8061
 4779TIP3    H235829   5.520   0.824  12.961  2.0095  2.4465  1.5061
 4780TIP3   OH235830   2.332   1.299   0.661 -0.5414 -0.1793  0.2133
 4780TIP3    H135831   2.353   1.229   0.722  0.7731 -0.7088 -0.7970
 4780TIP3    H235832   2.396   1.368   0.680 -0.8645  0.1257  0.2018
 4781TIP3   OH235833   4.800   3.692  13.424 -0.1968 -0.4367 -0.4856
 4781TIP3    H135834   4.798   3.621  13.360  0.5504  0.5549 -1.6604
 4781TIP3    H235835   4.892   3.698  13.450 -0.2609  0.0736 -0.3658
 4782TIP3   OH235836   4.051   0.561   0.288  0.3071 -0.3342 -0.1973
 4782TIP3    H135837   3.976   0.602   0.333  0.0357 -0.1899 -0.7709
 4782TIP3    H235838   4.107   0.530   0.359 -0.7610 -1.3107  0.2666
 4783TIP3   OH235839   4.721   3.199   3.459 -0.2283  0.5430  0.2656
 4783TIP3    H135840   4.741   3.157   3.542 -0.8804 -1.6291 -0.6165
 4783TIP3    H235841   4.805   3.234   3.428  0.8095 -1.9565  0.0848
 4784TIP3   OH235842   0.507   1.481   4.363 -0.7480 -0.2526  0.1015
 4784TIP3    H135843   0.557   1.494   4.283 -1.1640 -1.7996 -0.4518
 4784TIP3    H235844   0.565   1.429   4.419 -1.1002 -0.6356  0.1160
 4785TIP3   OH235845   2.066   6.700   0.704 -0.0270  0.3577  0.0647
 4785TIP3    H135846   2.117   6.776   0.733  1.4268 -1.2644  2.0325
 4785TIP3    H235847   1.975   6.724   0.723  0.4413  1.4667  1.0395
 4786TIP3   OH235848   4.718   6.442  14.737  0.5019  0.5347 -0.0240
 4786TIP3    H135849   4.696   6.366  14.682 -0.1402  1.9158 -1.7828
 4786TIP3    H235850   4.747   6.509  14.675  0.7859  1.8401  1.4481
 4787TIP3   OH235851   6.645   2.224  16.874  0.1585 -0.0033 -0.8605
 4787TIP3    H135852   6.732   2.203  16.840  0.8504 -0.2771  0.9449
 4787TIP3    H235853   6.619   2.146  16.923  0.0191  0.9855  0.7047
 4788TIP3   OH235854   1.479   3.809  15.668  0.4236  0.2148 -0.2734
 4788TIP3    H135855   1.571   3.831  15.656  0.9007 -0.6647  1.5227
 4788TIP3    H235856   1.479   3.716  15.688 -0.4820  0.8403  3.1996
 4789TIP3   OH235857   6.325   2.828   0.728  0.6972  0.1288  0.1330
 4789TIP3    H135858   6.414   2.860   0.737  0.4678  1.2621 -1.3989
 4789TIP3    H235859   6.332   2.751   0.671  0.7637 -0.1988  0.5758
 4790TIP3   OH235860   1.807   5.323   2.831  0.3074 -0.5898 -0.0214
 4790TIP3    H135861   1.883   5.297   2.780 -0.2357  0.3649 -1.4049
 4790TIP3    H235862   1.781   5.408   2.793  0.0997  0.3730  2.1161
 4791TIP3   OH235863   5.987   1.021  10.206 -0.4385 -0.4840  0.1707
 4791TIP3    H135864   5.926   1.093  10.218 -0.5036 -0.3320 -0.9220
 4791TIP3    H235865   5.962   0.956  10.272 -1.2469 -0.0763  0.2724
 4792TIP3   OH235866   4.143   5.341  12.141  0.4612 -0.6561 -0.2305
 4792TIP3    H135867   4.123   5.429  12.173 -1.0301 -0.8567 -0.5361
 4792TIP3    H235868   4.076   5.285  12.181 -0.0860 -1.2536 -1.8847
 4793TIP3   OH235869   0.833   2.139   2.807 -0.3253 -0.2044 -0.3162
 4793TIP3    H135870   0.849   2.212   2.746 -1.9472  1.0503  0.6662
 4793TIP3    H235871   0.749   2.103   2.779 -0.7108 -0.1126  0.6802
 4794TIP3   OH235872   5.482   3.094   4.432  0.1419 -0.1051 -1.0359
 4794TIP3    H135873   5.488   3.179   4.475 -1.8932 -0.8662  0.9710
 4794TIP3    H235874   5.558   3.045   4.464  0.9257  0.6962 -1.6371
 4795TIP3   OH235875   4.603   6.549  14.964  0.0456 -0.4054 -0.3414
 4795TIP3    H135876   4.643   6.496  15.033  1.0210  1.4071  0.5483
 4795TIP3    H235877   4.625   6.505  14.883 -0.1460 -1.9602  0.4199
 4796TIP3   OH235878   0.009   4.627   1.238  0.2146 -0.0953 -0.4868
 4796TIP3    H135879  -0.035   4.604   1.156  1.2050 -1.2927 -0.7109
 4796TIP3    H235880   0.102   4.628   1.216  0.4389  0.5752  0.4082
 4797TIP3   OH235881   2.967   5.411   1.883  0.6028 -0.1757  0.0380
 4797TIP3    H135882   2.944   5.319   1.897 -2.6750  0.6260  0.6405
 4797TIP3    H235883   3.014   5.411   1.799  1.8646 -2.4935  0.6470
 4798TIP3   OH235884   3.492   1.405   5.497 -0.2177  0.4213 -0.2563
 4798TIP3    H135885   3.476   1.322   5.542  0.3028  0.5782  0.2393
 4798TIP3    H235886   3.408   1.451   5.502 -0.8908 -0.5888 -1.6826
 4799TIP3   OH235887   2.665   6.593  14.934 -0.1830 -0.1898 -0.2508
 4799TIP3    H135888   2.706   6.680  14.939  2.1219 -1.2193  0.0025
 4799TIP3    H235889   2.619   6.584  15.017  2.4851 -0.4999  1.3199
 4800TIP3   OH235890   4.715   1.121   2.199 -0.4015 -0.6604 -0.2323
 4800TIP3    H135891   4.804   1.127   2.162 -0.0880  1.6081  0.7206
 4800TIP3    H235892   4.707   1.030   2.228  0.2628 -1.8856 -3.4694
 4801TIP3   OH235893   1.180   4.098  12.873  0.3179  0.1081  0.0590
 4801TIP3    H135894   1.230   4.026  12.911  0.2493  1.7823  3.8219
 4801TIP3    H235895   1.090   4.080  12.899 -0.0295  0.4390 -0.9080
 4802TIP3   OH235896   3.365   3.537   2.894 -0.4317  0.5204  0.1719
 4802TIP3    H135897   3.432   3.469   2.886 -0.6470  0.3170  0.0820
 4802TIP3    H235898   3.337   3.553   2.804 -0.5957  0.5112  0.2210
 4803TIP3   OH235899   6.624   6.304   1.611  0.2967 -0.4540  1.0511
 4803TIP3    H135900   6.637   6.355   1.530  0.2949 -0.8047  0.8272
 4803TIP3    H235901   6.701   6.322   1.664 -0.0506  0.3816  1.3020
 4804TIP3   OH235902   2.369   1.182   0.057 -0.2253  0.1535  0.4456
 4804TIP3    H135903   2.337   1.199  -0.032 -0.1283 -1.9912 -0.0565
 4804TIP3    H235904   2.461   1.158   0.045 -0.4615 -1.0899  0.9984
 4805TIP3   OH235905   1.368   3.188  14.927  0.5659  0.1888  0.1445
 4805TIP3    H135906   1.339   3.279  14.913  0.8947  0.1794 -0.7147
 4805TIP3    H235907   1.294   3.145  14.968 -0.2846  0.4061 -1.1088
 4806TIP3   OH235908   0.951   5.610   0.471  0.2413  0.4766 -0.1765
 4806TIP3    H135909   1.021   5.656   0.425  0.1040  0.0864 -0.7912
 4806TIP3    H235910   0.875   5.667   0.463 -0.0001  0.0438 -1.1713
 4807TIP3   OH235911   5.777   6.128   0.833  0.4851 -0.3010 -0.1516
 4807TIP3    H135912   5.847   6.156   0.774 -0.0334 -0.1967 -0.7177
 4807TIP3    H235913   5.758   6.037   0.807 -0.3597  0.0359 -0.7510
 4808TIP3   OH235914   2.749   3.330  10.557 -0.0454  0.0575 -0.4916
 4808TIP3    H135915   2.692   3.254  10.565  0.5727 -0.5436 -1.5575
 4808TIP3    H235916   2.779   3.329  10.466 -0.1529  1.6845 -0.5766
 4809TIP3   OH235917   5.504   1.113   1.546 -0.2536  0.0911 -0.2471
 4809TIP3    H135918   5.574   1.115   1.481  1.5516 -3.1565  1.3171
 4809TIP3    H235919   5.545   1.146   1.626 -1.3285  0.5703  0.1252
 4810TIP3   OH235920   0.794   1.556   0.284  0.1152 -0.2558  0.0174
 4810TIP3    H135921   0.753   1.471   0.300 -2.2151  0.8719  0.4865
 4810TIP3    H235922   0.805   1.561   0.189 -1.7032 -0.2778 -0.2291
 4811TIP3   OH235923   6.656   2.631  14.514  0.8534 -0.0301  0.4005
 4811TIP3    H135924   6.712   2.696  14.557  1.6104 -0.9923  0.8986
 4811TIP3    H235925   6.594   2.604  14.582  0.1074  0.6233  0.0073
 4812TIP3   OH235926   1.323   4.597  14.111  0.1632  0.2140  0.0501
 4812TIP3    H135927   1.389   4.541  14.070 -0.3724 -1.7372  1.6900
 4812TIP3    H235928   1.259   4.536  14.146 -2.4321  2.0233 -1.2055
 4813TIP3   OH235929   2.886   1.293  12.631  0.3520  0.5706  0.2315
 4813TIP3    H135930   2.936   1.213  12.645 -0.0889  0.0005 -1.2094
 4813TIP3    H235931   2.868   1.293  12.537 -0.2583  2.0116  0.3251
 4814TIP3   OH235932   1.562   0.229   0.647 -0.5092  0.4862  0.2786
 4814TIP3    H135933   1.580   0.150   0.697  0.4617  0.3052 -0.3133
 4814TIP3    H235934   1.502   0.201   0.577 -0.5899  0.3906  0.3873
 4815TIP3   OH235935   1.686   5.753   1.893 -0.7294 -0.5940  0.4972
 4815TIP3    H135936   1.666   5.788   1.980  2.9160 -0.2270  1.3670
 4815TIP3    H235937   1.683   5.658   1.904 -0.3252 -0.5480  1.0261
 4816TIP3   OH235938   5.221   5.377  15.075  0.5699  0.0182 -0.6306
 4816TIP3    H135939   5.236   5.444  15.141  0.2249  0.6936 -1.2177
 4816TIP3    H235940   5.212   5.295  15.124  0.6166  0.4603  0.1208
 4817TIP3   OH235941   0.689   1.993  17.003 -0.3946  0.1565 -0.0706
 4817TIP3    H135942   0.767   1.941  16.983  0.2823  1.3678 -0.6581
 4817TIP3    H235943   0.647   2.008  16.918  0.2483  1.8366 -0.1109
 4818TIP3   OH235944   0.968   4.521  11.610  0.1732  0.1320 -0.4196
 4818TIP3    H135945   0.959   4.615  11.626 -0.4294  0.2931 -1.6659
 4818TIP3    H235946   0.942   4.481  11.693 -1.2173  1.0067 -0.4136
 4819TIP3   OH235947   0.373   3.245  12.516 -0.2221 -0.7008 -0.4415
 4819TIP3    H135948   0.300   3.300  12.544 -0.1564 -0.8238 -0.0141
 4819TIP3    H235949   0.332   3.174  12.466 -0.4054 -0.8038 -0.1503
 4820TIP3   OH235950   1.839   0.732  11.356  0.0661  0.4460 -0.2892
 4820TIP3    H135951   1.831   0.688  11.271 -2.5416 -2.6733  1.3747
 4820TIP3    H235952   1.770   0.798  11.356  0.0275  0.4065 -0.5566
 4821TIP3   OH235953   3.469   2.074  12.130 -0.3907 -0.0768 -0.3933
 4821TIP3    H135954   3.456   2.005  12.194  0.7059  1.0276  1.1066
 4821TIP3    H235955   3.423   2.150  12.167 -1.0092  0.1940 -1.6676
 4822TIP3   OH235956   3.881   4.737   1.547  0.2391  0.1692 -0.1705
 4822TIP3    H135957   3.924   4.676   1.606 -1.5251  0.5562  1.6138
 4822TIP3    H235958   3.919   4.822   1.568 -0.3174  0.2917  0.3877
 4823TIP3   OH235959   0.252   1.036   2.799  0.1857  0.3266 -0.5915
 4823TIP3    H135960   0.233   0.943   2.809  0.3674  0.2354 -1.0943
 4823TIP3    H235961   0.347   1.041   2.796  0.1719  0.3263 -2.3265
 4824TIP3   OH235962   5.410   2.564   3.151 -0.2496  0.0707  0.1148
 4824TIP3    H135963   5.380   2.602   3.234  0.2110  1.1142 -0.1784
 4824TIP3    H235964   5.468   2.631   3.113 -1.7665  0.3686 -1.8584
 4825TIP3   OH235965   0.275   4.756  16.080  0.1786  0.4798 -0.1463
 4825TIP3    H135966   0.180   4.759  16.088  0.0253 -2.1583 -0.2026
 4825TIP3    H235967   0.305   4.742  16.170  0.4365  0.0196 -0.3072
 4826TIP3   OH235968   2.385   4.572  13.678  0.1445 -0.3215 -0.5435
 4826TIP3    H135969   2.418   4.654  13.642 -0.7452  0.3583  0.1150
 4826TIP3    H235970   2.389   4.585  13.773 -0.0179 -1.0286 -0.4369
 4827TIP3   OH235971   0.604   2.877   2.151 -0.1377  0.0117 -0.7325
 4827TIP3    H135972   0.540   2.874   2.223 -0.0399 -0.1077 -0.6508
 4827TIP3    H235973   0.667   2.944   2.178 -0.8243  0.9178 -1.3115
 4828TIP3   OH235974   3.576   4.649  13.768 -0.5678 -0.0704 -0.6973
 4828TIP3    H135975   3.530   4.574  13.730  1.1238 -2.1234  1.0673
 4828TIP3    H235976   3.668   4.637  13.743  0.0663  0.2666  1.2373
 4829TIP3   OH235977   4.672   1.718   1.507  0.2126  0.2658  0.3121
 4829TIP3    H135978   4.720   1.796   1.478  0.7752 -0.5076 -0.9027
 4829TIP3    H235979   4.640   1.678   1.426 -1.6416  0.1993  1.0350
 4830TIP3   OH235980   3.584   2.337  15.231  0.1523  0.0370  0.5806
 4830TIP3    H135981   3.650   2.402  15.255  1.6534 -1.4764  0.7618
 4830TIP3    H235982   3.575   2.346  15.137  1.3584 -0.3441  0.4049
 4831TIP3   OH235983   4.066   4.341   4.692 -0.5295  0.4947  0.2536
 4831TIP3    H135984   4.051   4.246   4.691 -1.6290  0.6352 -1.3019
 4831TIP3    H235985   4.145   4.352   4.745 -0.0648 -1.3417  0.0394
 4832TIP3   OH235986   2.080   4.919  10.635  0.4119  0.5816 -0.7761
 4832TIP3    H135987   2.042   4.831  10.630 -0.1666  0.8061 -0.4917
 4832TIP3    H235988   2.006   4.977  10.618  0.5913  1.0367 -0.0698
 4833TIP3   OH235989   3.264   2.082  13.208  0.9529  0.6559 -0.5427
 4833TIP3    H135990   3.194   2.136  13.244 -0.3652 -1.0971 -0.3633
 4833TIP3    H235991   3.262   2.099  13.114 -0.5496 -0.2682 -0.7014
 4834TIP3   OH235992   5.113   6.312   3.113  0.6969  0.0358 -0.2798
 4834TIP3    H135993   5.110   6.218   3.126  1.5046 -0.0163 -0.3789
 4834TIP3    H235994   5.195   6.339   3.155 -0.3807  0.9661  1.3513
 4835TIP3   OH235995   5.421   1.462   3.622 -0.1907  0.2897 -0.2159
 4835TIP3    H135996   5.338   1.463   3.574  0.9642  1.5975 -2.3187
 4835TIP3    H235997   5.488   1.479   3.556  1.5647  1.4930  1.7360
 4836TIP3   OH235998   0.904   0.401  12.470  0.1339  0.0904  0.2976
 4836TIP3    H135999   0.869   0.333  12.411  1.0665  0.6316 -0.9327
 4836TIP3    H236000   0.894   0.364  12.557  2.7572 -2.7477 -0.4024
 4837TIP3   OH236001   1.148   6.720  15.210  0.1110  0.3992  0.5893
 4837TIP3    H136002   1.154   6.698  15.117 -1.6901  0.4353  0.4257
 4837TIP3    H236003   1.232   6.692  15.247  1.2034  1.1406 -1.1747
 4838TIP3   OH236004   0.817   6.278   4.090  0.0748 -0.9144 -0.0182
 4838TIP3    H136005   0.812   6.374   4.097 -1.3666 -0.9455 -0.3761
 4838TIP3    H236006   0.904   6.262   4.053 -0.1106  0.3314 -1.0857
 4839TIP3   OH236007   6.579   1.071  15.438  0.0484  0.1927 -0.0351
 4839TIP3    H136008   6.491   1.084  15.471  0.4275 -1.2249  1.6602
 4839TIP3    H236009   6.605   1.157  15.403 -2.3698  0.3630 -1.6377
 4840TIP3   OH236010   6.331   1.866  14.934  0.0280 -0.1885  0.4674
 4840TIP3    H136011   6.408   1.908  14.972  0.3282 -1.6375  1.5766
 4840TIP3    H236012   6.364   1.783  14.900 -0.8673 -0.3822  0.0563
 4841TIP3   OH236013   3.097   4.083  16.732  0.3424 -0.4333  0.5091
 4841TIP3    H136014   3.149   4.005  16.753  1.5102 -0.2866 -1.5079
 4841TIP3    H236015   3.044   4.056  16.656 -0.4562  0.2622  0.8065
 4842TIP3   OH236016   5.464   2.443   5.530  0.4806 -0.0683 -0.2990
 4842TIP3    H136017   5.374   2.442   5.496  0.2764 -2.1528  0.2039
 4842TIP3    H236018   5.457   2.409   5.619  1.6162  1.0829  0.2684
 4843TIP3   OH236019   0.683   0.935  10.740 -0.2401 -0.0325 -0.2356
 4843TIP3    H136020   0.748   0.869  10.716 -1.4735 -2.6077  2.7481
 4843TIP3    H236021   0.620   0.934  10.668  1.0960 -0.1914 -1.4353
 4844TIP3   OH236022   3.478   4.860  16.928  0.4070 -0.2685  0.0297
 4844TIP3    H136023   3.464   4.942  16.977  0.5951  0.7197 -1.5027
 4844TIP3    H236024   3.528   4.887  16.851  0.1679 -1.7803 -0.6848
 4845TIP3   OH236025   5.155   0.941  13.723 -0.5974  0.2374 -0.2082
 4845TIP3    H136026   5.201   1.021  13.750  0.3869  0.2835 -1.8790
 4845TIP3    H236027   5.222   0.872  13.727 -1.2797 -0.3939  0.6064
 4846TIP3   OH236028   6.836   3.321   3.114  0.0358 -0.1737  0.1589
 4846TIP3    H136029   6.826   3.373   3.194 -0.1620  1.0242 -0.6262
 4846TIP3    H236030   6.755   3.271   3.108 -0.5290  0.7479 -0.0052
 4847TIP3   OH236031   5.903   3.552  10.690 -0.5123  0.2802 -0.3706
 4847TIP3    H136032   5.969   3.606  10.731 -3.1838  2.7615  0.9753
 4847TIP3    H236033   5.934   3.462  10.703  1.6542  1.2354  1.7830
 4848TIP3   OH236034   6.329   4.832   1.147 -0.1645  0.2139 -0.0657
 4848TIP3    H136035   6.329   4.766   1.077  0.2553  0.6299 -0.4637
 4848TIP3    H236036   6.396   4.803   1.208 -0.2208  0.0904 -0.0611
 4849TIP3   OH236037   5.130   2.149  13.117 -0.1840  0.6094  0.0213
 4849TIP3    H136038   5.088   2.100  13.188 -0.1930  1.6980  0.8085
 4849TIP3    H236039   5.224   2.138  13.132 -0.1828  1.0965  0.4100
 4850TIP3   OH236040   1.190   6.133  10.495 -0.1682  0.3911  0.5096
 4850TIP3    H136041   1.174   6.053  10.545  0.4285  0.6615  1.1432
 4850TIP3    H236042   1.102   6.170  10.480 -0.6021 -1.2145 -1.2095
 4851TIP3   OH236043   6.260   2.952   5.574 -0.1187  0.4282 -0.2231
 4851TIP3    H136044   6.338   2.968   5.627 -0.6018  0.1139  0.6114
 4851TIP3    H236045   6.280   2.989   5.488 -0.2397  3.1723  0.8438
 4852TIP3   OH236046   4.744   1.825  11.950  0.4260 -0.1851  0.3334
 4852TIP3    H136047   4.653   1.813  11.925 -0.6214  2.4079  2.3999
 4852TIP3    H236048   4.782   1.876  11.878  0.1155 -0.7952 -0.2706
 4853TIP3   OH236049   4.205   6.664  15.268 -0.4214 -0.2570  0.4744
 4853TIP3    H136050   4.282   6.695  15.220 -1.1149  0.7749 -0.0030
 4853TIP3    H236051   4.131   6.688  15.212 -1.1222 -0.8018  1.1546
 4854TIP3   OH236052   3.022   6.485  15.364  0.4996 -0.7239 -0.0089
 4854TIP3    H136053   2.935   6.509  15.333  0.9957  2.6116  0.8684
 4854TIP3    H236054   3.071   6.466  15.285  0.3017  2.4553 -1.0226
 4855TIP3   OH236055   5.571   4.715   3.595  0.3978  0.1944  0.1198
 4855TIP3    H136056   5.583   4.751   3.683  0.0397 -0.9164  0.6375
 4855TIP3    H236057   5.601   4.785   3.536  1.1864  0.7350  1.1292
 4856TIP3   OH236058   2.213   1.234   5.778  0.5338 -0.4558  0.1563
 4856TIP3    H136059   2.258   1.153   5.751  0.7636 -0.5349  0.7609
 4856TIP3    H236060   2.148   1.205   5.842  0.3410 -0.2085  0.0744
 4857TIP3   OH236061   4.158   6.087  13.142 -0.1722 -0.6847 -0.9619
 4857TIP3    H136062   4.149   6.005  13.094  1.2290 -1.2591 -0.2969
 4857TIP3    H236063   4.243   6.079  13.187 -0.2856  0.8815 -0.4275
 4858TIP3   OH236064   0.369   2.231  12.473 -0.1090 -0.3681  0.2598
 4858TIP3    H136065   0.464   2.231  12.471 -0.0817 -0.1033  1.0978
 4858TIP3    H236066   0.343   2.168  12.406  0.6837 -1.6406  1.1040
 4859TIP3   OH236067   3.426   6.460   1.085  0.3874 -0.2272 -0.9269
 4859TIP3    H136068   3.417   6.368   1.061  1.0941 -0.4930 -0.2231
 4859TIP3    H236069   3.508   6.487   1.043  1.3832 -0.5654  0.7438
 4860TIP3   OH236070   0.704   0.347   3.637 -0.6377  0.2998  0.2176
 4860TIP3    H136071   0.741   0.430   3.605  1.4026 -0.3445  0.7738
 4860TIP3    H236072   0.756   0.279   3.595 -0.7350 -0.6433  1.5619
 4861TIP3   OH236073   4.040   6.736   6.423 -0.0251  0.1296 -0.0426
 4861TIP3    H136074   4.103   6.782   6.478 -0.2605  1.3367 -0.7359
 4861TIP3    H236075   4.057   6.768   6.334  0.2846 -1.6857 -0.6925
 4862TIP3   OH236076   5.125   5.111   1.982  0.8280 -0.1844  0.2582
 4862TIP3    H136077   5.206   5.112   2.033  1.2606 -2.6426 -0.2277
 4862TIP3    H236078   5.056   5.099   2.047  0.6570  2.8051  0.7675
 4863TIP3   OH236079   4.273   3.485  15.876 -0.0329 -0.2011 -0.4595
 4863TIP3    H136080   4.302   3.550  15.940 -1.0022 -3.0780  3.2330
 4863TIP3    H236081   4.328   3.409  15.891 -2.5465 -2.1735 -0.5365
 4864TIP3   OH236082   4.365   5.716   3.935  0.2057 -0.2638  0.2697
 4864TIP3    H136083   4.330   5.627   3.943 -0.1423 -0.2142 -0.5865
 4864TIP3    H236084   4.458   5.703   3.914  0.0030 -0.4404 -0.5389
 4865TIP3   OH236085   2.541   0.557   5.281 -0.4558  0.4481  0.5409
 4865TIP3    H136086   2.475   0.602   5.335 -1.1285 -0.3466  0.4054
 4865TIP3    H236087   2.624   0.573   5.327 -0.7907  1.1300  0.9306
 4866TIP3   OH236088   3.574   0.847  16.964  0.0562  0.1508 -0.1757
 4866TIP3    H136089   3.598   0.768  16.916 -1.0569 -0.6271  0.5099
 4866TIP3    H236090   3.580   0.822  17.056 -0.4532  0.8122  0.0432
 4867TIP3   OH236091   1.433   4.177  13.590 -0.3488  0.0368  0.0784
 4867TIP3    H136092   1.445   4.120  13.666  0.3260  0.7497  0.5266
 4867TIP3    H236093   1.522   4.196  13.560 -0.6109 -1.1523 -1.6236
 4868TIP3   OH236094   3.232   0.982  12.886 -0.4799  0.0085  0.0341
 4868TIP3    H136095   3.292   1.025  12.826 -1.7278  0.6132 -0.8165
 4868TIP3    H236096   3.171   0.934  12.830 -2.9879  2.2908  0.5988
 4869TIP3   OH236097   2.530   1.510  14.968 -0.1913  0.7294  0.2675
 4869TIP3    H136098   2.594   1.502  14.898 -0.7409  0.0256 -0.1672
 4869TIP3    H236099   2.490   1.596  14.955 -0.4940  0.4865 -0.4645
 4870TIP3   OH236100   1.524   4.349   4.007  0.0873  0.3114 -0.4631
 4870TIP3    H136101   1.526   4.356   3.912 -0.2005  1.7037 -0.3848
 4870TIP3    H236102   1.613   4.368   4.035 -0.0981  1.1293 -0.3999
 4871TIP3   OH236103   4.717   3.059   2.738 -0.0300  1.0299 -0.3847
 4871TIP3    H136104   4.743   3.082   2.827 -0.1914  1.6280 -0.4877
 4871TIP3    H236105   4.621   3.061   2.740 -0.0529  0.3401 -0.3958
 4872TIP3   OH236106   1.298   4.616   1.432 -0.1824  0.1265  0.1167
 4872TIP3    H136107   1.246   4.696   1.420 -2.4899 -1.1107  1.2189
 4872TIP3    H236108   1.266   4.579   1.515  2.6431 -0.6495  0.9523
 4873TIP3   OH236109   6.629   2.536   1.197  0.7389  0.4084  0.1800
 4873TIP3    H136110   6.569   2.536   1.122 -1.5503 -1.1866  1.8517
 4873TIP3    H236111   6.624   2.624   1.232 -0.6725  0.3190  0.2593
 4874TIP3   OH236112   2.744   2.904  10.671 -0.6319 -0.3245  0.1530
 4874TIP3    H136113   2.801   2.953  10.731 -1.2788 -0.3651  0.8171
 4874TIP3    H236114   2.788   2.820  10.658  0.0733  0.1121 -0.3314
 4875TIP3   OH236115   1.665   5.538  13.585 -0.7416 -0.9770 -0.1152
 4875TIP3    H136116   1.663   5.452  13.544 -2.2805 -1.0323  0.0077
 4875TIP3    H236117   1.745   5.579  13.553  0.2199 -2.5874  0.1376
 4876TIP3   OH236118   4.927   6.644  11.212 -0.4977 -0.4083 -0.1604
 4876TIP3    H136119   4.854   6.631  11.272  0.8151  0.0176  1.6242
 4876TIP3    H236120   4.946   6.558  11.176 -1.6996 -0.5608 -0.4424
 4877TIP3   OH236121   2.151   0.005  14.127 -0.2349  0.0462 -0.2173
 4877TIP3    H136122   2.186   0.065  14.193 -0.1338  0.1536 -0.3683
 4877TIP3    H236123   2.151  -0.080  14.170  2.0415 -0.3224 -0.8664
 4878TIP3   OH236124   6.438   5.113  15.562  0.0938 -0.1058 -0.3574
 4878TIP3    H136125   6.386   5.191  15.584  0.7983  0.5007 -0.7991
 4878TIP3    H236126   6.417   5.095  15.471  1.3326  0.6988 -0.8216
 4879TIP3   OH236127   4.789   1.918   3.146  0.0225  0.1776 -0.2031
 4879TIP3    H136128   4.719   1.940   3.084 -0.6883 -0.6546  0.2944
 4879TIP3    H236129   4.762   1.958   3.229  0.1956 -0.0396 -0.0380
 4880TIP3   OH236130   2.557   1.413  15.940  0.2709  0.3956 -0.0685
 4880TIP3    H136131   2.565   1.500  15.901 -0.9474  0.1388 -0.9682
 4880TIP3    H236132   2.639   1.370  15.919  0.6404  1.1290 -0.1491
 4881TIP3   OH236133   6.425   2.424   2.322  0.0093  0.4033 -0.2658
 4881TIP3    H136134   6.510   2.379   2.321  0.3666  1.0250  0.6983
 4881TIP3    H236135   6.373   2.377   2.257  0.8685 -0.4220 -0.3897
 4882TIP3   OH236136   2.030   5.671  16.380  0.2015  0.3603  0.3276
 4882TIP3    H136137   2.037   5.739  16.447 -0.9385 -0.9715  1.8551
 4882TIP3    H236138   2.121   5.652  16.356  0.6011  1.3508  0.9581
 4883TIP3   OH236139   4.291   1.154   2.808 -0.2172 -0.0291  0.1052
 4883TIP3    H136140   4.329   1.230   2.764 -0.3012  0.2290  0.4801
 4883TIP3    H236141   4.258   1.187   2.891  2.6131 -1.0318  1.7809
 4884TIP3   OH236142   6.701   2.759  15.410  0.4763  0.2163  0.5032
 4884TIP3    H136143   6.788   2.720  15.402  0.8344  0.8375  1.1798
 4884TIP3    H236144   6.714   2.850  15.383 -0.5717 -0.3445 -2.1442
 4885TIP3   OH236145   3.737   6.407   5.651  0.3779  0.0047  0.1930
 4885TIP3    H136146   3.696   6.373   5.730  1.1691 -1.4429  0.0215
 4885TIP3    H236147   3.792   6.479   5.682 -0.3219  0.3047  0.7610
 4886TIP3   OH236148   5.097   1.456  10.313 -0.5632  0.0875  0.0969
 4886TIP3    H136149   5.009   1.431  10.341 -0.3546 -0.0969  0.6126
 4886TIP3    H236150   5.127   1.517  10.381 -0.5317  0.6353 -0.4080
 4887TIP3   OH236151   4.957   4.231  15.360 -0.0781  0.0562  0.3731
 4887TIP3    H136152   4.868   4.212  15.390  0.3723 -1.3716  0.9084
 4887TIP3    H236153   4.946   4.294  15.289 -1.6197 -1.0824 -0.4608
 4888TIP3   OH236154   5.170   2.140   2.881  0.2069  0.1299 -0.9005
 4888TIP3    H136155   5.170   2.197   2.958 -0.9166 -0.8736 -0.1028
 4888TIP3    H236156   5.157   2.199   2.807  1.2462  1.1116 -0.3277
 4889TIP3   OH236157   0.801   5.271   0.023 -0.1543 -0.3451  0.1970
 4889TIP3    H136158   0.722   5.220   0.041 -0.7990  0.1576 -1.0944
 4889TIP3    H236159   0.784   5.356   0.064 -0.5906 -0.0173 -0.6274
 4890TIP3   OH236160   5.350   2.653  11.503 -0.0272 -0.1625  0.1697
 4890TIP3    H136161   5.271   2.697  11.470 -0.5748 -0.0370  1.5824
 4890TIP3    H236162   5.347   2.566  11.463  0.0834  0.4431 -1.2006
 4891TIP3   OH236163   2.266   2.251  15.068 -0.8605 -0.1648  0.1406
 4891TIP3    H136164   2.219   2.333  15.055 -0.8025 -0.2184 -0.4025
 4891TIP3    H236165   2.199   2.183  15.061 -0.5914 -0.3016 -1.4789
 4892TIP3   OH236166   3.605   4.084   1.309 -0.1699  0.0675  0.6609
 4892TIP3    H136167   3.583   4.083   1.402 -0.6746 -0.5377  0.5455
 4892TIP3    H236168   3.619   4.176   1.288 -1.7373  0.4067  0.9625
 4893TIP3   OH236169   5.271   0.820   3.383 -0.1349  0.1242 -0.2219
 4893TIP3    H136170   5.251   0.890   3.445 -2.6085  0.1942 -1.0214
 4893TIP3    H236171   5.276   0.864   3.298  0.9951 -0.3127 -0.4103
 4894TIP3   OH236172   3.230   3.633   3.393  0.2314 -0.4024 -0.3580
 4894TIP3    H136173   3.215   3.543   3.365  0.6029 -0.2503 -1.0705
 4894TIP3    H236174   3.269   3.676   3.316 -0.4789  0.5130 -0.2303
 4895TIP3   OH236175   5.111   4.396   1.656  0.0895 -0.1708 -0.5420
 4895TIP3    H136176   5.035   4.420   1.603 -2.1237  1.9415  3.1379
 4895TIP3    H236177   5.171   4.471   1.647 -0.5436  0.4544  0.2908
 4896TIP3   OH236178   4.685   1.303  13.459 -0.5163 -0.4907  0.3681
 4896TIP3    H136179   4.610   1.244  13.457 -0.1071 -0.9992 -0.5478
 4896TIP3    H236180   4.754   1.253  13.503 -0.3773 -0.4393  0.2102
 4897TIP3   OH236181   3.580   3.375  16.706 -0.3028  0.0984  0.2251
 4897TIP3    H136182   3.547   3.459  16.674 -1.6136 -0.0023  1.2378
 4897TIP3    H236183   3.538   3.363  16.791  2.9925  0.3596  2.0927
 4898TIP3   OH236184   5.818   5.731  15.634 -0.0841  0.1929 -0.0465
 4898TIP3    H136185   5.765   5.695  15.706  0.9065 -2.1167 -0.3985
 4898TIP3    H236186   5.774   5.701  15.555  0.3197  0.4628 -0.3747
 4899TIP3   OH236187   6.138   5.626  13.653  0.2220 -0.5287  0.2599
 4899TIP3    H136188   6.194   5.550  13.638  0.0716 -0.6666  0.3926
 4899TIP3    H236189   6.065   5.592  13.705 -1.0412 -0.7800 -1.6028
 4900TIP3   OH236190   3.997   5.348  14.278 -0.2302  0.1236 -0.3819
 4900TIP3    H136191   3.935   5.405  14.322 -0.3644 -0.3320  0.0277
 4900TIP3    H236192   4.077   5.400  14.271 -0.0919  0.0898  0.7169
 4901TIP3   OH236193   5.021   5.734  16.175  0.0103  0.0827  0.7178
 4901TIP3    H136194   5.051   5.644  16.162 -1.9910 -0.4703 -0.6075
 4901TIP3    H236195   4.972   5.754  16.095  1.0820  2.6691  0.6270
 4902TIP3   OH236196   6.246   3.341   1.946  0.3599  0.1954 -0.1182
 4902TIP3    H136197   6.324   3.300   1.982 -0.4782 -0.5174  0.9507
 4902TIP3    H236198   6.273   3.374   1.860  1.5626 -0.8770 -0.1737
 4903TIP3   OH236199   1.356   5.682  15.490  0.1168  0.2725 -0.2204
 4903TIP3    H136200   1.277   5.633  15.466 -0.0549  0.2053  0.4498
 4903TIP3    H236201   1.358   5.679  15.586  0.0988  1.5925 -0.1620
 4904TIP3   OH236202   2.219   1.504   0.885  0.7202 -0.4928  0.1507
 4904TIP3    H136203   2.133   1.489   0.923  1.1107  0.7874  1.6623
 4904TIP3    H236204   2.261   1.418   0.883 -0.6459 -1.1685 -0.8256
 4905TIP3   OH236205   3.175   4.302   3.611  0.1154 -0.2387  0.0117
 4905TIP3    H136206   3.082   4.324   3.616  0.0629 -0.5566  0.6175
 4905TIP3    H236207   3.204   4.337   3.527 -0.3611  0.5937  0.1813
 4906TIP3   OH236208   3.489   5.000  12.746 -0.0681  0.0723 -0.0760
 4906TIP3    H136209   3.437   5.079  12.732 -1.8650 -0.7762  1.2984
 4906TIP3    H236210   3.485   4.954  12.662 -1.5941  0.0545 -0.0291
 4907TIP3   OH236211   3.469   0.276   5.897 -0.4755  0.2601 -0.1301
 4907TIP3    H136212   3.488   0.328   5.818  2.4969  0.6344  0.6962
 4907TIP3    H236213   3.460   0.187   5.864  0.8563  0.3888 -0.9464
 4908TIP3   OH236214   0.836   4.591  12.471  0.1318 -0.1547  0.4502
 4908TIP3    H136215   0.860   4.506  12.435 -0.0432 -0.2084  0.4576
 4908TIP3    H236216   0.863   4.654  12.404 -0.4069 -0.2686  0.1107
 4909TIP3   OH236217   3.240   3.488   5.211 -0.4545 -0.6536 -0.3121
 4909TIP3    H136218   3.211   3.576   5.235  0.0311 -0.4886 -0.3158
 4909TIP3    H236219   3.302   3.502   5.140 -0.8175 -1.0456 -0.7094
 4910TIP3   OH236220   4.454   0.111   2.482 -0.0959  0.2283  0.4345
 4910TIP3    H136221   4.524   0.118   2.417 -0.8506 -1.7154 -0.6505
 4910TIP3    H236222   4.457   0.195   2.530  0.3700  1.8014 -2.1759
 4911TIP3   OH236223   6.025   0.205  11.701 -0.3754 -0.5630  0.7712
 4911TIP3    H136224   5.989   0.116  11.708  0.4549 -1.0508 -0.8151
 4911TIP3    H236225   6.034   0.220  11.607  2.3211  0.0120  1.0494
 4912TIP3   OH236226   6.584   3.652   4.124 -0.3109 -0.2930 -0.3220
 4912TIP3    H136227   6.611   3.741   4.147  1.8849 -0.5099 -1.7625
 4912TIP3    H236228   6.522   3.663   4.052 -0.7201  0.0660  0.0740
 4913TIP3   OH236229   2.794   6.006   4.831  0.2691 -0.1351 -0.0463
 4913TIP3    H136230   2.869   6.041   4.879 -0.8420  1.9268  0.3146
 4913TIP3    H236231   2.733   5.978   4.900 -0.5267  1.0483 -0.2410
 4914TIP3   OH236232   1.533   0.962   0.142  1.1850 -0.4623  0.1889
 4914TIP3    H136233   1.619   1.004   0.136  1.7363 -1.1819  2.1629
 4914TIP3    H236234   1.511   0.968   0.235 -0.3252 -1.4494 -0.0795
 4915TIP3   OH236235   4.999   5.219  14.257 -0.2345  0.1190  0.3548
 4915TIP3    H136236   5.061   5.237  14.186 -2.1211 -1.4450 -1.8296
 4915TIP3    H236237   4.992   5.124  14.259 -0.6154  0.1549  2.3622
 4916TIP3   OH236238   3.759   5.569  15.634  0.3947 -0.2008 -0.3633
 4916TIP3    H136239   3.830   5.609  15.584  0.7518 -0.2381  0.1106
 4916TIP3    H236240   3.679   5.603  15.593  0.6855  0.5760 -0.2976
 4917TIP3   OH236241   0.369   0.418   1.519  0.9286  0.7212 -0.0771
 4917TIP3    H136242   0.434   0.383   1.458 -1.8427 -2.9982 -1.2783
 4917TIP3    H236243   0.294   0.440   1.463 -0.2688  1.0446  1.5968
 4918TIP3   OH236244   6.415   0.033   5.665 -0.3149 -0.1411 -0.6375
 4918TIP3    H136245   6.400   0.127   5.651 -1.3827  0.0383  1.3167
 4918TIP3    H236246   6.351  -0.010   5.608 -1.6312  0.4220  0.3503
 4919TIP3   OH236247   3.534   2.346  11.478  0.4855 -0.1610 -0.3252
 4919TIP3    H136248   3.513   2.439  11.478 -1.1563 -0.5088  0.1079
 4919TIP3    H236249   3.457   2.303  11.441  0.7933 -1.4184  0.4214
 4920TIP3   OH236250   3.296   5.347   5.686  0.0155  0.0045  0.3710
 4920TIP3    H136251   3.374   5.358   5.739  0.5871 -0.0840 -0.4263
 4920TIP3    H236252   3.223   5.374   5.743  0.5455 -0.6427  1.3766
 4921TIP3   OH236253   3.997   1.750  15.138 -0.0713  0.1685 -0.0007
 4921TIP3    H136254   4.093   1.753  15.137  0.0451 -1.4524  1.4129
 4921TIP3    H236255   3.974   1.697  15.062  0.1755  0.1041 -0.0325
 4922TIP3   OH236256   3.483   1.371  16.714 -0.2493 -0.3278  0.5832
 4922TIP3    H136257   3.391   1.389  16.697  0.0087  0.2320 -0.2834
 4922TIP3    H236258   3.524   1.457  16.720  0.4448 -0.5635 -0.3952
 4923TIP3   OH236259   4.809   2.485   0.619 -0.3511 -0.1456 -0.1207
 4923TIP3    H136260   4.857   2.433   0.683  0.8876 -1.1237 -1.7699
 4923TIP3    H236261   4.760   2.420   0.567 -3.0055  0.7622  1.0486
 4924TIP3   OH236262   1.762   1.153   1.900  0.1696  0.1132 -0.8613
 4924TIP3    H136263   1.732   1.083   1.843  1.4082 -0.2769 -1.0830
 4924TIP3    H236264   1.829   1.111   1.955 -1.4887  0.2915  1.4008
 4925TIP3   OH236265   2.003   1.411   0.567 -0.8242 -0.0352  0.3378
 4925TIP3    H136266   2.022   1.344   0.502  1.1380  0.9941 -0.2360
 4925TIP3    H236267   1.971   1.363   0.643  0.2309 -1.5901 -0.1627
 4926TIP3   OH236268   4.816   5.062  15.410 -0.0902  0.3340 -0.0428
 4926TIP3    H136269   4.866   5.113  15.347 -0.6485  0.7882 -0.1253
 4926TIP3    H236270   4.749   5.018  15.358 -1.6353  2.0374  0.4021
 4927TIP3   OH236271   6.553   6.263  10.525 -0.4200 -0.7589 -0.1222
 4927TIP3    H136272   6.569   6.310  10.607 -0.2171  2.2945 -1.7679
 4927TIP3    H236273   6.639   6.229  10.500 -0.0188  0.1974 -0.1031
 4928TIP3   OH236274   2.660   3.258  14.583 -0.0139 -0.6245 -0.0679
 4928TIP3    H136275   2.590   3.235  14.523 -0.5782 -0.0824  0.3760
 4928TIP3    H236276   2.687   3.346  14.557  0.2727 -0.6991 -0.0249
 4929TIP3   OH236277   5.922   2.441   0.908  0.1098  0.2485  0.1034
 4929TIP3    H136278   5.839   2.432   0.861  0.6221  0.2366 -0.8185
 4929TIP3    H236279   5.988   2.442   0.839  0.8831  0.1812  0.8350
 4930TIP3   OH236280   6.842   4.483   1.516 -0.4828 -0.3115  0.8403
 4930TIP3    H136281   6.924   4.513   1.554 -0.8814 -0.6798  2.0131
 4930TIP3    H236282   6.838   4.528   1.431  0.3811  0.5805  1.2515
 4931TIP3   OH236283   3.344   4.616   0.078  0.5779  0.3502 -0.1808
 4931TIP3    H136284   3.318   4.707   0.064 -2.1447 -0.5063 -1.2171
 4931TIP3    H236285   3.358   4.610   0.173  0.7716  1.7995 -0.0882
 4932TIP3   OH236286   0.705   0.370   1.755 -0.0529 -0.1261 -0.2654
 4932TIP3    H136287   0.639   0.305   1.729 -1.9749  1.5881  0.1008
 4932TIP3    H236288   0.727   0.417   1.675  0.1237 -0.1509 -0.2335
 4933TIP3   OH236289   0.995   3.264  15.310 -0.1937  0.2832  0.1687
 4933TIP3    H136290   0.925   3.327  15.327 -0.9922 -0.1430 -1.3636
 4933TIP3    H236291   0.950   3.180  15.297  0.7470 -0.3595  0.9190
 4934TIP3   OH236292   4.529   6.823   3.582 -0.4604 -0.1010  0.3227
 4934TIP3    H136293   4.561   6.852   3.668 -0.0267 -0.6684  0.3670
 4934TIP3    H236294   4.566   6.735   3.573  1.1491  0.6903 -1.3007
 4935TIP3   OH236295   3.715   5.470   3.904  0.1101 -0.3688 -0.7937
 4935TIP3    H136296   3.738   5.431   3.988 -1.6702  0.8534  0.3436
 4935TIP3    H236297   3.724   5.565   3.918 -3.3420  0.1187 -0.7885
 4936TIP3   OH236298   6.450   3.032  16.120  0.6167 -0.0538 -0.7336
 4936TIP3    H136299   6.477   3.040  16.212  2.3771  2.1024 -1.3377
 4936TIP3    H236300   6.365   3.075  16.117 -2.0214 -4.4808  0.6732
 4937TIP3   OH236301   0.468   2.140  12.163  0.3587 -0.1433 -0.8884
 4937TIP3    H136302   0.377   2.160  12.141  0.5961  1.4674 -0.5370
 4937TIP3    H236303   0.519   2.180  12.093  0.7984 -1.5113 -1.3738
 4938TIP3   OH236304   0.352   1.795  11.670  0.0057 -0.3009  0.4370
 4938TIP3    H136305   0.344   1.762  11.760 -0.6530 -1.3620  0.0020
 4938TIP3    H236306   0.408   1.731  11.626 -1.1118 -0.7727 -0.3600
 4939TIP3   OH236307   2.813   2.695  14.075 -0.6193 -0.0041  0.6204
 4939TIP3    H136308   2.813   2.749  14.154 -0.2004 -0.2231  0.7739
 4939TIP3    H236309   2.722   2.667  14.065 -0.2003 -2.6459  2.8848
 4940TIP3   OH236310   0.340   3.012  16.716 -0.3018  0.5619  0.3913
 4940TIP3    H136311   0.256   2.981  16.682  0.1409  0.5524 -0.7363
 4940TIP3    H236312   0.387   2.933  16.741  0.1215  0.4164 -0.8042
 4941TIP3   OH236313   3.771   2.647  13.145 -0.0827 -0.2098  0.5155
 4941TIP3    H136314   3.853   2.670  13.189  0.2882  1.5082 -0.9135
 4941TIP3    H236315   3.707   2.637  13.215  1.1522 -0.7549  1.6034
 4942TIP3   OH236316   0.225   2.542   0.070 -0.5278 -0.0507  0.1238
 4942TIP3    H136317   0.207   2.450   0.051  0.0466 -0.2529  0.5396
 4942TIP3    H236318   0.205   2.552   0.163 -1.4666  0.4726 -0.1165
 4943TIP3   OH236319   1.305   2.341   3.474  0.0179  0.2963  0.7380
 4943TIP3    H136320   1.250   2.400   3.525  0.1839  0.6232  0.5440
 4943TIP3    H236321   1.322   2.267   3.532 -2.0603 -0.6583  0.2101
 4944TIP3   OH236322   0.808   0.760  15.273  0.3064 -0.0543  0.9162
 4944TIP3    H136323   0.820   0.841  15.321  1.7121 -0.1948  0.8583
 4944TIP3    H236324   0.859   0.695  15.322 -0.2115 -0.7414  0.5672
 4945TIP3   OH236325   5.532   1.607   5.340 -0.4619 -0.3371 -0.2034
 4945TIP3    H136326   5.553   1.686   5.292  0.3225 -0.2121  0.3358
 4945TIP3    H236327   5.496   1.638   5.423 -2.4185 -0.5452 -0.9083
 4946TIP3   OH236328   5.710   3.600   0.667  0.8032 -0.7240 -0.1498
 4946TIP3    H136329   5.693   3.531   0.731  0.4620  0.5629  1.2095
 4946TIP3    H236330   5.771   3.561   0.604  0.2210 -2.3981  0.2883
 4947TIP3   OH236331   3.924   4.712  16.165  0.7947 -0.0752  0.2806
 4947TIP3    H136332   3.944   4.650  16.094  0.3844 -0.0530  0.1438
 4947TIP3    H236333   4.009   4.750  16.189  0.8896  0.1603 -0.4241
 4948TIP3   OH236334   4.373   2.811  12.307  0.1532 -0.0139 -0.3045
 4948TIP3    H136335   4.317   2.766  12.244 -0.8039  0.1088  0.4320
 4948TIP3    H236336   4.402   2.890  12.262 -0.9296  0.3253 -0.4258
 4949TIP3   OH236337   2.125   5.732  17.038 -0.1004  0.3713  0.0840
 4949TIP3    H136338   2.168   5.728  16.953 -1.2160 -0.6830 -0.4496
 4949TIP3    H236339   2.133   5.643  17.073  0.9039  0.9379  1.3891
 4950TIP3   OH236340   5.620   3.580  15.307  0.3296 -0.1484 -0.3827
 4950TIP3    H136341   5.680   3.590  15.381  0.9879  0.5200 -0.9895
 4950TIP3    H236342   5.663   3.517  15.249  0.8644  0.9369 -1.2069
 4951TIP3   OH236343   5.135   2.052  13.743  0.3254 -0.2408  0.0704
 4951TIP3    H136344   5.174   2.014  13.822  2.2050  3.5870  1.2053
 4951TIP3    H236345   5.200   2.035  13.675  0.0539 -1.0189 -0.0097
 4952TIP3   OH236346   3.260   2.241  11.302  0.1946  0.1132  0.8199
 4952TIP3    H136347   3.232   2.207  11.387 -0.1329  1.5342  1.3041
 4952TIP3    H236348   3.239   2.334  11.304  2.6674  0.7792  0.2380
 4953TIP3   OH236349   3.922   6.177   4.127 -0.2294 -0.2936  0.0759
 4953TIP3    H136350   3.955   6.266   4.141  0.5443 -0.6501  0.6089
 4953TIP3    H236351   3.966   6.148   4.047  0.2928 -0.5466  0.4479
 4954TIP3   OH236352   1.425   5.658   4.305 -0.4756  0.4209 -0.1174
 4954TIP3    H136353   1.358   5.660   4.374 -1.0454  1.7606 -0.6750
 4954TIP3    H236354   1.384   5.702   4.231  1.4694  2.4869 -0.0598
 4955TIP3   OH236355   1.749   3.589  12.985 -0.5164 -0.3653 -0.0586
 4955TIP3    H136356   1.818   3.614  13.046  1.6012 -0.8684 -2.0975
 4955TIP3    H236357   1.785   3.515  12.937 -2.0328  0.0172 -1.9123
 4956TIP3   OH236358   5.189   0.599  11.884 -0.0034 -0.2236 -0.1008
 4956TIP3    H136359   5.134   0.674  11.909 -0.9446 -0.7532 -0.5209
 4956TIP3    H236360   5.153   0.571  11.800 -0.5995 -2.0291  0.7011
 4957TIP3   OH236361   3.910   4.630   4.768 -0.2099  0.3335  0.2237
 4957TIP3    H136362   3.928   4.539   4.791 -2.4012 -0.1068  0.3752
 4957TIP3    H236363   3.846   4.625   4.697 -0.0302  1.7660 -0.0815
 4958TIP3   OH236364   6.100   3.465   0.264  0.0290  0.2537 -0.3940
 4958TIP3    H136365   6.186   3.500   0.284 -0.5519  0.8203  1.2160
 4958TIP3    H236366   6.044   3.542   0.253 -0.5516 -0.1202 -0.1270
 4959TIP3   OH236367   5.614   6.587   5.406  0.5724 -1.1125  0.0933
 4959TIP3    H136368   5.674   6.513   5.399  0.8456 -0.8157 -0.9076
 4959TIP3    H236369   5.657   6.657   5.356 -1.3079 -1.3555 -2.0098
 4960TIP3   OH236370   0.778   0.215   0.340 -0.2730 -0.1351 -0.1184
 4960TIP3    H136371   0.788   0.280   0.270 -2.0262  3.1226  2.3416
 4960TIP3    H236372   0.684   0.213   0.357 -0.0271 -1.7633  1.3480
 4961TIP3   OH236373   4.567   6.174  14.762  0.2179  0.3156 -0.5488
 4961TIP3    H136374   4.656   6.159  14.792 -0.0999  0.0029  0.2484
 4961TIP3    H236375   4.529   6.086  14.752  0.1992  0.4182 -1.5251
 4962TIP3   OH236376   0.617   6.674   0.439 -0.2496  0.1045 -0.4706
 4962TIP3    H136377   0.591   6.739   0.505 -1.6034 -0.3782 -0.5041
 4962TIP3    H236378   0.546   6.609   0.440  1.1880 -1.5294 -0.2478
 4963TIP3   OH236379   4.530   3.177  16.893 -0.2825 -0.0256 -0.3346
 4963TIP3    H136380   4.600   3.241  16.880 -0.4153  0.2195  0.1284
 4963TIP3    H236381   4.459   3.227  16.934 -0.1761 -0.5766  0.5505
 4964TIP3   OH236382   0.021   3.701   3.913  0.7131 -0.0966  0.0421
 4964TIP3    H136383  -0.048   3.717   3.848  0.5618  0.4975  0.3479
 4964TIP3    H236384   0.025   3.781   3.964  0.4488 -0.7532  1.1250
 4965TIP3   OH236385   5.015   1.811  12.262  0.3716  0.0619 -0.2432
 4965TIP3    H136386   5.040   1.770  12.345 -1.8454 -0.9342  0.0297
 4965TIP3    H236387   5.064   1.763  12.196  0.7296 -0.4313  0.3712
 4966TIP3   OH236388   6.413   2.110   3.948 -0.0020 -0.3906 -0.2022
 4966TIP3    H136389   6.380   2.021   3.961  0.2400 -0.3347  0.8250
 4966TIP3    H236390   6.399   2.154   4.031  3.1498 -0.5371  0.5241
 4967TIP3   OH236391   6.036   1.599   5.985  0.0457  0.3043  0.3281
 4967TIP3    H136392   6.046   1.694   5.992 -0.0042  0.2119  2.2192
 4967TIP3    H236393   5.944   1.583   6.005 -0.3137 -0.0671 -1.4276
 4968TIP3   OH236394   0.967   3.677   1.737  0.4027 -0.5386  0.2339
 4968TIP3    H136395   1.050   3.639   1.709  0.7101  0.3894 -0.1185
 4968TIP3    H236396   0.904   3.648   1.670  0.8067  0.2852 -0.5079
 4969TIP3   OH236397   5.853   5.774   5.620  0.5514 -0.0740  0.8629
 4969TIP3    H136398   5.888   5.821   5.696 -1.7021 -0.9435  2.5628
 4969TIP3    H236399   5.784   5.832   5.586  0.3453 -0.4672  0.6041
 4970TIP3   OH236400   5.952   3.690  12.808 -0.4556 -0.4686 -0.0983
 4970TIP3    H136401   5.921   3.657  12.892 -2.4142 -0.2986 -0.6998
 4970TIP3    H236402   5.925   3.623  12.745  1.3632 -0.8064 -0.5748
 4971TIP3   OH236403   2.480   3.265  15.305 -0.4799  0.0943  0.1109
 4971TIP3    H136404   2.485   3.280  15.399  0.7795  1.0998 -0.0891
 4971TIP3    H236405   2.411   3.324  15.275  0.6601  1.4862  0.1160
 4972TIP3   OH236406   1.352   0.398   5.064 -0.2288 -0.5392 -0.3892
 4972TIP3    H136407   1.313   0.470   5.013 -1.6779 -1.4585 -0.6476
 4972TIP3    H236408   1.350   0.323   5.004  1.4510 -0.7699 -0.1914
 4973TIP3   OH236409   0.233   0.701  10.362 -0.2622  0.0827 -0.2767
 4973TIP3    H136410   0.303   0.735  10.417 -1.4617  0.7331  0.9185
 4973TIP3    H236411   0.238   0.753  10.282  1.1165 -0.4415 -0.5521
 4974TIP3   OH236412   6.175   2.266  15.037 -0.1641 -0.0789 -0.2317
 4974TIP3    H136413   6.218   2.198  14.986 -0.2634 -0.0444 -0.3612
 4974TIP3    H236414   6.170   2.230  15.126 -0.5676 -0.3976 -0.3847
 4975TIP3   OH236415   0.714   3.824   1.093 -0.3805 -0.2013 -0.6029
 4975TIP3    H136416   0.658   3.797   1.166 -1.1172  0.4189 -0.9184
 4975TIP3    H236417   0.694   3.917   1.081 -0.0779 -0.2344 -1.4240
 4976TIP3   OH236418   1.888   5.575  13.424  0.3541 -0.3905  0.2472
 4976TIP3    H136419   1.947   5.650  13.429 -0.8349  0.5390  0.7723
 4976TIP3    H236420   1.859   5.574  13.333  0.8085 -0.5736  0.0987
 4977TIP3   OH236421   5.295   1.156   2.236  0.5103 -0.4312 -0.1436
 4977TIP3    H136422   5.251   1.180   2.318 -1.2762 -0.1181 -1.1600
 4977TIP3    H236423   5.302   1.060   2.240 -0.8901 -0.5605 -0.2338
 4978TIP3   OH236424   6.287   6.466  16.516  0.1696  0.2192  1.1749
 4978TIP3    H136425   6.276   6.550  16.561 -0.4542  2.0233 -2.0117
 4978TIP3    H236426   6.198   6.435  16.499  0.3027  0.6159 -0.4351
 4979TIP3   OH236427   6.505   2.456  13.345  0.4070  0.3913 -0.4390
 4979TIP3    H136428   6.575   2.460  13.411 -0.5291 -0.4882  0.6305
 4979TIP3    H236429   6.543   2.499  13.268  3.1148 -2.2590 -0.7855
 4980TIP3   OH236430   2.894   4.389  11.937 -0.0891 -0.8378  0.0045
 4980TIP3    H136431   2.873   4.401  11.844  1.8062 -2.1136 -0.6457
 4980TIP3    H236432   2.908   4.295  11.946 -1.2459 -0.8700  1.8460
 4981TIP3   OH236433   4.454   4.730  13.542 -0.7610 -0.4716  0.5291
 4981TIP3    H136434   4.475   4.751  13.451 -1.4984 -2.0359 -0.0342
 4981TIP3    H236435   4.362   4.703  13.540 -0.3040 -2.2439  1.4154
 4982TIP3   OH236436   5.020   0.822  11.823 -0.8181 -0.8617  0.3253
 4982TIP3    H136437   5.032   0.848  11.914 -1.5030 -0.4114  0.2968
 4982TIP3    H236438   5.084   0.874  11.775 -2.6095  1.3799  0.1896
 4983TIP3   OH236439   3.236   2.370  10.930 -0.0497  0.0543  0.6895
 4983TIP3    H136440   3.245   2.378  10.836  0.9895 -1.5373  0.6179
 4983TIP3    H236441   3.241   2.460  10.963  2.5566  0.4404 -0.5497
 4984TIP3   OH236442   4.511   4.477   3.700 -0.4520  0.0522  0.2797
 4984TIP3    H136443   4.580   4.541   3.717 -0.2530 -0.4242  1.3479
 4984TIP3    H236444   4.475   4.456   3.786 -0.3851 -1.3950 -0.0055
 4985TIP3   OH236445   2.888   5.523  15.156 -0.6181 -0.3562 -0.1277
 4985TIP3    H136446   2.968   5.515  15.209 -0.2857 -1.3008 -0.7518
 4985TIP3    H236447   2.891   5.448  15.096 -0.8877  0.7832 -1.6248
 4986TIP3   OH236448   0.112   6.645   3.407 -0.2937 -0.3708  0.0724
 4986TIP3    H136449   0.166   6.647   3.328  0.8156  0.2453  0.8251
 4986TIP3    H236450   0.061   6.564   3.399  1.4991 -1.5392 -0.1881
 4987TIP3   OH236451   4.788   1.553  16.661 -0.6069 -0.3674 -0.6295
 4987TIP3    H136452   4.718   1.551  16.726 -1.8313  0.7390 -1.8393
 4987TIP3    H236453   4.837   1.633  16.682  0.6462 -1.3891  0.5117
 4988TIP3   OH236454   2.247   3.567   0.186 -0.2212 -0.0312 -0.4201
 4988TIP3    H136455   2.171   3.575   0.244 -1.1400  1.0135 -1.6944
 4988TIP3    H236456   2.259   3.473   0.176  0.1689 -0.2408  1.6791
 4989TIP3   OH236457   0.295   0.463   0.841  0.7564 -0.0111  0.1681
 4989TIP3    H136458   0.239   0.500   0.909 -0.0817 -0.8506 -0.0430
 4989TIP3    H236459   0.263   0.373   0.830 -0.6819  0.7542 -2.9394
 4990TIP3   OH236460   6.261   6.623   4.044 -0.3489 -0.0862  0.2261
 4990TIP3    H136461   6.282   6.653   3.955 -0.5671 -0.9006 -0.1075
 4990TIP3    H236462   6.327   6.555   4.062 -0.6535 -0.3192  0.4602
 4991TIP3   OH236463   6.606   6.652  12.619  0.4198 -0.3733 -0.4287
 4991TIP3    H136464   6.628   6.613  12.534 -0.5570 -1.3908 -0.2313
 4991TIP3    H236465   6.524   6.699  12.604 -0.3394 -1.4664  0.1892
 4992TIP3   OH236466   5.624   6.799  11.495 -0.0421  0.4652  0.0796
 4992TIP3    H136467   5.581   6.866  11.548 -0.2537  0.3877  0.0037
 4992TIP3    H236468   5.554   6.760  11.443 -0.1720 -0.8377  1.1980
 4993TIP3   OH236469   0.724   0.896  14.104  0.1366  0.2693  0.3180
 4993TIP3    H136470   0.652   0.833  14.102  0.0974  0.0521  3.4764
 4993TIP3    H236471   0.794   0.851  14.151  1.8282  1.0554 -1.3049
 4994TIP3   OH236472   6.002   2.872  11.715  0.5907 -0.6020  0.2758
 4994TIP3    H136473   5.978   2.782  11.693  3.3065 -1.6115  0.9638
 4994TIP3    H236474   6.076   2.892  11.658  2.1116 -0.0563  2.3225
 4995TIP3   OH236475   2.571   4.866  12.366 -0.0118  0.5114 -0.1628
 4995TIP3    H136476   2.528   4.780  12.368 -0.8362  0.9150 -0.1099
 4995TIP3    H236477   2.664   4.846  12.375 -0.2417 -0.3418  0.4975
 4996TIP3   OH236478   1.727   2.941  12.351  0.2160 -0.5102 -0.5911
 4996TIP3    H136479   1.769   2.894  12.280  0.6096  1.1207 -1.4838
 4996TIP3    H236480   1.648   2.979  12.312 -0.6756 -1.2741  0.3852
 4997TIP3   OH236481   3.176   2.708  12.347 -0.1628 -0.3462  0.2110
 4997TIP3    H136482   3.225   2.646  12.293 -1.3755 -0.6935 -0.5421
 4997TIP3    H236483   3.243   2.763  12.387  0.8250 -0.3787 -1.2899
 4998TIP3   OH236484   5.883   6.041  14.587  0.3224  0.3018 -0.1913
 4998TIP3    H136485   5.873   5.994  14.670 -0.1770 -1.4065 -1.1727
 4998TIP3    H236486   5.869   6.133  14.611 -1.5417 -0.2917  1.3592
 4999TIP3   OH236487   3.457   0.876  15.398 -0.2625 -0.4445  0.1806
 4999TIP3    H136488   3.378   0.928  15.411 -0.8325 -1.1845 -0.3088
 4999TIP3    H236489   3.499   0.915  15.321  0.8395  1.1336  1.5167
 5000TIP3   OH236490   5.016   3.795   3.962  0.2328 -0.5108  0.6976
 5000TIP3    H136491   5.053   3.880   3.984 -0.1625  0.0183 -0.6056
 5000TIP3    H236492   4.927   3.797   3.998  0.7413 -1.0206  2.0736
 5001TIP3   OH236493   4.814   5.048  15.913 -0.5625 -0.3495 -0.0014
 5001TIP3    H136494   4.828   5.086  15.826 -0.0879 -0.8163 -0.1369
 5001TIP3    H236495   4.722   5.023  15.913 -0.3636 -1.1494 -0.7087
 5002TIP3   OH236496   4.124   5.421   2.216  0.2720  0.3596 -0.0519
 5002TIP3    H136497   4.115   5.509   2.252 -1.7177  0.8903 -1.6314
 5002TIP3    H236498   4.141   5.435   2.123 -1.4304 -0.8585 -0.6088
 5003TIP3   OH236499   2.149   2.126   2.447  0.6943 -0.2593 -0.3833
 5003TIP3    H136500   2.112   2.213   2.464 -0.1229 -0.8694  1.1792
 5003TIP3    H236501   2.112   2.101   2.362 -0.3598  0.2638 -0.1061
 5004TIP3   OH236502   1.819   1.706  12.281  0.2808  0.3495  0.0171
 5004TIP3    H136503   1.741   1.744  12.322 -0.1655 -0.9689  0.4547
 5004TIP3    H236504   1.829   1.621  12.324 -0.1192 -1.0460 -2.4588
 5005TIP3   OH236505   3.214   2.160   0.261 -0.3179  0.4518  0.0773
 5005TIP3    H136506   3.213   2.237   0.318  0.6929  1.8069 -1.6231
 5005TIP3    H236507   3.298   2.118   0.279 -0.9185 -0.3751  1.0892
 5006TIP3   OH236508   5.605   6.312   5.024 -0.3097 -0.5193  0.1841
 5006TIP3    H136509   5.556   6.230   5.019 -1.0568 -0.1068  0.5216
 5006TIP3    H236510   5.541   6.376   5.057  0.1039  0.3228 -0.5905
 5007TIP3   OH236511   4.924   0.807  14.079 -0.4798 -0.3373 -0.3759
 5007TIP3    H136512   4.959   0.887  14.119  0.1111 -1.3460  1.2071
 5007TIP3    H236513   4.903   0.833  13.989 -2.4739  2.2155  0.6986
 5008TIP3   OH236514   0.101   0.559  14.859 -0.1967  0.3920 -0.4195
 5008TIP3    H136515   0.120   0.474  14.897 -2.7084 -0.5514 -1.1054
 5008TIP3    H236516   0.042   0.601  14.922  1.3100  1.8342  0.1002
 5009TIP3   OH236517   6.270   3.646  15.678  0.1454 -0.5336 -0.0194
 5009TIP3    H136518   6.352   3.621  15.721  1.0098  1.3610 -0.4558
 5009TIP3    H236519   6.231   3.711  15.736  0.2196  0.4186 -0.9990
 5010TIP3   OH236520   2.024   1.062   5.433 -0.2481 -0.4241  0.3657
 5010TIP3    H136521   1.956   1.075   5.500  0.4364 -1.5041  1.3092
 5010TIP3    H236522   1.991   1.107   5.356 -2.7705 -2.1134  0.3283
 5011TIP3   OH236523   0.864   3.795  11.434 -0.4878  0.1245 -0.4432
 5011TIP3    H136524   0.942   3.850  11.434  0.1872 -0.7780  1.0505
 5011TIP3    H236525   0.791   3.857  11.421  0.4455  0.9408 -2.1637
 5012TIP3   OH236526   3.167   0.899   2.211  0.5058 -0.3673  0.0468
 5012TIP3    H136527   3.159   0.985   2.172 -1.6508 -0.6031 -0.1588
 5012TIP3    H236528   3.211   0.914   2.294  1.5297  0.6906 -0.6572
 5013TIP3   OH236529   2.585   6.805  14.735  0.0362 -0.6731  0.4759
 5013TIP3    H136530   2.534   6.855  14.672  1.1118 -0.5414 -0.3305
 5013TIP3    H236531   2.590   6.717  14.697 -0.2041 -0.8745  0.9082
 5014TIP3   OH236532   3.376   4.657   0.341 -0.2159 -0.1325 -0.4010
 5014TIP3    H136533   3.418   4.595   0.400 -0.6667 -0.5729 -0.5383
 5014TIP3    H236534   3.282   4.648   0.360 -0.3175  0.1622 -0.7593
 5015TIP3   OH236535   4.955   6.657   3.105  0.6188 -0.2045  0.4234
 5015TIP3    H136536   4.889   6.724   3.125 -0.4175 -0.8022 -0.8683
 5015TIP3    H236537   4.999   6.689   3.027 -0.8156 -1.6158 -1.0287
 5016TIP3   OH236538   4.748   2.729   1.738 -0.6310 -0.7771 -0.1403
 5016TIP3    H136539   4.840   2.752   1.750 -0.2905 -2.0405 -0.1600
 5016TIP3    H236540   4.738   2.644   1.781 -2.5919  0.7766  2.7800
 5017TIP3   OH236541   0.033   3.052  12.549 -0.0494  0.1336  0.0331
 5017TIP3    H136542   0.120   3.037  12.587  0.2398  1.3079 -0.1208
 5017TIP3    H236543   0.004   2.966  12.520  1.2145 -0.2285 -0.2186
 5018TIP3   OH236544   1.206   0.635   3.914 -0.0522  0.0093 -0.1140
 5018TIP3    H136545   1.245   0.647   4.000  2.8119 -0.4621 -1.2247
 5018TIP3    H236546   1.142   0.565   3.926 -1.5671  1.6368  2.0569
 5019TIP3   OH236547   6.325   6.822   3.793  0.1748 -0.9081  0.1448
 5019TIP3    H136548   6.412   6.851   3.767  0.8441 -2.0820  0.9883
 5019TIP3    H236549   6.270   6.900   3.783  1.5507  0.1840  0.7094
 5020TIP3   OH236550   3.558   5.420   4.536  0.3767  0.1808  0.2147
 5020TIP3    H136551   3.621   5.389   4.600 -1.0320 -1.0472  1.0480
 5020TIP3    H236552   3.533   5.342   4.487 -0.5234  0.6403 -0.0752
 5021TIP3   OH236553   4.805   6.189  13.646 -0.2673  0.6378  0.4295
 5021TIP3    H136554   4.716   6.224  13.652 -0.3525  0.3216  1.1452
 5021TIP3    H236555   4.793   6.097  13.622 -0.1153  0.6697  0.2253
 5022TIP3   OH236556   4.966   0.425   3.853  0.0421 -0.4980  0.0221
 5022TIP3    H136557   5.035   0.421   3.787 -0.0233  0.8399 -0.1513
 5022TIP3    H236558   4.885   0.408   3.804 -0.1686  1.8351 -0.5751
 5023TIP3   OH236559   3.428   5.750   1.896 -0.0656 -0.4835 -0.2173
 5023TIP3    H136560   3.335   5.748   1.920 -0.0661  0.9539 -0.0104
 5023TIP3    H236561   3.452   5.658   1.888 -1.6401 -0.8808 -0.8149
 5024TIP3   OH236562   2.537   2.102   0.365 -0.0614  0.3052  0.7887
 5024TIP3    H136563   2.459   2.083   0.417 -0.7368  1.0168  0.0546
 5024TIP3    H236564   2.540   2.197   0.359  1.4725  0.3441  1.6956
 5025TIP3   OH236565   4.074   4.453   0.567  0.1001  0.0846  1.1578
 5025TIP3    H136566   4.129   4.380   0.538 -0.1336 -0.3223  1.7272
 5025TIP3    H236567   4.114   4.482   0.649  0.8288  1.3068  0.4105
 5026TIP3   OH236568   1.547   0.396   3.173 -0.3140 -0.4919  0.2800
 5026TIP3    H136569   1.548   0.301   3.185  0.3149 -0.6508 -0.9162
 5026TIP3    H236570   1.622   0.427   3.224 -1.1231 -0.4949  1.5310
 5027TIP3   OH236571   1.197   5.718   1.210  0.4581 -0.6072  0.0474
 5027TIP3    H136572   1.147   5.700   1.131  1.3647  1.0660 -0.9607
 5027TIP3    H236573   1.131   5.722   1.279 -0.3319 -2.2020 -0.5638
 5028TIP3   OH236574   2.759   0.434  15.759 -0.2861  0.0652  0.3412
 5028TIP3    H136575   2.740   0.349  15.798  0.5141  1.0232  2.9777
 5028TIP3    H236576   2.700   0.494  15.804  1.4865  1.4034  0.9460
 5029TIP3   OH236577   1.789   4.005   5.033 -0.1212 -0.1031  0.0104
 5029TIP3    H136578   1.780   3.942   5.105  0.3927 -2.1978 -1.6575
 5029TIP3    H236579   1.703   4.047   5.027 -0.0623  0.4289  2.0443
 5030TIP3   OH236580   6.069   4.368   1.564 -0.5184  0.4461  0.1756
 5030TIP3    H136581   6.075   4.452   1.520 -0.0507  0.7910  0.8672
 5030TIP3    H236582   6.023   4.387   1.646 -0.0004  0.1215  0.5485
 5031TIP3   OH236583   4.649   0.803  14.249  0.0428 -0.2563  0.1720
 5031TIP3    H136584   4.614   0.768  14.331 -0.3165  0.5315  0.3644
 5031TIP3    H236585   4.602   0.756  14.180 -0.0331 -0.5402  0.4153
 5032TIP3   OH236586   1.690   0.878   4.906 -0.3109  0.0799  0.2359
 5032TIP3    H136587   1.617   0.825   4.873 -0.5782  1.9050 -2.4367
 5032TIP3    H236588   1.766   0.848   4.856  0.3173 -0.2105  1.3327
 5033TIP3   OH236589   3.885   5.913   1.338 -0.7199 -0.8383 -0.3660
 5033TIP3    H136590   3.884   6.007   1.352  0.0241 -0.8402 -0.2532
 5033TIP3    H236591   3.813   5.896   1.278 -0.3514 -0.0922 -1.0320
 5034TIP3   OH236592   0.461   1.626   0.370  0.3109 -0.0235  0.7955
 5034TIP3    H136593   0.418   1.633   0.455  0.1018  2.6372  0.5641
 5034TIP3    H236594   0.429   1.543   0.334 -1.2254 -0.2169  2.4282
 5035TIP3   OH236595   1.344   6.462   0.642  0.0026  0.0775  0.2877
 5035TIP3    H136596   1.296   6.533   0.599 -1.2256 -0.5261  0.6120
 5035TIP3    H236597   1.429   6.500   0.664 -0.7712  1.5920  0.8237
 5036TIP3   OH236598   0.666   5.837  16.751 -0.3000  0.6531 -0.3211
 5036TIP3    H136599   0.725   5.766  16.777 -0.2710  0.4799 -0.8516
 5036TIP3    H236600   0.707   5.876  16.674 -1.5627 -0.3848 -1.5664
 5037TIP3   OH236601   4.362   6.362   1.903 -0.0395 -0.1896 -0.0727
 5037TIP3    H136602   4.287   6.368   1.962  0.9214  1.0413  1.0762
 5037TIP3    H236603   4.436   6.341   1.960  0.9848  1.3884 -0.7349
 5038TIP3   OH236604   4.685   6.313  11.570 -0.3081 -0.2010 -0.5039
 5038TIP3    H136605   4.717   6.247  11.630 -0.4332 -0.9848 -1.2749
 5038TIP3    H236606   4.636   6.264  11.504 -2.9236  0.9157  0.4962
 5039TIP3   OH236607   3.263   6.230  15.148  0.6302  0.2817 -0.2429
 5039TIP3    H136608   3.198   6.184  15.096  0.2176  1.3642 -0.7159
 5039TIP3    H236609   3.246   6.203  15.238  0.5820 -0.6843 -0.5303
 5040TIP3   OH236610   0.131   4.274   2.962  0.9156 -0.3386 -0.1515
 5040TIP3    H136611   0.219   4.244   2.942  2.2324  3.8487 -1.7775
 5040TIP3    H236612   0.142   4.335   3.035  0.1012  2.6322 -2.2825
 5041TIP3   OH236613   0.168   0.910  12.508 -0.0022 -0.2715 -0.3146
 5041TIP3    H136614   0.100   0.929  12.573 -1.3200 -1.1629 -1.3831
 5041TIP3    H236615   0.179   0.992  12.461 -0.0073  0.0025  0.1528
 5042TIP3   OH236616   6.172   4.788  12.370  0.3482 -0.4386  0.3830
 5042TIP3    H136617   6.182   4.883  12.379 -0.6061 -0.3305  0.3884
 5042TIP3    H236618   6.151   4.775  12.277  2.5424 -0.8513 -0.1081
 5043TIP3   OH236619   6.824   4.254  15.159  0.4840  1.1709 -0.0287
 5043TIP3    H136620   6.778   4.331  15.125  2.2979  2.9442  1.2458
 5043TIP3    H236621   6.891   4.290  15.218  1.9400 -1.3562  0.0335
 5044TIP3   OH236622   6.517   1.505  10.409  0.3868  0.1908  0.7988
 5044TIP3    H136623   6.606   1.472  10.408  0.0954 -0.6581  1.5918
 5044TIP3    H236624   6.524   1.590  10.452  0.9828  0.7065 -0.2777
 5045TIP3   OH236625   6.359   1.614  12.994  0.3355 -0.0789  0.6235
 5045TIP3    H136626   6.413   1.616  13.073 -0.1964 -0.9529  1.0106
 5045TIP3    H236627   6.346   1.522  12.975  0.8396  0.1133 -0.7621
 5046TIP3   OH236628   3.011   2.119  11.730 -0.0109 -0.9964 -0.6423
 5046TIP3    H136629   2.983   2.115  11.821 -1.4198  0.6383 -0.9537
 5046TIP3    H236630   2.952   2.182  11.689  2.1919  0.2832 -2.0976
 5047TIP3   OH236631   5.131   0.585   5.156  0.0009 -0.1135 -0.4015
 5047TIP3    H136632   5.148   0.587   5.062  0.2439  0.3169 -0.3535
 5047TIP3    H236633   5.047   0.630   5.166 -0.6782 -1.3039 -0.5338
 5048TIP3   OH236634   2.819   5.608  14.023 -0.6287  0.1708 -0.5229
 5048TIP3    H136635   2.808   5.683  13.966 -0.5324  0.1916 -0.5131
 5048TIP3    H236636   2.824   5.533  13.963 -0.3878  0.2072 -0.5471
 5049TIP3   OH236637   0.514   1.849   4.812  0.3841 -0.1991 -0.1134
 5049TIP3    H136638   0.542   1.930   4.856  1.0933 -0.1375 -0.6731
 5049TIP3    H236639   0.594   1.798   4.801  0.0426 -0.6844 -0.3756
 5050TIP3   OH236640   4.908   6.049   2.567 -0.0049  0.1628  0.9702
 5050TIP3    H136641   4.891   6.019   2.656  2.0206  0.3240  1.4731
 5050TIP3    H236642   4.906   6.145   2.574  1.9626  0.2236  1.3069
 5051TIP3   OH236643   1.717   3.196   3.426 -0.1195  0.0839  0.1856
 5051TIP3    H136644   1.687   3.237   3.507  0.2214 -2.1618  1.5292
 5051TIP3    H236645   1.773   3.261   3.385 -0.3250  1.2932  1.7351
 5052TIP3   OH236646   4.735   1.297   0.611  0.4185 -0.4168  0.0129
 5052TIP3    H136647   4.762   1.308   0.703  0.6620  0.2073 -0.1304
 5052TIP3    H236648   4.792   1.227   0.578  0.6797 -0.2941  0.1975
 5053TIP3   OH236649   1.437   3.993   5.953 -0.2141  0.4122 -0.1627
 5053TIP3    H136650   1.390   3.911   5.964 -0.1130  0.2912 -0.6182
 5053TIP3    H236651   1.529   3.970   5.964 -0.1270  0.3253 -1.0197
 5054TIP3   OH236652   1.699   0.221   4.687  0.3146 -0.5484 -0.2489
 5054TIP3    H136653   1.697   0.162   4.763  0.7844  0.9252  0.9416
 5054TIP3    H236654   1.777   0.195   4.639  1.4336  0.1326  1.1470
 5055TIP3   OH236655   0.875   6.139  14.887 -0.4949  0.1183 -0.3399
 5055TIP3    H136656   0.881   6.089  14.969  3.4817  0.1942 -0.4095
 5055TIP3    H236657   0.838   6.223  14.914 -3.2463 -1.2124  0.5138
 5056TIP3   OH236658   2.890   3.508  12.940 -0.1514 -0.3305  0.4006
 5056TIP3    H136659   2.813   3.481  12.890 -0.9987  0.5084  1.2063
 5056TIP3    H236660   2.877   3.470  13.027 -1.5475  2.7026  1.6828
 5057TIP3   OH236661   3.808   5.514  10.372  0.5610 -0.0593  0.4136
 5057TIP3    H136662   3.811   5.604  10.405  0.3190 -0.0922  0.5260
 5057TIP3    H236663   3.727   5.509  10.322  0.7989 -0.0862  0.0263
 5058TIP3   OH236664   3.049   2.502   5.875  0.5826  0.0952  0.3393
 5058TIP3    H136665   3.032   2.521   5.783  0.2066 -0.2964  0.3226
 5058TIP3    H236666   2.969   2.531   5.920  0.0740 -1.2348  0.3360
 5059TIP3   OH236667   1.014   5.482  13.888  0.0204 -0.2267 -0.1006
 5059TIP3    H136668   1.058   5.399  13.907  0.9603  0.4195  0.6798
 5059TIP3    H236669   1.078   5.548  13.915  0.1396  0.7761 -2.6447
 5060TIP3   OH236670   5.599   5.127  12.152  0.9342  0.6122 -0.4731
 5060TIP3    H136671   5.670   5.080  12.197  0.2142  0.2346  0.3070
 5060TIP3    H236672   5.609   5.218  12.180  0.6403  0.4222  0.2753
 5061TIP3   OH236673   2.809   3.918  16.999 -0.4570  0.0038  0.0350
 5061TIP3    H136674   2.840   4.002  17.033  1.7201 -0.3988 -0.7922
 5061TIP3    H236675   2.715   3.930  16.989 -0.1424  2.6236 -0.7185
 5062TIP3   OH236676   1.765   1.705   1.112 -0.6509  0.4327 -0.4869
 5062TIP3    H136677   1.785   1.792   1.077 -0.1043  1.2511  1.7087
 5062TIP3    H236678   1.682   1.716   1.157 -0.7619 -0.2941 -0.5055
 5063TIP3   OH236679   4.520   0.656  14.048 -0.3303  0.0035  0.2153
 5063TIP3    H136680   4.530   0.583  14.109 -0.9231  0.9457  1.5007
 5063TIP3    H236681   4.590   0.644  13.984 -0.5126 -1.7558  0.2900
 5064TIP3   OH236682   4.794   0.391  15.486  0.6956 -0.3840 -0.1708
 5064TIP3    H136683   4.852   0.437  15.547  0.4462 -0.1267 -0.1286
 5064TIP3    H236684   4.803   0.440  15.404 -0.1156  0.1879  0.0623
 5065TIP3   OH236685   0.314   3.339   3.813  0.2435 -0.1412  0.0702
 5065TIP3    H136686   0.312   3.432   3.789  1.4792  0.0556  0.6311
 5065TIP3    H236687   0.269   3.335   3.898 -1.3455 -0.3526 -0.7409
 5066TIP3   OH236688   3.363   4.260  16.498 -0.3695  1.2830  0.3904
 5066TIP3    H136689   3.411   4.330  16.543  0.3974  1.1584 -0.2211
 5066TIP3    H236690   3.430   4.195  16.476 -0.7855  1.1749 -0.6107
 5067TIP3   OH236691   3.489   6.390   2.705 -0.0336  0.3076  0.3760
 5067TIP3    H136692   3.541   6.447   2.648 -0.2490  0.3298  0.2028
 5067TIP3    H236693   3.407   6.436   2.717 -1.1501 -0.9779 -1.6439
 5068TIP3   OH236694   0.409   0.289  16.533 -0.0696  0.3301  0.2375
 5068TIP3    H136695   0.415   0.373  16.578 -1.2038  0.1409  0.7717
 5068TIP3    H236696   0.467   0.231  16.583 -1.2417  0.1460  1.4452
 5069TIP3   OH236697   1.451   5.198  15.911  0.3347  0.4341  0.0535
 5069TIP3    H136698   1.379   5.259  15.900 -0.3740 -0.2766  0.6791
 5069TIP3    H236699   1.511   5.219  15.840 -1.4778 -0.3637 -1.8135
 5070TIP3   OH236700   1.499   5.201  14.617 -0.3206 -0.2131  0.4197
 5070TIP3    H136701   1.540   5.252  14.687  3.2873  0.3807 -1.8757
 5070TIP3    H236702   1.551   5.121  14.611  1.7545  1.1618 -3.5453
 5071TIP3   OH236703   5.899   1.926  12.128  0.3193 -0.5174  0.1760
 5071TIP3    H136704   5.994   1.926  12.120  0.2556  1.0577 -0.8743
 5071TIP3    H236705   5.874   2.018  12.122 -1.4259 -1.0442 -1.7730
 5072TIP3   OH236706   5.972   5.236   0.950  0.4510  0.1255 -0.3039
 5072TIP3    H136707   5.965   5.305   0.884  1.9505  0.8244  0.2272
 5072TIP3    H236708   6.036   5.175   0.914 -0.2726 -0.5856 -0.4105
 5073TIP3   OH236709   3.865   1.542   0.504 -0.4805  0.7084 -0.5454
 5073TIP3    H136710   3.921   1.608   0.463  2.0582 -0.6184  0.5442
 5073TIP3    H236711   3.860   1.471   0.440  0.3135  0.2366 -0.1039
 5074TIP3   OH236712   2.359   4.489  11.675  0.1089  0.0432 -0.0938
 5074TIP3    H136713   2.296   4.417  11.666 -0.6691  0.5724  0.7918
 5074TIP3    H236714   2.349   4.541  11.595 -0.4530  0.0110 -0.0484
 5075TIP3   OH236715   0.682   2.483   1.551 -0.2430  0.0221 -0.0468
 5075TIP3    H136716   0.671   2.577   1.541 -0.5409 -0.1603 -1.6175
 5075TIP3    H236717   0.642   2.463   1.636  1.0934  1.4959  0.9656
 5076TIP3   OH236718   1.508   0.862  11.625  0.3326 -0.1166 -0.1789
 5076TIP3    H136719   1.577   0.796  11.620  0.5970 -0.1584  2.4567
 5076TIP3    H236720   1.543   0.929  11.683 -1.3155  0.5407  0.1154
 5077TIP3   OH236721   3.795   3.864  17.062  0.1058  0.0647 -0.1870
 5077TIP3    H136722   3.714   3.917  17.063  0.3678  0.5223 -1.3553
 5077TIP3    H236723   3.857   3.915  17.113  0.1123  0.5032 -0.6205
 5078TIP3   OH236724   5.781   5.658   4.680  0.2001 -0.0601 -0.1303
 5078TIP3    H136725   5.760   5.573   4.641  0.4684 -0.6898  1.0588
 5078TIP3    H236726   5.699   5.689   4.717  0.2452 -0.0949 -0.0024
 5079TIP3   OH236727   2.623   3.994   5.934 -0.4505 -0.1901  0.5238
 5079TIP3    H136728   2.671   4.035   6.005 -0.8925  1.3936 -0.0670
 5079TIP3    H236729   2.540   3.968   5.972 -0.7330  0.7647  0.5628
 5080TIP3   OH236730   1.226   6.513   5.599 -0.0028 -0.1506 -0.2191
 5080TIP3    H136731   1.180   6.469   5.528  0.6850  1.5111 -1.7769
 5080TIP3    H236732   1.305   6.460   5.612  0.1875 -0.1233 -1.1606
 5081TIP3   OH236733   5.394   2.009   3.115 -0.2649  0.1694 -0.1696
 5081TIP3    H136734   5.345   1.976   3.040  2.3613 -0.5581 -1.6699
 5081TIP3    H236735   5.429   2.093   3.085 -0.0290  0.3647  0.6297
 5082TIP3   OH236736   0.002   5.674  15.512  0.2182  0.9785 -0.8136
 5082TIP3    H136737  -0.065   5.681  15.580  0.1991 -0.0813 -0.7051
 5082TIP3    H236738  -0.023   5.595  15.463  2.4987 -0.6927  0.5186
 5083TIP3   OH236739   5.335   3.228   0.263 -0.5961  0.0538  0.4207
 5083TIP3    H136740   5.364   3.148   0.305  3.1077  0.2835 -1.3615
 5083TIP3    H236741   5.364   3.298   0.322 -1.2012  0.2084  0.5463
 5084TIP3   OH236742   2.240   0.552  13.220 -0.4219 -0.2213 -0.6285
 5084TIP3    H136743   2.155   0.547  13.178  1.1731 -1.1878 -4.1273
 5084TIP3    H236744   2.264   0.460  13.235 -0.0961  0.0526  0.6526
 5085TIP3   OH236745   3.616   0.589  16.893 -0.2785  0.0928  0.2517
 5085TIP3    H136746   3.651   0.505  16.924  0.6439  1.0577  2.0028
 5085TIP3    H236747   3.530   0.567  16.857 -0.7919 -1.4178  2.1831
 5086TIP3   OH236748   0.756   4.806  13.424  0.1101  0.4874  0.1453
 5086TIP3    H136749   0.833   4.819  13.478 -0.9840  0.1268  1.8598
 5086TIP3    H236750   0.732   4.893  13.393  2.3684  0.3917 -2.1804
 5087TIP3   OH236751   4.695   4.973   3.529  0.1101 -0.6146 -0.6625
 5087TIP3    H136752   4.700   4.882   3.502 -0.0212 -0.7700 -0.1663
 5087TIP3    H236753   4.633   4.974   3.602 -0.2559 -0.0577 -0.9707
 5088TIP3   OH236754   3.057   0.714  10.454  0.0148  0.3796 -0.0126
 5088TIP3    H136755   3.030   0.637  10.404 -0.2684  1.3717 -1.4470
 5088TIP3    H236756   3.152   0.705  10.460 -0.1115 -0.6538  0.8601
 5089TIP3   OH236757   2.808   3.590  13.670 -0.6309  0.0981  0.7000
 5089TIP3    H136758   2.803   3.600  13.575 -1.7992 -0.3500  0.7017
 5089TIP3    H236759   2.750   3.658  13.704  2.6289  2.8407  1.2962
 5090TIP3   OH236760   3.506   1.910  10.725  0.0844 -0.0388  0.0942
 5090TIP3    H136761   3.559   1.853  10.669 -0.6552 -1.8407  1.1320
 5090TIP3    H236762   3.570   1.971  10.763  1.5761 -2.3810  1.5927
 5091TIP3   OH236763   1.579   2.439  11.160 -0.3858 -0.1574 -0.6168
 5091TIP3    H136764   1.516   2.501  11.122  0.3764  0.9557 -0.1163
 5091TIP3    H236765   1.641   2.421  11.090  0.8698  1.6924 -0.0571
 5092TIP3   OH236766   1.418   3.505  14.251  0.1238  0.5306 -0.3831
 5092TIP3    H136767   1.329   3.506  14.284 -0.1437 -0.8254 -0.9674
 5092TIP3    H236768   1.416   3.441  14.179  1.6269  0.2406 -0.2017
 5093TIP3   OH236769   2.327   0.579   4.007 -0.4168  0.3709  0.0904
 5093TIP3    H136770   2.414   0.571   3.968 -0.6882  0.0951 -0.4631
 5093TIP3    H236771   2.303   0.671   3.992  0.0580  0.6347  0.8579
 5094TIP3   OH236772   4.610   0.827  15.569 -0.7352 -0.4535 -0.0509
 5094TIP3    H136773   4.608   0.827  15.665 -1.1915  0.9460 -0.0336
 5094TIP3    H236774   4.698   0.859  15.547 -0.8426 -0.1750 -0.0833
 5095TIP3   OH236775   6.217   4.481  15.365 -0.2551 -0.0386 -0.0113
 5095TIP3    H136776   6.153   4.501  15.433  0.6890  2.9659  0.1394
 5095TIP3    H236777   6.301   4.478  15.410  0.1220 -0.2855 -0.7108
 5096TIP3   OH236778   2.284   0.095  15.881 -0.3646 -0.0067 -0.5771
 5096TIP3    H136779   2.190   0.099  15.898 -0.4165  1.0253 -1.0122
 5096TIP3    H236780   2.320   0.051  15.957 -1.2275 -0.7062 -0.5477
 5097TIP3   OH236781   4.854   4.856  16.693 -0.1437 -0.0936  0.2391
 5097TIP3    H136782   4.771   4.811  16.711  0.3494 -1.4104 -0.6461
 5097TIP3    H236783   4.920   4.787  16.698  0.5941  0.4384 -1.6225
 5098TIP3   OH236784   5.326   5.079  12.653  0.3246  0.9165  0.0972
 5098TIP3    H136785   5.370   5.155  12.616  2.3552  0.0790  0.6173
 5098TIP3    H236786   5.397   5.026  12.689 -1.2415  0.0469  2.1097
 5099TIP3   OH236787   3.834   5.758  13.761  0.4885 -0.2179  0.0720
 5099TIP3    H136788   3.827   5.663  13.759 -1.7435 -0.0998  0.3089
 5099TIP3    H236789   3.775   5.785  13.831  2.0752  1.2955  0.8959
 5100TIP3   OH236790   6.381   3.006  15.790  0.0467 -0.5875 -0.5826
 5100TIP3    H136791   6.427   2.980  15.869  0.3789 -0.1182 -0.6240
 5100TIP3    H236792   6.404   3.097  15.776  2.0384 -1.2863 -2.5975
 5101TIP3   OH236793   3.490   3.474   0.909 -0.2349  0.3098 -0.3081
 5101TIP3    H136794   3.557   3.542   0.905 -2.2201  2.3497 -3.2613
 5101TIP3    H236795   3.536   3.393   0.887  1.7213  1.1143  0.5884
 5102TIP3   OH236796   5.306   6.663  10.383 -0.4231  0.2414 -0.3794
 5102TIP3    H136797   5.362   6.740  10.375 -0.3023  0.2968  0.8749
 5102TIP3    H236798   5.217   6.697  10.379 -0.3882  0.2508 -1.4608
 5103TIP3   OH236799   3.359   6.216   1.023  0.6902  0.5321 -0.0521
 5103TIP3    H136800   3.373   6.157   0.949 -0.6551 -0.6015  0.5463
 5103TIP3    H236801   3.372   6.162   1.101  0.5230  1.3009  0.5306
 5104TIP3   OH236802   1.665   0.060  15.505 -0.1367 -0.1921 -0.6096
 5104TIP3    H136803   1.700  -0.011  15.559  0.1683  1.4809  1.5374
 5104TIP3    H236804   1.739   0.086  15.450  0.1803 -0.6024 -0.3847
 5105TIP3   OH236805   2.684   1.150  12.110  0.6146 -0.0959 -0.1026
 5105TIP3    H136806   2.599   1.114  12.085  0.3892 -1.0852  1.8838
 5105TIP3    H236807   2.748   1.089  12.074  0.3355 -1.0722  1.0153
 5106TIP3   OH236808   3.046   5.891   1.717 -0.3302 -0.2447  0.2554
 5106TIP3    H136809   3.094   5.965   1.755 -0.1967  0.2306 -0.8082
 5106TIP3    H236810   2.954   5.912   1.734 -0.3167  0.3786 -0.3787
 5107TIP3   OH236811   6.392   2.406   3.845  0.0857 -0.2027  0.9916
 5107TIP3    H136812   6.377   2.497   3.870  0.6149 -0.0432  0.7354
 5107TIP3    H236813   6.404   2.360   3.928 -1.1360 -0.2151  1.1693
 5108TIP3   OH236814   5.493   3.256   5.129  0.0268 -0.2768 -0.2487
 5108TIP3    H136815   5.418   3.199   5.115  0.4230 -1.0852  0.7540
 5108TIP3    H236816   5.568   3.196   5.130  0.2673 -0.1347  2.9665
 5109TIP3   OH236817   4.857   1.652   0.292 -0.1995 -0.4562 -0.3455
 5109TIP3    H136818   4.811   1.568   0.291  0.2660 -0.7218 -0.1738
 5109TIP3    H236819   4.926   1.640   0.358 -0.4406  0.2283  0.0335
 5110TIP3   OH236820   3.916   0.354  15.809  0.2185  0.1460 -0.4313
 5110TIP3    H136821   3.887   0.268  15.839  0.1382  1.1252  2.6598
 5110TIP3    H236822   4.011   0.351  15.816  0.2742  0.0566 -1.1575
 5111TIP3   OH236823   3.516   3.242   5.001  0.8780 -0.3516  0.9471
 5111TIP3    H136824   3.435   3.273   5.042  0.6662  0.6797 -0.1975
 5111TIP3    H236825   3.493   3.159   4.961  0.1980  0.2520  0.0682
 5112TIP3   OH236826   2.703   4.446   2.979 -0.0946 -0.2270  0.5841
 5112TIP3    H136827   2.784   4.496   2.992  0.0157 -0.5725  1.2546
 5112TIP3    H236828   2.678   4.418   3.067 -1.4228  0.6164  0.5035
 5113TIP3   OH236829   3.107   0.308  16.782 -0.1208  0.4891 -0.6032
 5113TIP3    H136830   3.133   0.341  16.867  0.9924  0.3670 -0.8823
 5113TIP3    H236831   3.142   0.219  16.778 -2.9722 -0.7807  0.0902
 5114TIP3   OH236832   5.551   0.395   1.167  0.1416  0.1213 -0.5727
 5114TIP3    H136833   5.611   0.464   1.196 -0.7407  0.8905 -0.4956
 5114TIP3    H236834   5.503   0.435   1.094  0.1159 -0.6703 -0.9979
 5115TIP3   OH236835   6.277   5.161   4.553  0.0070  0.1234  0.4597
 5115TIP3    H136836   6.221   5.193   4.482  0.9397  1.0386  0.1013
 5115TIP3    H236837   6.224   5.171   4.632 -0.7290 -0.0886  0.0017
 5116TIP3   OH236838   0.132   0.584  10.725  0.0433  0.1689  0.0358
 5116TIP3    H136839   0.185   0.648  10.678  3.0132 -1.0918  1.3833
 5116TIP3    H236840   0.186   0.505  10.726 -2.9170 -2.0232 -0.4414
 5117TIP3   OH236841   4.843   5.061   5.242 -0.0650  0.2532  0.2496
 5117TIP3    H136842   4.905   5.130   5.221  0.7246 -0.8202 -1.1158
 5117TIP3    H236843   4.843   5.056   5.338  1.5581  0.6413  0.2956
 5118TIP3   OH236844   1.931   4.975  15.758 -0.9582 -0.4357  0.2627
 5118TIP3    H136845   1.839   4.959  15.780 -0.3532 -4.9757  0.3452
 5118TIP3    H236846   1.975   4.984  15.842 -0.9827 -0.7344  0.3070
 5119TIP3   OH236847   0.844   5.781  11.188  0.2098  0.1357  0.1458
 5119TIP3    H136848   0.927   5.743  11.158  1.4946  3.0834 -0.3258
 5119TIP3    H236849   0.870   5.848  11.251 -2.0044 -0.1902  1.5064
 5120TIP3   OH236850   6.594   5.466  16.946 -0.3105 -0.5185  0.5254
 5120TIP3    H136851   6.625   5.387  16.990 -1.3395 -0.9507  0.5174
 5120TIP3    H236852   6.571   5.526  17.018  0.5133 -0.2033  0.5311
 5121TIP3   OH236853   3.842   1.513  15.611 -0.4669 -0.8000 -0.4285
 5121TIP3    H136854   3.925   1.559  15.621  0.1497 -2.3039  2.3863
 5121TIP3    H236855   3.781   1.580  15.581  1.1295  1.0021  0.1544
 5122TIP3   OH236856   0.635   0.177  16.648  0.4853 -0.1994 -1.2135
 5122TIP3    H136857   0.712   0.197  16.701  0.6056 -0.0819 -1.4344
 5122TIP3    H236858   0.609   0.090  16.677 -1.9902  1.4017  2.1643
 5123TIP3   OH236859   6.037   2.741   6.219 -0.1129 -0.3838 -0.0413
 5123TIP3    H136860   6.025   2.836   6.229  0.3209 -0.4298  0.9849
 5123TIP3    H236861   5.951   2.704   6.238  0.6534 -0.4792  4.0071
 5124TIP3   OH236862   1.997   0.610  12.512  0.3848  1.0634 -0.4720
 5124TIP3    H136863   1.939   0.618  12.588  0.2352  0.1242 -0.4729
 5124TIP3    H236864   2.086   0.612  12.549  0.3437  1.8683 -0.4075
 5125TIP3   OH236865   5.916   0.648   5.670  0.0240  0.1570 -0.1414
 5125TIP3    H136866   5.961   0.638   5.755 -0.4429  0.1763  0.1094
 5125TIP3    H236867   5.881   0.737   5.672  0.0614  0.1757 -0.3804
 5126TIP3   OH236868   4.051   2.707   3.441 -0.2785  0.3089 -0.2282
 5126TIP3    H136869   3.970   2.711   3.493 -1.1831 -0.0311 -1.5590
 5126TIP3    H236870   4.101   2.635   3.478 -0.2764  0.9235  1.0173
 5127TIP3   OH236871   2.524   0.457   1.794 -0.0714  0.3585  0.1999
 5127TIP3    H136872   2.457   0.493   1.735 -1.1809  0.5592  1.5293
 5127TIP3    H236873   2.477   0.390   1.845  0.6840  0.6471  1.2944
 5128TIP3   OH236874   6.157   2.217   2.958  0.3348 -1.0343 -0.9538
 5128TIP3    H136875   6.141   2.306   2.926  1.1104 -0.1601  0.9350
 5128TIP3    H236876   6.069   2.177   2.964 -0.3072  0.4514  0.3896
 5129TIP3   OH236877   6.503   0.615  15.003  0.5187 -0.3778 -0.0810
 5129TIP3    H136878   6.436   0.683  14.999  1.5165  0.6139 -0.3920
 5129TIP3    H236879   6.455   0.534  15.019 -0.6019  0.5720  1.6540
 5130TIP3   OH236880   5.719   6.272  11.042  0.0536 -0.3079  0.0605
 5130TIP3    H136881   5.749   6.184  11.023 -0.6569 -0.6303  0.4149
 5130TIP3    H236882   5.798   6.326  11.036  0.9814 -1.3194  2.1419
 5131TIP3   OH236883   4.570   5.268  13.057  0.3412  0.2078  0.3418
 5131TIP3    H136884   4.612   5.339  13.008  0.1908  0.1019  0.0594
 5131TIP3    H236885   4.485   5.303  13.081 -0.1500 -0.2434 -0.6913
 5132TIP3   OH236886   4.964   0.839   3.027 -0.1899  0.4238 -0.2065
 5132TIP3    H136887   4.984   0.932   3.036 -0.9273  0.5933 -0.3069
 5132TIP3    H236888   4.888   0.824   3.084 -0.1651 -0.0865 -0.2966
 5133TIP3   OH236889   5.808   6.571   4.547  0.2449  0.2507 -0.6307
 5133TIP3    H136890   5.787   6.514   4.621 -0.8669  0.4300 -0.7769
 5133TIP3    H236891   5.774   6.524   4.471  1.0434  0.2367 -0.9819
 5134TIP3   OH236892   6.829   3.845  15.071  0.8367 -0.4237  0.2157
 5134TIP3    H136893   6.846   3.761  15.028  0.4936 -0.6403  0.4931
 5134TIP3    H236894   6.915   3.886  15.077  0.8843 -0.3585 -0.7318
 5135TIP3   OH236895   6.100   4.785   2.144  0.5383  0.4442 -0.3962
 5135TIP3    H136896   6.041   4.710   2.145 -1.1669  1.6998 -0.8710
 5135TIP3    H236897   6.183   4.751   2.109  0.5591 -1.6636  1.5160
 5136TIP3   OH236898   0.613   3.628   4.462 -0.2902 -0.2891  0.5892
 5136TIP3    H136899   0.644   3.709   4.422 -1.2356  0.6655  1.7157
 5136TIP3    H236900   0.530   3.609   4.418 -0.9734  0.3721  1.5505
 5137TIP3   OH236901   2.627   1.578   5.267  0.4895 -0.0317 -0.2404
 5137TIP3    H136902   2.697   1.515   5.282  1.2729  1.1886  1.5059
 5137TIP3    H236903   2.671   1.656   5.234 -0.1934  0.3518 -0.2687
 5138TIP3   OH236904   6.436   0.185  12.821 -0.3417 -0.1181  0.1845
 5138TIP3    H136905   6.501   0.119  12.846  1.6790  1.2623 -1.1085
 5138TIP3    H236906   6.425   0.239  12.899  0.0773 -0.3536  0.4087
 5139TIP3   OH236907   4.450   3.748   4.775  0.0545 -0.1401  0.2175
 5139TIP3    H136908   4.374   3.741   4.833  0.1106  0.8860  0.4381
 5139TIP3    H236909   4.517   3.788   4.830 -0.3460  2.2918 -0.9125
 5140TIP3   OH236910   1.962   4.818   0.635  0.2846 -0.1619 -0.0826
 5140TIP3    H136911   1.910   4.897   0.648 -0.4493 -0.7860  0.9431
 5140TIP3    H236912   1.945   4.792   0.544 -0.1602  0.3670 -0.1516
 5141TIP3   OH236913   0.554   2.986  13.104  0.0522  0.2041 -0.3177
 5141TIP3    H136914   0.636   3.024  13.075 -0.2501  2.1504  1.1402
 5141TIP3    H236915   0.488   3.020  13.044  0.0310  0.4251 -0.1691
 5142TIP3   OH236916   3.669   3.304   5.557  0.3903  0.6867 -0.0982
 5142TIP3    H136917   3.593   3.321   5.502 -0.8444 -1.8037  0.6966
 5142TIP3    H236918   3.641   3.234   5.617  3.3317 -0.4654  0.1174
 5143TIP3   OH236919   3.149   1.216   5.435 -0.0125 -0.1662 -0.8865
 5143TIP3    H136920   3.085   1.272   5.480  1.7639  1.5887 -0.4184
 5143TIP3    H236921   3.145   1.133   5.481 -0.3212  0.6596  0.6488
 5144TIP3   OH236922   0.406   6.340  14.351 -0.8505 -0.2082  0.2773
 5144TIP3    H136923   0.497   6.365  14.336 -0.2562 -1.4920  1.4888
 5144TIP3    H236924   0.403   6.316  14.444 -2.3093 -0.6192  0.1423
 5145TIP3   OH236925   3.704   6.377   4.749  0.2144  0.0128 -0.3383
 5145TIP3    H136926   3.787   6.366   4.796 -1.0596 -0.8402  1.8463
 5145TIP3    H236927   3.673   6.288   4.733 -0.1498  0.3195 -1.4295
 5146TIP3   OH236928   4.680   2.614   5.123 -0.0262 -0.5608 -0.6422
 5146TIP3    H136929   4.618   2.627   5.194 -0.5572 -2.9095 -0.5885
 5146TIP3    H236930   4.629   2.574   5.053  0.8290  0.2352 -1.7652
 5147TIP3   OH236931   3.330   1.433  15.104  0.3797  0.2316  0.4813
 5147TIP3    H136932   3.364   1.346  15.122 -0.9214 -0.1469  1.2222
 5147TIP3    H236933   3.252   1.441  15.159  0.1027  1.6156 -0.0526
 5148TIP3   OH236934   2.533   0.074   1.500  0.0324 -0.3575  0.2885
 5148TIP3    H136935   2.512   0.033   1.416 -1.4999 -1.0343  0.9756
 5148TIP3    H236936   2.512   0.166   1.488 -0.1462 -0.4445 -0.0854
 5149TIP3   OH236937   0.231   0.523   0.145 -0.3213 -0.7306  0.1044
 5149TIP3    H136938   0.307   0.574   0.174 -0.2626 -1.5191  1.4031
 5149TIP3    H236939   0.237   0.523   0.049  2.7420 -2.8035  0.1456
 5150TIP3   OH236940   4.015   5.268   4.575  0.4070  0.0894 -0.1818
 5150TIP3    H136941   4.059   5.286   4.658  0.1022 -1.7568  0.4283
 5150TIP3    H236942   4.054   5.329   4.513  0.6807  1.4745  1.3016
 5151TIP3   OH236943   5.307   1.694  11.582 -0.0960  0.1692  0.2769
 5151TIP3    H136944   5.329   1.765  11.522 -1.7281  0.2195 -0.2940
 5151TIP3    H236945   5.365   1.708  11.657  0.9740  0.9398 -0.6447
 5152TIP3   OH236946   2.637   2.421  11.723  0.8527 -0.5981  0.2272
 5152TIP3    H136947   2.664   2.438  11.813 -0.2570  1.7946  0.1843
 5152TIP3    H236948   2.635   2.507  11.681  1.5816 -1.6635 -2.1880
 5153TIP3   OH236949   3.996   0.993  11.333  0.2297 -0.0356 -0.7660
 5153TIP3    H136950   3.905   0.988  11.305 -0.3038  1.3978  0.5940
 5153TIP3    H236951   4.019   1.085  11.325  0.4623  0.2369  2.0652
 5154TIP3   OH236952   0.690   1.231   3.576 -0.8486 -0.4323 -0.3785
 5154TIP3    H136953   0.617   1.247   3.517 -0.7295 -0.9448 -0.6716
 5154TIP3    H236954   0.682   1.138   3.600 -1.2624 -0.0764  0.9156
 5155TIP3   OH236955   4.623   1.981  16.377  0.7206  0.5886 -0.3582
 5155TIP3    H136956   4.713   2.011  16.391  0.6474  1.2409 -1.2365
 5155TIP3    H236957   4.631   1.898  16.330  0.8932 -0.3132  1.1826
 5156TIP3   OH236958   2.156   1.653   0.662  0.0271 -0.4628  0.1076
 5156TIP3    H136959   2.215   1.600   0.715  0.3594  0.6197  0.8730
 5156TIP3    H236960   2.081   1.596   0.645  1.5112 -2.0651 -1.4055
 5157TIP3   OH236961   1.693   3.549   4.277  0.7862  0.0291 -0.4014
 5157TIP3    H136962   1.768   3.514   4.228  1.5084  2.7987 -1.4463
 5157TIP3    H236963   1.732   3.599   4.349 -0.2231 -1.6888  1.4382
 5158TIP3   OH236964   0.277   1.485  11.225  0.4103  0.2264  0.0621
 5158TIP3    H136965   0.321   1.569  11.239  3.0901 -1.2586  1.3230
 5158TIP3    H236966   0.184   1.505  11.233  0.9659  2.9916  0.6802
 5159TIP3   OH236967   4.536   6.744   0.243  0.1221  0.3466  0.0604
 5159TIP3    H136968   4.501   6.808   0.304  1.1528  1.2675 -0.2670
 5159TIP3    H236969   4.598   6.794   0.189  1.2660 -1.0039  0.0597
 5160TIP3   OH236970   4.154   6.330  16.582  0.6528 -0.3592  0.3912
 5160TIP3    H136971   4.181   6.372  16.663  0.7366  1.3086 -0.4756
 5160TIP3    H236972   4.236   6.303  16.540  0.6851  0.0791  0.1755
 5161TIP3   OH236973   2.479   4.217  12.895 -0.2690 -0.1330  0.5758
 5161TIP3    H136974   2.556   4.270  12.871  0.6088 -1.0324  1.3138
 5161TIP3    H236975   2.425   4.277  12.946  0.1744  0.3771  0.4627
 5162TIP3   OH236976   3.314   5.247  15.315  0.1939 -0.2337 -0.2870
 5162TIP3    H136977   3.378   5.285  15.374 -0.9816 -0.9635  1.5621
 5162TIP3    H236978   3.288   5.165  15.357 -1.8854  0.0027 -0.9732
 5163TIP3   OH236979   4.816   2.433  15.051 -0.1173 -0.2918 -0.6021
 5163TIP3    H136980   4.735   2.483  15.040 -0.0128 -0.1815 -0.8876
 5163TIP3    H236981   4.800   2.379  15.129  1.0386  2.6330  1.8433
 5164TIP3   OH236982   0.364   5.434  15.738  0.2463  0.6600 -0.4207
 5164TIP3    H136983   0.449   5.394  15.721 -0.2409 -0.0465 -1.3215
 5164TIP3    H236984   0.304   5.360  15.747 -0.6948  1.1335 -2.2122
 5165TIP3   OH236985   3.650   6.201  11.294 -0.6423  0.6175  0.0838
 5165TIP3    H136986   3.617   6.216  11.205  0.3304 -0.6772 -0.5409
 5165TIP3    H236987   3.576   6.161  11.340 -0.2338 -1.7484 -1.1330
 5166TIP3   OH236988   5.586   2.919   6.051  0.3501 -0.3045 -0.2516
 5166TIP3    H136989   5.578   2.845   6.111  0.0869 -0.2597 -0.2311
 5166TIP3    H236990   5.618   2.990   6.105 -0.3055 -0.1407 -0.0617
 5167TIP3   OH236991   3.143   0.942  12.307 -0.2557 -0.0401 -0.2482
 5167TIP3    H136992   3.086   0.875  12.346  1.0866  0.5775  3.1499
 5167TIP3    H236993   3.114   1.024  12.347 -0.1022  1.0290 -2.2361
 5168TIP3   OH236994   4.302   3.151  12.787 -0.6529 -0.0973  0.0888
 5168TIP3    H136995   4.255   3.069  12.803 -0.1763 -0.5646 -0.8311
 5168TIP3    H236996   4.263   3.214  12.847 -1.5813 -0.8004  0.2307
 5169TIP3   OH236997   5.188   5.846   2.957 -0.0076  0.6257 -0.1060
 5169TIP3    H136998   5.250   5.919   2.954 -0.5551  1.1398  0.6968
 5169TIP3    H236999   5.197   5.810   3.045  0.7211 -0.7127 -0.6862
 5170TIP3   OH237000   6.399   4.724  16.302  0.2539  0.3331  0.2514
 5170TIP3    H137001   6.340   4.798  16.285  2.5841  1.8014 -2.3045
 5170TIP3    H237002   6.381   4.663  16.231  0.5977 -0.0447  0.4852
 5171TIP3   OH237003   5.424   4.593  14.214 -0.1019  0.3050  0.7523
 5171TIP3    H137004   5.477   4.575  14.291  0.4564 -1.3667  0.0158
 5171TIP3    H237005   5.389   4.681  14.229  1.9168  0.9854  1.8040
 5172TIP3   OH237006   2.799   4.989   3.247 -0.6864  0.2562  0.0530
 5172TIP3    H137007   2.735   4.980   3.176  1.3597 -2.1620 -1.6985
 5172TIP3    H237008   2.865   5.049   3.213 -0.2873  0.0286  0.4143
 5173TIP3   OH237009   5.079   6.272   3.882  0.1339  0.2348  0.3039
 5173TIP3    H137010   5.144   6.333   3.847 -0.3167  1.0382  0.8322
 5173TIP3    H237011   5.023   6.326   3.937 -1.3579 -0.3198 -0.6082
 5174TIP3   OH237012   5.984   5.791   0.469  0.7220  0.1031  0.4117
 5174TIP3    H137013   5.891   5.776   0.449  1.1370  0.2793 -2.0620
 5174TIP3    H237014   6.006   5.723   0.532 -0.2609 -2.4057 -1.7560
 5175TIP3   OH237015   2.936   4.716   2.752  0.0060  0.7486  0.1031
 5175TIP3    H137016   2.847   4.752   2.747 -0.2087  0.4491  1.4556
 5175TIP3    H237017   2.981   4.773   2.815  0.2276 -0.1821  0.8041
 5176TIP3   OH237018   6.356   1.574   1.509  0.0641  0.3088  0.2972
 5176TIP3    H137019   6.387   1.663   1.493  1.1798  0.1171  1.2650
 5176TIP3    H237020   6.372   1.527   1.427  0.7282  0.6664  0.2188
 5177TIP3   OH237021   0.577   2.546   2.583 -0.2007  0.6910 -0.4316
 5177TIP3    H137022   0.581   2.481   2.653  1.7346  1.4750  0.2505
 5177TIP3    H237023   0.486   2.576   2.583 -0.6343 -0.5474  0.5935
 5178TIP3   OH237024   4.417   4.717   4.654  0.0690  0.3196 -0.1706
 5178TIP3    H137025   4.510   4.712   4.678 -0.3489 -0.4799  1.4906
 5178TIP3    H237026   4.396   4.629   4.624 -0.3818  0.2002  0.4746
 5179TIP3   OH237027   4.974   4.529   5.489  0.1712  0.7547  0.0579
 5179TIP3    H137028   4.987   4.614   5.531  0.1153  0.5509  0.4958
 5179TIP3    H237029   4.914   4.483   5.546 -0.5834  0.7794 -0.6971
 5180TIP3   OH237030   3.273   4.385   3.382  1.1409 -0.1860  0.0668
 5180TIP3    H137031   3.245   4.400   3.292  1.4722  0.8821  0.1193
 5180TIP3    H237032   3.369   4.390   3.378  1.2107 -1.0888  0.3301
 5181TIP3   OH237033   5.363   3.050  16.781 -0.0833 -0.1444 -0.4344
 5181TIP3    H137034   5.454   3.039  16.808 -0.0853  0.6619 -0.0764
 5181TIP3    H237035   5.357   3.002  16.698  0.5040 -0.7134 -0.1616
 5182TIP3   OH237036   4.657   5.245   3.483 -0.0589 -0.2243  0.1058
 5182TIP3    H137037   4.664   5.150   3.486 -2.3509 -0.6432 -2.7968
 5182TIP3    H237038   4.705   5.270   3.404  1.5009  1.2331  1.4486
 5183TIP3   OH237039   2.495   6.756  13.039 -0.4914  0.3222  0.7029
 5183TIP3    H137040   2.521   6.739  13.129  0.0694  0.6489  0.6046
 5183TIP3    H237041   2.529   6.843  13.020 -1.5112  0.6912  0.5099
 5184TIP3   OH237042   0.071   0.537   0.362  0.1201  0.2285  0.6035
 5184TIP3    H137043   0.150   0.519   0.311 -1.6266 -2.0495 -1.5681
 5184TIP3    H237044   0.001   0.492   0.314 -2.5285  2.1291  2.3996
 5185TIP3   OH237045   0.183   0.214  13.864 -0.4370  0.1988  0.1653
 5185TIP3    H137046   0.234   0.163  13.926 -0.7155 -0.3873 -0.0807
 5185TIP3    H237047   0.098   0.227  13.907  0.0813  1.6390  0.8074
 5186TIP3   OH237048   4.193   4.185  14.721  0.4367 -0.1982  0.3775
 5186TIP3    H137049   4.103   4.218  14.719  0.3342 -0.4832  0.2325
 5186TIP3    H237050   4.245   4.255  14.683  0.5561  0.8022  2.2516
 5187TIP3   OH237051   4.433   6.235  14.293  0.1273  0.6996 -0.2122
 5187TIP3    H137052   4.353   6.182  14.297  0.1643  0.5273 -1.4434
 5187TIP3    H237053   4.501   6.178  14.330 -0.2294  0.7048  0.4795
 5188TIP3   OH237054   1.652   3.414  15.865 -0.0564 -0.3979  0.6006
 5188TIP3    H137055   1.665   3.330  15.910 -0.7573 -1.3379 -0.8717
 5188TIP3    H237056   1.727   3.422  15.807 -1.2689 -1.3541 -1.1980
 5189TIP3   OH237057   1.306   6.571  13.549  0.0350 -0.1974  0.0265
 5189TIP3    H137058   1.357   6.568  13.468 -0.2024  0.6615 -0.1657
 5189TIP3    H237059   1.259   6.654  13.545  0.1371 -0.0692  1.1211
 5190TIP3   OH237060   3.451   4.295  16.171 -0.6348 -0.0188  0.1047
 5190TIP3    H137061   3.387   4.256  16.231 -0.8449  0.4968  0.2166
 5190TIP3    H237062   3.401   4.311  16.091 -0.2674 -1.0403 -0.3400
 5191TIP3   OH237063   4.056   5.399  15.794  0.1336  0.1962 -0.2685
 5191TIP3    H137064   4.086   5.477  15.747  1.1424 -0.1354 -0.1908
 5191TIP3    H237065   4.136   5.355  15.823 -0.4136 -0.7959 -0.1846
 5192TIP3   OH237066   5.719   6.836  13.829  0.5074  0.6404 -0.0231
 5192TIP3    H137067   5.670   6.871  13.903 -1.7577 -1.0961 -0.6115
 5192TIP3    H237068   5.667   6.762  13.797  2.6722 -0.2663 -1.7855
 5193TIP3   OH237069   0.880   2.585  11.651 -0.2880 -0.3201  0.4498
 5193TIP3    H137070   0.845   2.513  11.704 -0.0334  0.0542  1.1420
 5193TIP3    H237071   0.811   2.603  11.587 -0.7195 -0.6003  0.8313
 5194TIP3   OH237072   6.345   3.913  11.352 -0.1082 -0.6086 -0.1760
 5194TIP3    H137073   6.250   3.915  11.358 -0.0189  1.4398  1.7244
 5194TIP3    H237074   6.375   3.959  11.430  2.4259  0.1191 -1.4816
 5195TIP3   OH237075   1.437   1.469  11.893 -0.1753 -0.0261 -0.4152
 5195TIP3    H137076   1.442   1.459  11.988 -3.4083  1.4189  0.0335
 5195TIP3    H237077   1.470   1.557  11.875 -0.6191  0.1226 -0.5011
 5196TIP3   OH237078   5.954   4.497  11.110  0.2467  0.5478 -0.0399
 5196TIP3    H137079   5.936   4.520  11.019 -0.6096  0.7629  0.1787
 5196TIP3    H237080   5.971   4.402  11.107  0.4524  0.5931 -0.4504
 5197TIP3   OH237081   3.469   2.429   4.330 -0.5098  0.3687  0.1033
 5197TIP3    H137082   3.550   2.457   4.374 -1.3699  0.1386  1.9249
 5197TIP3    H237083   3.404   2.427   4.400 -2.1036  0.5257 -1.3237
 5198TIP3   OH237084   4.228   2.156   1.076  0.0796 -0.1813  0.2305
 5198TIP3    H137085   4.317   2.180   1.102  0.3857  1.3635 -1.9860
 5198TIP3    H237086   4.171   2.214   1.128  0.5906  1.4941 -0.9718
 5199TIP3   OH237087   1.390   2.989   1.459  0.4511  0.1427 -0.2445
 5199TIP3    H137088   1.398   3.082   1.443  2.7839  0.0102 -0.1552
 5199TIP3    H237089   1.321   2.982   1.526 -0.2843  1.6886 -0.7951
 5200TIP3   OH237090   2.386   1.429   4.249 -0.2104 -0.4006 -0.8952
 5200TIP3    H137091   2.347   1.408   4.164 -1.5741  0.5357 -0.5458
 5200TIP3    H237092   2.432   1.350   4.275 -1.0065 -1.2091 -1.8455
 5201TIP3   OH237093   6.568   4.439   1.502  0.7146  0.3113  0.2149
 5201TIP3    H137094   6.658   4.469   1.503  2.2517 -3.7211  1.0290
 5201TIP3    H237095   6.560   4.389   1.420  0.3241 -1.9835  1.5650
 5202TIP3   OH237096   0.559   4.453  16.771 -0.1604 -0.1951  0.0520
 5202TIP3    H137097   0.489   4.434  16.833 -1.2903  0.9082 -0.8280
 5202TIP3    H237098   0.617   4.376  16.775  0.1898  0.1106  2.9109
 5203TIP3   OH237099   1.220   5.118   4.785 -0.3988  0.7988 -0.6802
 5203TIP3    H137100   1.278   5.135   4.710  0.5544 -2.3508 -0.8038
 5203TIP3    H237101   1.261   5.164   4.858  0.7876  0.8052 -1.3275
 5204TIP3   OH237102   1.738   0.506   3.318 -0.0381  0.1618 -0.1059
 5204TIP3    H137103   1.748   0.417   3.350  0.9691  0.8070  1.4781
 5204TIP3    H237104   1.763   0.561   3.392 -0.5541  1.7654 -1.0786
 5205TIP3   OH237105   0.211   6.037   0.259  0.0567  0.0463 -0.1505
 5205TIP3    H137106   0.118   6.057   0.268  0.1563  0.3186  0.2815
 5205TIP3    H237107   0.213   5.949   0.220 -0.3841 -0.3957  0.8048
 5206TIP3   OH237108   3.486   4.604   5.290 -1.0029  0.4770  0.3504
 5206TIP3    H137109   3.423   4.664   5.250  0.7101  2.4249  0.4249
 5206TIP3    H237110   3.532   4.564   5.216 -0.2327  1.4236  0.2992
 5207TIP3   OH237111   5.607   5.957   2.756  0.0021  0.3309  0.1598
 5207TIP3    H137112   5.594   6.041   2.713 -1.4374 -0.0367 -0.1727
 5207TIP3    H237113   5.700   5.939   2.747  0.1301  1.3846 -0.6964
 5208TIP3   OH237114   0.471   1.336  14.109 -0.1958 -0.3787 -0.1464
 5208TIP3    H137115   0.539   1.357  14.045 -1.2384 -0.6027 -1.3843
 5208TIP3    H237116   0.389   1.363  14.066 -0.9816 -1.0921  0.8547
 5209TIP3   OH237117   3.988   6.444  15.110  0.2628  0.1113  0.6111
 5209TIP3    H137118   4.061   6.473  15.056 -0.0043  0.6931  0.5593
 5209TIP3    H237119   3.926   6.406  15.049 -0.8637  2.3950  0.2326
 5210TIP3   OH237120   5.467   5.299   1.938 -0.1468  0.0791 -0.2383
 5210TIP3    H137121   5.481   5.351   1.859 -2.1942  1.3940  0.1771
 5210TIP3    H237122   5.501   5.212   1.916  0.7653  0.8250 -1.9746
 5211TIP3   OH237123   2.281   4.806  13.994 -0.3103  0.5371  0.1690
 5211TIP3    H137124   2.318   4.720  14.010  1.4310  1.2155  0.0556
 5211TIP3    H237125   2.309   4.829  13.905  0.6228  1.8153  0.7419
 5212TIP3   OH237126   3.080   3.320  13.943  0.3175  0.0613  0.2360
 5212TIP3    H137127   3.129   3.377  13.884  0.3751 -0.2309  0.0004
 5212TIP3    H237128   3.092   3.359  14.029  0.8581  0.0626  0.1624
 5213TIP3   OH237129   3.142   5.928  14.623  0.0312 -0.0872 -0.2769
 5213TIP3    H137130   3.158   6.004  14.679 -3.1528 -0.4571  1.4038
 5213TIP3    H237131   3.119   5.858  14.685  1.0706 -1.9316 -1.8752
 5214TIP3   OH237132   2.847   1.019   2.058 -0.0989  0.5272  0.1183
 5214TIP3    H137133   2.809   1.083   1.998  0.1952 -0.9651 -1.7268
 5214TIP3    H237134   2.810   0.935   2.031  1.1402 -0.3756  1.1137
 5215TIP3   OH237135   2.103   5.273  15.778  0.2574  0.4497 -0.3442
 5215TIP3    H137136   2.164   5.279  15.851 -0.7191 -0.5461  0.6026
 5215TIP3    H237137   2.071   5.362  15.765  0.2345  0.5922  0.6469
 5216TIP3   OH237138   6.132   2.943   3.236 -0.3567 -0.1662  0.0125
 5216TIP3    H137139   6.085   2.880   3.290  1.6624  0.2618  2.5132
 5216TIP3    H237140   6.083   3.025   3.246 -0.9563 -0.4905 -0.2357
 5217TIP3   OH237141   2.643   4.805  13.931 -0.4369  0.3057 -0.0040
 5217TIP3    H137142   2.678   4.856  14.004  1.2654  0.6134 -0.9820
 5217TIP3    H237143   2.548   4.809  13.942 -0.2848  2.0281  1.0691
 5218TIP3   OH237144   1.275   0.195  13.222 -0.5275 -0.5861 -0.3781
 5218TIP3    H137145   1.252   0.277  13.179  0.4268 -1.3977 -2.5894
 5218TIP3    H237146   1.314   0.142  13.153  0.6308 -2.1982  1.4033
 5219TIP3   OH237147   4.031   1.390   2.747 -0.1073  0.2731  0.2261
 5219TIP3    H137148   3.953   1.434   2.715 -0.5606 -1.3413 -1.0519
 5219TIP3    H237149   4.102   1.420   2.690  0.0830  1.1713  0.9151
 5220TIP3   OH237150   4.920   3.527  17.088  0.2771  0.4324  0.3648
 5220TIP3    H137151   4.981   3.586  17.044 -0.7525  1.4400  0.2319
 5220TIP3    H237152   4.853   3.509  17.022 -0.1502  0.2294  0.8472
 5221TIP3   OH237153   4.999   4.955  14.211  0.8567  0.2077  0.3380
 5221TIP3    H137154   4.915   4.910  14.197 -0.0245  1.6806  0.6828
 5221TIP3    H237155   5.049   4.895  14.265 -0.4202 -0.2167  1.0939
 5222TIP3   OH237156   4.045   6.460   6.096 -0.2125  0.3449 -0.3424
 5222TIP3    H137157   4.018   6.505   6.015 -0.1123  0.9545 -0.0442
 5222TIP3    H237158   4.132   6.494   6.114  0.1375 -0.4682 -0.4572
 5223TIP3   OH237159   6.747   3.176   6.498 -0.2811  0.6690  0.2392
 5223TIP3    H137160   6.712   3.265   6.501  0.4896  1.0272 -0.8090
 5223TIP3    H237161   6.675   3.123   6.466 -0.4555  1.0831 -0.0728
 5224TIP3   OH237162   6.783   6.752  14.536  0.3178 -0.1495  0.2915
 5224TIP3    H137163   6.690   6.774  14.529  0.1461 -0.5057  1.3957
 5224TIP3    H237164   6.786   6.678  14.596  1.3241 -0.1136  0.2948
 5225TIP3   OH237165   5.466   4.630   3.954 -0.3287 -0.1265 -0.0098
 5225TIP3    H137166   5.553   4.595   3.973 -0.9114 -0.5288  2.2373
 5225TIP3    H237167   5.419   4.558   3.911 -0.0690 -0.4935  0.3191
 5226TIP3   OH237168   3.595   5.378  11.265  0.6926 -0.0256  0.0296
 5226TIP3    H137169   3.659   5.411  11.202  0.5194  0.4114  0.0759
 5226TIP3    H237170   3.601   5.283  11.259  1.0884  0.0158 -0.2265
 5227TIP3   OH237171   0.088   3.293  11.029 -0.2281 -0.2544  0.3605
 5227TIP3    H137172   0.093   3.315  11.122 -1.5630  1.7238  0.0256
 5227TIP3    H237173  -0.001   3.316  11.003  0.7637  1.4863 -1.9040
 5228TIP3   OH237174   0.771   4.021  16.914  0.2059 -0.1680 -0.3158
 5228TIP3    H137175   0.701   3.963  16.944 -2.3960  3.1537  0.7154
 5228TIP3    H237176   0.840   4.012  16.979 -0.4530 -1.4971  0.2237
 5229TIP3   OH237177   1.658   3.550  12.075 -0.0844  0.9202  0.0237
 5229TIP3    H137178   1.666   3.546  12.171 -0.4792 -0.0577  0.0312
 5229TIP3    H237179   1.596   3.622  12.059 -1.1498  0.1619  0.5900
 5230TIP3   OH237180   6.412   1.868  11.807  0.6954 -0.0223  0.0830
 5230TIP3    H137181   6.356   1.939  11.837 -0.5142 -0.2996 -1.4039
 5230TIP3    H237182   6.498   1.887  11.846  0.3660  2.1308 -0.1235
 5231TIP3   OH237183   0.100   0.568   2.674  0.8747  0.2268  0.1127
 5231TIP3    H137184   0.040   0.640   2.694 -1.2307 -1.0720 -1.1834
 5231TIP3    H237185   0.132   0.588   2.586  0.4433 -0.2834 -0.1673
 5232TIP3   OH237186   6.639   0.652  16.871 -0.0492  0.3713 -0.6761
 5232TIP3    H137187   6.575   0.597  16.825  0.4501 -0.0375 -0.8878
 5232TIP3    H237188   6.716   0.596  16.881  0.9197  1.3971 -1.9872
 5233TIP3   OH237189   4.187   1.431  13.982 -0.2638 -0.0942  0.4495
 5233TIP3    H137190   4.117   1.398  13.927  0.3444  1.2081 -1.1698
 5233TIP3    H237191   4.177   1.526  13.980  0.4167  0.0293  1.7344
 5234TIP3   OH237192   3.694   0.342  16.964  0.3771 -0.0160  0.4419
 5234TIP3    H137193   3.622   0.308  17.017 -0.2735  0.5326 -0.0641
 5234TIP3    H237194   3.707   0.276  16.896  1.2117 -0.7185  1.2676
 5235TIP3   OH237195   6.195   3.997   1.256 -0.9386  0.1086 -0.4398
 5235TIP3    H137196   6.158   4.044   1.331 -1.4832 -2.0697  0.7309
 5235TIP3    H237197   6.131   4.011   1.185 -1.9778 -0.2526  0.3935
 5236TIP3   OH237198   6.681   6.213  15.301 -0.0988 -0.3567 -0.6701
 5236TIP3    H137199   6.760   6.175  15.264  0.3122 -0.2483  0.0739
 5236TIP3    H237200   6.706   6.303  15.324  0.2236 -0.9428  1.5135
 5237TIP3   OH237201   3.536   4.322   0.999 -0.0834  0.1655 -0.2021
 5237TIP3    H137202   3.520   4.229   0.983 -0.6270  0.2640 -0.2570
 5237TIP3    H237203   3.575   4.325   1.086 -0.0512 -0.1157 -0.2049
 5238TIP3   OH237204   5.079   4.771   3.410  0.2133 -0.1040  0.0768
 5238TIP3    H137205   5.054   4.863   3.418  1.6057  0.5719 -2.2690
 5238TIP3    H237206   5.155   4.761   3.466  0.3816  0.3308 -0.0725
 5239TIP3   OH237207   1.010   1.828  11.392 -0.4720  0.0433  0.3160
 5239TIP3    H137208   0.979   1.918  11.382 -1.8294 -0.3528  0.7024
 5239TIP3    H237209   1.064   1.830  11.471  0.8235  0.8234 -0.5631
 5240TIP3   OH237210   0.227   6.812   2.016 -0.3846 -0.2939  0.0216
 5240TIP3    H137211   0.225   6.840   2.107  0.9846  2.4399 -0.6753
 5240TIP3    H237212   0.318   6.786   2.002 -1.1106 -3.1738 -0.0016
 5241TIP3   OH237213   5.768   0.448   2.274  0.1215  0.1494  0.5557
 5241TIP3    H137214   5.830   0.380   2.245 -1.4826 -0.6063 -1.3152
 5241TIP3    H237215   5.811   0.530   2.251  0.0278 -0.3802 -1.7531
 5242TIP3   OH237216   0.601   5.134   4.327  0.4671 -0.2290 -0.1373
 5242TIP3    H137217   0.562   5.047   4.324  0.8021 -0.3995  0.2272
 5242TIP3    H237218   0.556   5.178   4.399 -1.6734  0.9018 -2.0357
 5243TIP3   OH237219   1.449   1.996  15.041 -0.7366  0.3452  0.2541
 5243TIP3    H137220   1.465   2.074  14.989 -2.4535 -0.1883 -1.1838
 5243TIP3    H237221   1.485   1.924  14.990 -0.0817  0.0729  1.0778
 5244TIP3   OH237222   5.223   3.713  13.947  0.3244 -0.2671 -0.3334
 5244TIP3    H137223   5.183   3.799  13.961  2.5165  0.4961  2.1134
 5244TIP3    H237224   5.149   3.654  13.934 -1.3539  1.6623 -0.0201
 5245TIP3   OH237225   3.200   3.760   5.293 -0.0957 -0.4172 -0.5569
 5245TIP3    H137226   3.294   3.758   5.309  0.0765 -0.8625 -1.5063
 5245TIP3    H237227   3.161   3.785   5.377  0.8503 -0.4524 -0.0955
 5246TIP3   OH237228   2.775   1.678  15.071 -0.1585 -0.1921 -0.3382
 5246TIP3    H137229   2.698   1.666  15.127  2.1371  0.0423  3.2451
 5246TIP3    H237230   2.803   1.589  15.050 -0.8061 -0.2907 -0.8318
 5247TIP3   OH237231   3.802   6.205   3.221  0.1459 -0.4189 -0.1332
 5247TIP3    H137232   3.869   6.243   3.163  2.2610 -0.5614  2.0269
 5247TIP3    H237233   3.826   6.113   3.227  0.7263 -0.1867  1.8121
 5248TIP3   OH237234   5.042   1.411   5.477 -0.1735 -0.4159 -0.3053
 5248TIP3    H137235   5.042   1.352   5.551  2.3788  1.0553  1.0216
 5248TIP3    H237236   4.990   1.486   5.505  2.9608  1.3642  1.2615
 5249TIP3   OH237237   5.910   1.970   1.152 -0.1295  0.0236 -0.2555
 5249TIP3    H137238   5.882   2.014   1.072 -2.0559  0.3012  0.5143
 5249TIP3    H237239   5.883   2.029   1.222 -0.4964 -1.2388  0.6951
 5250TIP3   OH237240   2.097   6.103   1.668 -0.2320  0.3707  0.0200
 5250TIP3    H137241   2.139   6.103   1.582 -0.3364 -2.0741 -0.0810
 5250TIP3    H237242   2.101   6.012   1.698  0.1217  1.1922  2.7862
 5251TIP3   OH237243   5.262   5.173  16.400 -0.5782  0.1935  0.0034
 5251TIP3    H137244   5.337   5.148  16.345 -0.1583 -0.4645  0.8622
 5251TIP3    H237245   5.285   5.259  16.433 -1.9938  1.8465 -2.8962
 5252TIP3   OH237246   0.944   4.849   5.611 -0.1277 -0.0540 -0.4285
 5252TIP3    H137247   0.922   4.821   5.699  3.8517  0.3030  0.8665
 5252TIP3    H237248   0.891   4.927   5.597 -0.4744  0.1880  1.8901
 5253TIP3   OH237249   0.054   4.855   2.273  0.5216  0.1336  0.1229
 5253TIP3    H137250   0.073   4.779   2.328  2.0193  1.1350  1.0538
 5253TIP3    H237251   0.140   4.887   2.246 -0.1309  0.8500 -1.1753
 5254TIP3   OH237252   3.424   0.184   0.560  0.0550  0.5656 -0.6571
 5254TIP3    H137253   3.447   0.133   0.638  0.4191 -0.7820 -1.6076
 5254TIP3    H237254   3.331   0.167   0.547  0.0089  0.7382 -0.5537
 5255TIP3   OH237255   1.838   4.368   0.570 -0.2310  0.6802  0.1912
 5255TIP3    H137256   1.827   4.312   0.493  1.6833 -0.5403  0.7363
 5255TIP3    H237257   1.755   4.414   0.578 -2.0536 -2.3134 -0.0934
 5256TIP3   OH237258   4.447   0.432  11.299  0.4288 -0.1968  0.2951
 5256TIP3    H137259   4.384   0.450  11.368 -0.5273  0.5757 -0.7414
 5256TIP3    H237260   4.527   0.477  11.327  0.3749 -0.7235  1.3553
 5257TIP3   OH237261   0.771   6.351  15.455  0.3740 -0.0848  0.1980
 5257TIP3    H137262   0.834   6.369  15.385 -2.6084  1.9822 -2.2918
 5257TIP3    H237263   0.790   6.417  15.522  1.3671 -0.0646 -0.0854
 5258TIP3   OH237264   2.616   1.330  11.456  0.0714  0.3632 -0.0472
 5258TIP3    H137265   2.547   1.375  11.407  0.5294  0.1282 -0.9204
 5258TIP3    H237266   2.579   1.244  11.475 -0.2206  0.5600  0.2828
 5259TIP3   OH237267   2.539   6.592   2.512  0.4572  0.0740 -0.0182
 5259TIP3    H137268   2.592   6.671   2.524  1.3490 -0.4367 -0.4525
 5259TIP3    H237269   2.585   6.524   2.561 -0.2004 -0.2228  0.2024
 5260TIP3   OH237270   0.565   1.809   1.581  0.3427  0.5423 -0.0333
 5260TIP3    H137271   0.486   1.864   1.579 -0.2136 -0.1579  1.3737
 5260TIP3    H237272   0.628   1.856   1.526 -1.0011  1.1910 -1.0780
 5261TIP3   OH237273   0.569   0.984  17.096 -0.1355  0.3875  0.8340
 5261TIP3    H137274   0.542   1.028  17.016  0.5495 -0.1381  0.3051
 5261TIP3    H237275   0.501   1.008  17.160 -1.3803 -0.1779 -0.2146
 5262TIP3   OH237276   2.891   5.642   2.959  0.0735  0.5011 -0.0024
 5262TIP3    H137277   2.849   5.572   3.009  0.7276 -0.5900 -0.9583
 5262TIP3    H237278   2.858   5.723   3.000 -0.4921 -0.3437  1.2739
 5263TIP3   OH237279   5.601   5.888   2.231 -0.3155 -0.7750 -0.3017
 5263TIP3    H137280   5.632   5.912   2.318 -0.6081 -0.9677 -0.1421
 5263TIP3    H237281   5.674   5.840   2.192 -0.7526 -2.1139  0.4531
 5264TIP3   OH237282   5.070   5.306  11.139 -0.5552  0.7118  0.1677
 5264TIP3    H137283   5.053   5.218  11.171 -1.3740  1.3796  1.6751
 5264TIP3    H237284   5.143   5.296  11.077 -0.6119 -0.9952  0.3450
 5265TIP3   OH237285   3.459   5.294   4.762 -0.2372 -0.4065 -0.5097
 5265TIP3    H137286   3.503   5.323   4.842 -0.3811  0.2404 -0.6536
 5265TIP3    H237287   3.460   5.371   4.705  0.7100 -1.1377 -1.5124
 5266TIP3   OH237288   5.671   1.188   1.756  0.5789 -0.5027  0.3110
 5266TIP3    H137289   5.642   1.177   1.846  1.0223 -0.7564  0.4204
 5266TIP3    H237290   5.765   1.204   1.762  0.4077  0.7259 -0.0189
 5267TIP3   OH237291   6.530   4.917  15.004  0.3888 -0.6137 -0.5390
 5267TIP3    H137292   6.456   4.971  15.033  1.4288  0.1944  0.7487
 5267TIP3    H237293   6.566   4.965  14.930  1.0283  0.2629  0.3140
 5268TIP3   OH237294   4.235   0.070  12.988  0.2703  0.1462  0.4830
 5268TIP3    H137295   4.142   0.059  13.006  0.2002  0.1078  0.0979
 5268TIP3    H237296   4.279   0.023  13.059 -0.0025 -2.1555 -0.7738
 5269TIP3   OH237297   6.552   3.475  12.472 -0.5373 -0.1364  0.1429
 5269TIP3    H137298   6.601   3.397  12.446 -0.2321 -0.0751  0.5272
 5269TIP3    H237299   6.614   3.526  12.524 -0.2785  1.0098 -1.2038
 5270TIP3   OH237300   5.559   3.819   0.758  0.1883  0.1479 -0.5620
 5270TIP3    H137301   5.482   3.772   0.788 -0.2582  1.0136 -0.3202
 5270TIP3    H237302   5.620   3.751   0.732 -0.0460 -0.5929  0.7355
 5271TIP3   OH237303   0.997   4.016   3.707  0.2209  0.3257  0.1071
 5271TIP3    H137304   0.935   4.085   3.731 -0.2845 -0.0674 -0.0382
 5271TIP3    H237305   1.067   4.023   3.772  0.1682  0.9573  0.1062
 5272TIP3   OH237306   4.928   2.664   2.496 -0.4430  0.1128  0.5505
 5272TIP3    H137307   4.911   2.604   2.569 -0.4951 -0.4661  0.0717
 5272TIP3    H237308   5.020   2.688   2.506 -0.1098 -0.9353  0.1100
 5273TIP3   OH237309   2.941   2.566   1.156 -0.0495  0.4132  0.0725
 5273TIP3    H137310   2.910   2.653   1.134 -1.5130 -0.0622  0.1411
 5273TIP3    H237311   2.889   2.507   1.101 -0.4419 -0.4983  1.3625
 5274TIP3   OH237312   6.501   6.786  16.533 -0.2442  0.5400  0.3252
 5274TIP3    H137313   6.421   6.780  16.584  0.2660  1.6841  1.3104
 5274TIP3    H237314   6.565   6.736  16.583  0.0897  1.1130  0.4830
 5275TIP3   OH237315   2.770   6.464   3.252  0.1076 -0.3170 -0.1490
 5275TIP3    H137316   2.693   6.459   3.194  0.5198  2.7299 -1.1668
 5275TIP3    H237317   2.736   6.443   3.339 -1.9879  1.1030 -0.5481
 5276TIP3   OH237318   4.604   4.760   6.232  0.1771  0.0037  0.1002
 5276TIP3    H137319   4.614   4.664   6.236 -0.8856 -0.1518 -0.4887
 5276TIP3    H237320   4.612   4.781   6.139 -0.8683  0.3265  0.0782
 5277TIP3   OH237321   4.167   4.114   4.077  0.6186  0.2628 -0.0979
 5277TIP3    H137322   4.167   4.035   4.023 -0.9455 -1.1828  1.8478
 5277TIP3    H237323   4.095   4.167   4.041  0.0344 -0.3702  0.1158
 5278TIP3   OH237324   0.848   3.589  16.689  0.4213 -0.0426 -0.3798
 5278TIP3    H137325   0.917   3.624  16.745  1.1399  0.2040 -1.3842
 5278TIP3    H237326   0.866   3.628  16.603 -1.7998  1.1675 -0.3654
 5279TIP3   OH237327   5.820   6.392  14.959  0.0657 -0.7449  0.4884
 5279TIP3    H137328   5.848   6.371  15.048  1.5167  0.3560  0.3187
 5279TIP3    H237329   5.899   6.423  14.915 -1.0703  0.9512 -0.4948
 5280TIP3   OH237330   3.994   3.749  15.518  0.3134  0.6039  0.3297
 5280TIP3    H137331   4.060   3.814  15.543 -0.6518  2.1921 -1.0590
 5280TIP3    H237332   3.944   3.790  15.447 -1.1985 -1.1460  0.2827
 5281TIP3   OH237333   2.824   4.020   4.149  0.2793  0.5510 -0.1226
 5281TIP3    H137334   2.892   3.953   4.153  0.5502  0.8675  0.8417
 5281TIP3    H237335   2.870   4.100   4.122  0.3739  0.8510  0.8872
 5282TIP3   OH237336   3.775   6.224   5.455  0.4171 -0.5882 -0.0603
 5282TIP3    H137337   3.743   6.305   5.495  0.3282  0.0995 -1.4414
 5282TIP3    H237338   3.829   6.183   5.523  0.6607  0.7542  0.5922
 5283TIP3   OH237339   2.555   0.362   3.179  0.0292 -0.1573 -0.1338
 5283TIP3    H137340   2.616   0.377   3.251  0.2438 -2.3671  0.2301
 5283TIP3    H237341   2.476   0.411   3.204  0.9261  1.0792  0.3781
 5284TIP3   OH237342   4.367   1.985   3.266 -0.4005  0.1838  0.2646
 5284TIP3    H137343   4.293   1.928   3.287 -0.4044 -0.0830 -0.4324
 5284TIP3    H237344   4.421   1.985   3.345 -1.6320  1.1574  1.1348
 5285TIP3   OH237345   6.054   6.547  16.779 -0.0810 -0.5843  0.0694
 5285TIP3    H137346   6.096   6.496  16.847 -1.0045  0.6208  1.5994
 5285TIP3    H237347   6.002   6.613  16.826 -0.4359  0.5462 -1.7902
 5286TIP3   OH237348   4.337   4.966  14.324 -0.3393 -0.6297  0.0142
 5286TIP3    H137349   4.339   4.910  14.247  0.2494  0.3481 -0.7062
 5286TIP3    H237350   4.352   5.054  14.290 -1.2912 -0.0138  1.1057
 5287TIP3   OH237351   6.150   2.865  14.247  0.3295  0.2733  0.1005
 5287TIP3    H137352   6.159   2.808  14.323 -0.3795  0.5072  0.3650
 5287TIP3    H237353   6.072   2.833  14.201 -0.2598  1.2074  0.4230
 5288TIP3   OH237354   6.239   2.308   6.184  0.2583  0.1270  0.1231
 5288TIP3    H137355   6.289   2.321   6.265 -0.8346 -1.4186  1.0943
 5288TIP3    H237356   6.213   2.216   6.186  2.1106 -0.6628 -3.1218
 5289TIP3   OH237357   0.420   0.353   3.400 -0.1421  0.2018  0.0520
 5289TIP3    H137358   0.463   0.317   3.322 -0.1519  0.8069 -0.2346
 5289TIP3    H237359   0.472   0.320   3.473  0.0850 -0.0723 -0.2302
 5290TIP3   OH237360   1.794   6.587  10.790 -0.0793  0.1956 -0.3026
 5290TIP3    H137361   1.835   6.581  10.703 -0.6472  1.7298 -0.7116
 5290TIP3    H237362   1.849   6.533  10.846  1.0368  0.1758 -1.3632
 5291TIP3   OH237363   0.470   0.354  12.725  0.7580 -0.8243  0.9726
 5291TIP3    H137364   0.387   0.313  12.748 -0.0260  0.4950  0.5501
 5291TIP3    H237365   0.509   0.377  12.810  0.6402 -1.3102  1.1655
 5292TIP3   OH237366   6.190   1.484  17.021  0.0679  0.0336  0.1983
 5292TIP3    H137367   6.267   1.494  16.965  0.7507 -1.5476  0.7896
 5292TIP3    H237368   6.118   1.466  16.960 -0.1950  2.7778 -0.4732
 5293TIP3   OH237369   1.437   4.610   0.476 -0.8220  0.5709  0.7037
 5293TIP3    H137370   1.431   4.686   0.419 -1.9757  0.5609  0.7739
 5293TIP3    H237371   1.402   4.641   0.560  0.0310  0.3494  1.1458
 5294TIP3   OH237372   4.434   2.949   3.528  0.3648  0.1815  0.1796
 5294TIP3    H137373   4.378   2.961   3.451  0.3203  1.1227  0.3507
 5294TIP3    H237374   4.518   2.920   3.492 -0.5963 -2.7101  0.0047
 5295TIP3   OH237375   2.049   1.857  14.762  0.4866 -0.0481  0.1178
 5295TIP3    H137376   1.983   1.791  14.783  1.2736 -0.8569  0.1349
 5295TIP3    H237377   2.019   1.896  14.680  0.3543 -0.9088 -0.2500
 5296TIP3   OH237378   2.427   6.385  12.159 -0.2279 -0.3348  0.2239
 5296TIP3    H137379   2.403   6.365  12.249 -0.0986 -0.0045  0.3346
 5296TIP3    H237380   2.365   6.335  12.106 -0.1853 -0.6772  0.4930
 5297TIP3   OH237381   4.110   0.878   3.712 -0.1060  0.4479 -0.1248
 5297TIP3    H137382   4.032   0.826   3.725 -0.8069  1.1607 -1.2538
 5297TIP3    H237383   4.179   0.815   3.690 -0.5878 -0.1072 -0.0341
 5298TIP3   OH237384   3.933   3.650  11.653  0.1875  0.9375 -0.4436
 5298TIP3    H137385   3.843   3.655  11.620 -0.6753 -0.1203  1.5688
 5298TIP3    H237386   3.986   3.689  11.584 -1.5329 -0.5391 -2.7459
 5299TIP3   OH237387   5.587   4.304   4.732  0.3505  0.2124 -0.1416
 5299TIP3    H137388   5.653   4.234   4.724  0.4952  0.2881  0.3851
 5299TIP3    H237389   5.581   4.340   4.644 -2.5798 -3.0172 -1.5134
 5300TIP3   OH237390   1.570   1.580  11.603  0.2030 -0.1315  0.0972
 5300TIP3    H137391   1.489   1.560  11.556  0.8641 -0.1226 -1.0758
 5300TIP3    H237392   1.543   1.634  11.677 -0.8275  0.0585 -0.4145
 5301TIP3   OH237393   5.173   4.346   5.467 -0.2669 -0.3123  0.1337
 5301TIP3    H137394   5.094   4.401   5.471 -0.8038 -1.0203 -0.4568
 5301TIP3    H237395   5.232   4.385   5.530 -0.9053  0.5373  0.2308
 5302TIP3   OH237396   3.152   5.516   4.782  0.4191 -0.5613  0.2605
 5302TIP3    H137397   3.125   5.429   4.813 -0.6090  0.0999  1.2835
 5302TIP3    H237398   3.076   5.550   4.737  0.5497  0.1182  0.5443
 5303TIP3   OH237399   5.599   3.057   4.110 -0.1744 -0.3701 -0.1404
 5303TIP3    H137400   5.542   3.080   4.183 -1.5701 -0.4878 -1.1573
 5303TIP3    H237401   5.547   2.997   4.057  0.6709  0.0016 -1.4323
 5304TIP3   OH237402   3.236   2.282  12.080  0.1643 -0.1025  0.4242
 5304TIP3    H137403   3.280   2.329  12.010 -1.8939  1.8656  0.3166
 5304TIP3    H237404   3.278   2.314  12.160 -0.7872  1.5460  0.3110
 5305TIP3   OH237405   1.297   4.457   5.592 -0.3101 -0.8349  0.7589
 5305TIP3    H137406   1.234   4.424   5.655 -1.1280 -1.5274 -0.3956
 5305TIP3    H237407   1.378   4.409   5.612 -0.1960 -0.1789  2.0238
 5306TIP3   OH237408   1.614   4.652  12.713 -0.4339  0.2298 -0.4795
 5306TIP3    H137409   1.689   4.649  12.653  0.5778  0.3698  0.7513
 5306TIP3    H237410   1.552   4.588  12.676 -0.2932  1.0281 -2.2317
 5307TIP3   OH237411   3.811   3.800   4.326  0.0068 -0.0274  0.4259
 5307TIP3    H137412   3.771   3.729   4.277 -0.1234 -0.1971  0.7724
 5307TIP3    H237413   3.874   3.840   4.265 -0.4742  0.0544 -0.0186
 5308TIP3   OH237414   0.772   0.326   2.391 -0.9101 -0.4750  0.1374
 5308TIP3    H137415   0.677   0.336   2.401 -0.7525 -0.0146  1.3899
 5308TIP3    H237416   0.799   0.277   2.469 -0.0525 -0.1427  0.0612
 5309TIP3   OH237417   2.063   2.580   1.949 -0.2704 -0.1625 -0.1099
 5309TIP3    H137418   1.975   2.577   1.912 -0.5262 -1.0593  0.5416
 5309TIP3    H237419   2.103   2.497   1.923 -0.4187 -0.7721  1.5092
 5310TIP3   OH237420   4.397   3.207  11.987 -0.0952 -0.3839  0.2151
 5310TIP3    H137421   4.370   3.269  11.918 -0.1751  0.8729  1.3277
 5310TIP3    H237422   4.334   3.135  11.979  1.1273 -1.2925 -2.3191
 5311TIP3   OH237423   5.482   0.121  15.125 -0.8717  0.0654  0.1312
 5311TIP3    H137424   5.564   0.098  15.082  0.6500  0.5413  2.6015
 5311TIP3    H237425   5.416   0.067  15.081  0.3819  0.8663 -3.0784
 5312TIP3   OH237426   3.192   0.534  14.094  0.1797  0.1546  0.0890
 5312TIP3    H137427   3.204   0.585  14.174  1.2831  1.5065 -0.8939
 5312TIP3    H237428   3.142   0.457  14.122 -2.3591  2.1450  1.4815
 5313TIP3   OH237429   2.342   5.509   4.777  0.7731  0.0919  0.3453
 5313TIP3    H137430   2.310   5.519   4.867  0.8598 -0.5666  0.4523
 5313TIP3    H237431   2.407   5.579   4.767  2.9529 -1.5895  1.7965
 5314TIP3   OH237432   1.362   0.016  11.247 -0.8530 -0.8719  0.3319
 5314TIP3    H137433   1.309   0.051  11.318  0.5433  0.9069  0.5904
 5314TIP3    H237434   1.429  -0.037  11.290 -0.0090  0.2034  0.4044
 5315TIP3   OH237435   1.473   2.677  15.768 -0.1280 -0.1246 -0.7343
 5315TIP3    H137436   1.426   2.643  15.692 -0.0711 -1.7220 -0.0934
 5315TIP3    H237437   1.439   2.766  15.780 -2.4109 -0.9259 -0.7956
 5316TIP3   OH237438   1.778   6.653  15.629  0.5464 -0.0379 -0.1447
 5316TIP3    H137439   1.851   6.613  15.677  0.4974  0.1250  0.0706
 5316TIP3    H237440   1.791   6.627  15.538  0.4221 -0.6830  0.0141
 5317TIP3   OH237441   6.230   0.238  12.665  0.0316 -0.3227 -0.0892
 5317TIP3    H137442   6.189   0.324  12.676 -1.9453 -1.0277 -1.5331
 5317TIP3    H237443   6.290   0.231  12.740 -1.0437  1.5616  1.0391
 5318TIP3   OH237444   6.378   4.555  16.082  0.3961  0.0386 -0.1390
 5318TIP3    H137445   6.387   4.460  16.083 -1.9124 -0.2260  0.5038
 5318TIP3    H237446   6.438   4.584  16.014  0.4971 -1.9497 -0.9544
 5319TIP3   OH237447   0.438   1.023   3.283  0.2870 -0.3733 -0.0267
 5319TIP3    H137448   0.391   1.080   3.222 -0.4588  0.5803  1.3800
 5319TIP3    H237449   0.521   1.068   3.298 -0.0617  0.0909  0.6235
 5320TIP3   OH237450   5.925   3.841  15.437  0.1296  0.5382 -0.1541
 5320TIP3    H137451   6.014   3.877  15.441  0.1715  0.4636 -0.4251
 5320TIP3    H237452   5.873   3.909  15.394  0.6297 -0.5427 -2.6072
 5321TIP3   OH237453   5.454   0.624  11.738 -0.1786  0.3144 -0.3618
 5321TIP3    H137454   5.482   0.533  11.743 -2.2648 -0.4113 -0.9911
 5321TIP3    H237455   5.364   0.623  11.769  0.5709  2.6499  2.3312
 5322TIP3   OH237456   0.098   5.136   1.500  0.2814 -0.3927 -0.3702
 5322TIP3    H137457   0.042   5.122   1.576 -0.3632  0.2291 -0.7099
 5322TIP3    H237458   0.077   5.064   1.440  0.1328 -0.3796 -0.3329
 5323TIP3   OH237459   4.442   4.717  11.520 -0.2819  0.1053 -0.3248
 5323TIP3    H137460   4.534   4.700  11.536 -0.3703 -0.3373 -0.2813
 5323TIP3    H237461   4.441   4.803  11.477  0.1598  0.0484 -0.4559
 5324TIP3   OH237462   6.776   1.169   4.467  0.3587  0.2737 -0.6123
 5324TIP3    H137463   6.704   1.107   4.476  1.0654 -0.9259 -2.6581
 5324TIP3    H237464   6.757   1.237   4.531 -1.3323 -1.1945  0.5274
 5325TIP3   OH237465   6.695   1.639   1.042 -0.2181  0.7061 -0.5781
 5325TIP3    H137466   6.712   1.546   1.060 -0.8137  0.2592 -2.1520
 5325TIP3    H237467   6.729   1.685   1.119  0.2993 -0.7930  0.1288
 5326TIP3   OH237468   2.197   5.187   1.572  0.0841  0.2542 -0.1180
 5326TIP3    H137469   2.213   5.125   1.643 -4.0211 -0.8347  0.1165
 5326TIP3    H237470   2.137   5.252   1.611 -0.9127  0.5937 -2.1106
 5327TIP3   OH237471   2.192   6.097   2.029 -0.0130  0.3211 -0.1766
 5327TIP3    H137472   2.275   6.049   2.023  0.2892  0.9322 -1.2102
 5327TIP3    H237473   2.197   6.162   1.959 -0.6626  1.4814  0.8122
 5328TIP3   OH237474   5.655   6.562   0.775  0.3078 -0.1192  0.3509
 5328TIP3    H137475   5.630   6.479   0.815  0.4549 -0.4797 -0.2962
 5328TIP3    H237476   5.683   6.539   0.686 -0.6636  0.7458 -0.2020
 5329TIP3   OH237477   1.273   3.983   2.176 -0.3094  0.2926 -0.1760
 5329TIP3    H137478   1.216   3.921   2.223 -0.1502 -1.0485 -1.6864
 5329TIP3    H237479   1.221   4.011   2.101 -0.1485  1.5784  0.1590
 5330TIP3   OH237480   6.598   3.407   4.370 -0.2127  0.5267  0.2174
 5330TIP3    H137481   6.672   3.392   4.311 -0.2895 -1.3759  0.5274
 5330TIP3    H237482   6.520   3.390   4.318 -0.3895  1.2189  0.2446
 5331TIP3   OH237483   2.036   2.313  11.174  0.9144  0.4275 -0.5102
 5331TIP3    H137484   2.069   2.403  11.168  1.3951  0.4043  1.1061
 5331TIP3    H237485   2.079   2.278  11.252  0.0755 -0.9327 -0.6335
 5332TIP3   OH237486   5.429   2.148  11.036 -0.0521  0.4769  0.0117
 5332TIP3    H137487   5.440   2.083  10.967 -1.1015 -0.3401  0.5862
 5332TIP3    H237488   5.481   2.224  11.007  1.6521 -0.7968 -0.4094
 5333TIP3   OH237489   5.510   3.610   0.476  0.0917  0.1096 -0.1277
 5333TIP3    H137490   5.562   3.633   0.553 -0.8430  0.6295  0.3687
 5333TIP3    H237491   5.502   3.515   0.480  0.4878  0.0845  0.1285
 5334TIP3   OH237492   1.990   5.074  14.221  0.2490 -0.2632 -0.1148
 5334TIP3    H137493   2.031   5.122  14.149  0.8142 -0.0910  0.3215
 5334TIP3    H237494   2.027   4.986  14.217 -0.4570 -0.5429 -0.6391
 5335TIP3   OH237495   4.663   1.513   2.901  0.3546  0.3775 -0.2762
 5335TIP3    H137496   4.737   1.475   2.948  0.2235 -0.6932 -0.9188
 5335TIP3    H237497   4.592   1.513   2.965  0.3435 -0.5064 -0.2799
 5336TIP3   OH237498   0.542   6.852   0.641  0.4993  0.4387  0.2705
 5336TIP3    H137499   0.536   6.787   0.710 -2.4020  1.7318  1.3819
 5336TIP3    H237500   0.608   6.914   0.672  0.5432  0.0322  1.0128
 5337TIP3   OH237501   0.324   6.460  11.729  0.1356  0.0770  0.0574
 5337TIP3    H137502   0.316   6.369  11.701 -2.2250 -0.2142  1.4226
 5337TIP3    H237503   0.312   6.458  11.824  0.0610  1.8245  0.1277
 5338TIP3   OH237504   4.321   1.902  12.172  0.4398 -0.3633 -0.2794
 5338TIP3    H137505   4.375   1.824  12.158 -1.4349 -2.0320  1.2208
 5338TIP3    H237506   4.251   1.895  12.107  0.1118 -0.0927  0.0376
 5339TIP3   OH237507   6.035   4.995   1.978  0.1449 -0.5159  0.4967
 5339TIP3    H137508   6.117   5.011   1.931  0.8761  3.8650  2.7645
 5339TIP3    H237509   6.048   4.910   2.021  2.0122 -1.5558 -1.8896
 5340TIP3   OH237510   4.991   5.002  12.478 -0.0447  0.2000  0.1348
 5340TIP3    H137511   5.026   4.914  12.491 -0.8079 -0.0459  0.6193
 5340TIP3    H237512   5.067   5.055  12.453  0.2109 -0.8643 -1.5086
 5341TIP3   OH237513   2.634   0.983   2.474 -0.2643  0.2041 -0.2353
 5341TIP3    H137514   2.725   0.970   2.446 -0.3844  0.6828 -0.8867
 5341TIP3    H237515   2.582   0.940   2.407 -0.5115 -0.5472  0.4297
 5342TIP3   OH237516   3.067   3.912   4.156  0.4090 -0.6188  0.0848
 5342TIP3    H137517   3.144   3.928   4.101 -0.6282 -0.8113 -1.4933
 5342TIP3    H237518   3.095   3.936   4.244  2.0911 -0.1381 -0.5422
 5343TIP3   OH237519   0.298   3.330  16.239 -0.1698 -0.4635  0.4680
 5343TIP3    H137520   0.345   3.280  16.305 -1.1582 -0.6223  1.0780
 5343TIP3    H237521   0.214   3.284  16.230 -0.1360 -0.3067 -0.7315
 5344TIP3   OH237522   1.586   0.062   2.379 -0.7789  0.2977  0.2641
 5344TIP3    H137523   1.578   0.008   2.459 -0.0305  0.7260  0.6363
 5344TIP3    H237524   1.558   0.149   2.406  0.4501  0.6878  0.3396
 5345TIP3   OH237525   4.059   1.922   5.621  0.3531  0.0520 -0.2927
 5345TIP3    H137526   4.032   1.967   5.701  0.7223 -2.0265  1.0757
 5345TIP3    H237527   4.086   1.993   5.562 -0.8238  1.7001  1.0453
 5346TIP3   OH237528   0.551   5.290  16.606  0.6041 -0.2977  0.3992
 5346TIP3    H137529   0.503   5.365  16.569  1.3524 -0.7718 -1.7075
 5346TIP3    H237530   0.637   5.295  16.563  1.8549 -0.4836  2.7424
 5347TIP3   OH237531   0.456   4.714  11.972 -0.2028  0.2313  0.5180
 5347TIP3    H137532   0.447   4.649  11.902 -0.5076  2.4733 -1.6751
 5347TIP3    H237533   0.368   4.725  12.007  0.0386 -1.2779  1.7037
 5348TIP3   OH237534   6.486   5.631   0.056 -0.2112  0.1778  0.2958
 5348TIP3    H137535   6.401   5.588   0.048 -0.0395 -0.2262  0.6300
 5348TIP3    H237536   6.469   5.721   0.028 -0.1177 -0.5777 -2.4741
 5349TIP3   OH237537   4.592   6.784  15.253 -0.5341  0.6937  0.6105
 5349TIP3    H137538   4.524   6.798  15.186  1.0875 -0.3869 -1.3579
 5349TIP3    H237539   4.637   6.868  15.258 -0.8506  0.8686  0.5778
 5350TIP3   OH237540   4.259   6.382  11.999 -0.1608  0.1501  0.1243
 5350TIP3    H137541   4.179   6.341  11.967 -1.7828  2.0578  1.4999
 5350TIP3    H237542   4.292   6.432  11.925 -2.0017  1.8112  0.3548
 5351TIP3   OH237543   5.565   4.855   2.858  0.5223 -0.2094 -0.3803
 5351TIP3    H137544   5.585   4.764   2.879 -0.1111 -0.0892  0.8499
 5351TIP3    H237545   5.563   4.858   2.762  1.1276 -1.3490 -0.4447
 5352TIP3   OH237546   1.501   5.633   5.286  0.3171 -0.5803  0.0923
 5352TIP3    H137547   1.518   5.539   5.288 -0.4091 -0.7087  1.2391
 5352TIP3    H237548   1.583   5.671   5.254  0.1625 -1.6782 -1.7293
 5353TIP3   OH237549   4.627   5.284   1.310 -0.2821  0.0748  0.0804
 5353TIP3    H137550   4.614   5.378   1.323 -1.4948  0.1684 -1.6285
 5353TIP3    H237551   4.606   5.246   1.396 -1.7158  1.1901  0.2719
 5354TIP3   OH237552   2.837   2.258  11.585  0.0444  0.3319 -0.4700
 5354TIP3    H137553   2.803   2.281  11.498 -2.2966  0.3608  0.3776
 5354TIP3    H237554   2.787   2.314  11.645 -0.0832 -1.3342  1.0520
 5355TIP3   OH237555   5.607   3.045   2.416  0.7138  0.7409  0.1136
 5355TIP3    H137556   5.528   3.080   2.376  0.6487  1.4364  0.8216
 5355TIP3    H237557   5.646   2.989   2.349 -1.5230 -1.4064  0.4759
 5356TIP3   OH237558   3.313   0.477   4.091 -0.2640 -1.0037 -0.5579
 5356TIP3    H137559   3.379   0.480   4.160  0.2265 -1.2820 -1.0104
 5356TIP3    H237560   3.362   0.480   4.010 -0.9082  1.1926 -0.9386
 5357TIP3   OH237561   3.479   5.032   1.017 -0.0209 -0.3463  0.1084
 5357TIP3    H137562   3.426   5.105   1.048  1.2184  0.1437  1.1404
 5357TIP3    H237563   3.480   4.970   1.090 -0.6013 -1.1627 -0.5526
 5358TIP3   OH237564   3.959   6.642  14.003 -0.2141 -0.5368  0.1220
 5358TIP3    H137565   4.006   6.627  14.085 -2.6772  2.2474  2.2666
 5358TIP3    H237566   3.968   6.736  13.987 -0.1349 -0.9330 -2.7012
 5359TIP3   OH237567   0.262   0.945  16.347 -0.5708  0.5277  0.0207
 5359TIP3    H137568   0.285   0.878  16.283 -1.0479  1.4199 -1.1301
 5359TIP3    H237569   0.177   0.917  16.381  0.2011 -0.5437  1.1341
 5360TIP3   OH237570   0.358   5.400  10.485 -0.6517  0.0861 -0.4346
 5360TIP3    H137571   0.295   5.448  10.540 -2.0272 -1.2482 -0.7701
 5360TIP3    H237572   0.317   5.398  10.399  0.1551 -0.2740 -0.8143
 5361TIP3   OH237573   2.139   6.099   0.535  0.6033  0.2089  0.1801
 5361TIP3    H137574   2.221   6.125   0.493  0.7288 -0.3122  0.0932
 5361TIP3    H237575   2.133   6.005   0.518 -0.6200  0.4448 -0.9033
 5362TIP3   OH237576   4.954   5.972   4.604 -0.1181 -0.4881  1.0826
 5362TIP3    H137577   4.937   5.983   4.697 -1.5840  0.0018  0.7817
 5362TIP3    H237578   4.868   5.960   4.565  0.3279  0.7574 -0.3906
 5363TIP3   OH237579   3.713   5.746  10.579  0.0688  0.2467 -0.0471
 5363TIP3    H137580   3.678   5.661  10.552 -0.6733  1.5358 -3.7570
 5363TIP3    H237581   3.639   5.806  10.569  0.7802  1.5082  1.7610
 5364TIP3   OH237582   2.620   0.837   1.789 -0.3609  0.9108 -0.4119
 5364TIP3    H137583   2.524   0.841   1.795 -0.5193  0.0565 -1.7559
 5364TIP3    H237584   2.640   0.878   1.705  0.4639  1.1172 -0.1213
 5365TIP3   OH237585   1.458   0.582   5.372 -0.1663  0.0622  0.5109
 5365TIP3    H137586   1.482   0.493   5.346 -1.8591 -0.3485  0.2679
 5365TIP3    H237587   1.479   0.637   5.296 -2.6455 -0.7311 -0.8350
 5366TIP3   OH237588   6.387   6.463  14.181 -0.4725 -0.0931 -0.2704
 5366TIP3    H137589   6.377   6.376  14.221  1.7651 -0.9978 -1.5439
 5366TIP3    H237590   6.408   6.446  14.090 -0.8031  1.8382 -0.7552
 5367TIP3   OH237591   3.835   2.397   0.727 -0.6758  0.0014  0.6167
 5367TIP3    H137592   3.825   2.445   0.809 -1.4585 -0.2281  0.6632
 5367TIP3    H237593   3.880   2.317   0.751  0.2131  0.4964  0.6153
 5368TIP3   OH237594   0.254   3.508   4.557  0.1444 -0.2502  0.3504
 5368TIP3    H137595   0.268   3.536   4.648 -1.2045 -1.9907  1.1580
 5368TIP3    H237596   0.272   3.415   4.558 -2.5233 -0.8692 -0.4748
 5369TIP3   OH237597   4.404   0.518   0.334 -0.2488 -0.9285 -0.4608
 5369TIP3    H137598   4.361   0.451   0.281  1.1865 -1.9462 -0.3945
 5369TIP3    H237599   4.380   0.498   0.424  0.9858 -2.0326 -0.3401
 5370TIP3   OH237600   2.706   4.144   0.643  0.3082 -0.4344  0.6092
 5370TIP3    H137601   2.730   4.180   0.557  1.2011 -1.0683  0.5748
 5370TIP3    H237602   2.611   4.147   0.644  0.3046  0.2976 -0.0904
 5371TIP3   OH237603   2.454   5.487   1.600  0.1207  0.2444 -0.0021
 5371TIP3    H137604   2.412   5.568   1.627 -1.2346  0.2843 -2.0007
 5371TIP3    H237605   2.475   5.442   1.682  1.6066  2.8826  1.1960
 5372TIP3   OH237606   0.943   3.652   1.114 -0.2522  0.4619  0.6022
 5372TIP3    H137607   1.016   3.715   1.119 -0.4962  1.0830 -2.2166
 5372TIP3    H237608   0.866   3.707   1.102 -0.8219 -0.3107  0.6875
 5373TIP3   OH237609   1.598   3.413  11.169  0.5199  0.8012  0.5409
 5373TIP3    H137610   1.615   3.505  11.187 -1.2290  1.5933 -1.3795
 5373TIP3    H237611   1.524   3.390  11.224  0.0936  0.9577  0.0403
 5374TIP3   OH237612   6.707   0.891  11.243  0.1188  0.0226  0.0222
 5374TIP3    H137613   6.663   0.960  11.292 -2.5639 -0.1408 -1.9467
 5374TIP3    H237614   6.652   0.814  11.256  2.3891 -1.5182  1.1704
 5375TIP3   OH237615   1.041   1.140   0.187 -0.2229  0.3123 -0.3894
 5375TIP3    H137616   1.081   1.206   0.129 -0.5903  0.6149 -0.3028
 5375TIP3    H237617   1.050   1.178   0.275  0.6312 -0.2945 -0.1993
 5376TIP3   OH237618   6.781   1.754  10.969  0.4187 -0.0697 -0.1335
 5376TIP3    H137619   6.784   1.764  10.874 -0.1627  0.6831 -0.0875
 5376TIP3    H237620   6.867   1.787  10.999  1.2882 -1.9002 -0.4952
 5377TIP3   OH237621   0.201   2.938   6.576 -0.9761 -0.4229 -0.3724
 5377TIP3    H137622   0.231   2.929   6.666 -2.5129  1.3943  0.3798
 5377TIP3    H237623   0.266   2.996   6.535 -0.5754 -0.8118 -0.2974
 5378TIP3   OH237624   2.992   0.318  12.900  0.0391 -0.0722 -0.0415
 5378TIP3    H137625   3.005   0.412  12.915  0.1252  0.2868 -2.0455
 5378TIP3    H237626   3.059   0.295  12.835 -0.3022 -1.4059  0.0506
 5379TIP3   OH237627   5.620   5.942   3.184 -0.3186 -0.3540  0.4678
 5379TIP3    H137628   5.607   6.034   3.159  0.8197 -0.5852 -1.1313
 5379TIP3    H237629   5.532   5.905   3.186 -0.7903  0.7442  1.0793
 5380TIP3   OH237630   0.265   6.048  16.135 -0.1014  0.1237 -0.3314
 5380TIP3    H137631   0.227   6.024  16.220 -1.7169  0.4460 -0.9485
 5380TIP3    H237632   0.227   6.133  16.114  0.6005  0.2405 -1.2120
 5381TIP3   OH237633   3.049   5.650   5.756 -0.1617 -0.0652 -0.2313
 5381TIP3    H137634   3.049   5.565   5.800  1.2335 -0.7631 -1.5061
 5381TIP3    H237635   3.127   5.695   5.790 -0.2728  0.2517 -0.3902
 5382TIP3   OH237636   2.518   5.127  11.713  0.2203 -0.6836 -0.3903
 5382TIP3    H137637   2.561   5.201  11.757 -2.4024  0.8204 -0.1542
 5382TIP3    H237638   2.506   5.062  11.782  2.7037 -1.5204 -0.6337
 5383TIP3   OH237639   3.573   3.072  16.989  0.1099 -0.0193 -0.4408
 5383TIP3    H137640   3.622   2.991  16.999  0.1865 -0.3221 -2.7169
 5383TIP3    H237641   3.591   3.121  17.070  0.0220 -2.2358  0.9959
 5384TIP3   OH237642   2.904   3.710   1.652 -0.3587 -0.4992  0.2305
 5384TIP3    H137643   2.997   3.686   1.653 -0.5795 -1.4914 -1.2825
 5384TIP3    H237644   2.871   3.680   1.737  0.6362 -0.3269  0.6989
 5385TIP3   OH237645   0.567   4.730   4.981  0.2901 -0.1499  0.0883
 5385TIP3    H137646   0.562   4.728   5.077  0.4724  0.0847  0.1062
 5385TIP3    H237647   0.581   4.823   4.961  1.5619 -0.3556 -0.0825
 5386TIP3   OH237648   3.018   4.470  10.846 -0.0594 -0.2704 -0.0210
 5386TIP3    H137649   3.020   4.395  10.787 -0.3977  0.4254 -0.9425
 5386TIP3    H237650   3.084   4.530  10.811 -0.1777  0.1009  0.3808
 5387TIP3   OH237651   2.426   6.316   1.233 -0.5754 -0.2280  0.1323
 5387TIP3    H137652   2.501   6.375   1.240 -0.7453  0.1865 -1.2149
 5387TIP3    H237653   2.350   6.374   1.227 -0.8450 -0.5963 -0.0787
 5388TIP3   OH237654   0.518   0.555  12.225  0.9350  0.0725 -0.4687
 5388TIP3    H137655   0.441   0.569  12.279  1.7685  0.7266  0.5929
 5388TIP3    H237656   0.565   0.639  12.227  1.3298 -0.0884 -1.6791
 5389TIP3   OH237657   0.481   2.792  10.623  0.6213  0.0845  0.4383
 5389TIP3    H137658   0.553   2.730  10.610  0.1034 -0.3131 -0.6221
 5389TIP3    H237659   0.509   2.871  10.577 -0.3138 -0.6317 -1.4632
 5390TIP3   OH237660   6.376   0.133  11.981  0.5284 -0.0728  0.1330
 5390TIP3    H137661   6.287   0.164  11.962  0.1538 -0.8421  0.5906
 5390TIP3    H237662   6.367   0.038  11.989  1.4811 -0.2109 -0.2829
 5391TIP3   OH237663   4.246   1.968   6.491  0.6693 -1.0090  0.3609
 5391TIP3    H137664   4.249   1.876   6.519 -0.9734 -1.0690  0.4671
 5391TIP3    H237665   4.170   1.972   6.433  0.8656  0.2450  0.1711
 5392TIP3   OH237666   4.100   0.188   2.231  0.3942  0.4603 -0.0175
 5392TIP3    H137667   4.120   0.114   2.174  0.5800  1.3558 -1.1728
 5392TIP3    H237668   4.148   0.261   2.192  1.3005  0.9248  1.8485
 5393TIP3   OH237669   2.672   6.477   3.528 -1.3560  0.3045  0.2876
 5393TIP3    H137670   2.625   6.455   3.608 -0.6545 -1.0552  0.3563
 5393TIP3    H237671   2.734   6.544   3.553  0.2801 -1.5268  1.4048
 5394TIP3   OH237672   6.375   3.974   2.576  0.2567  0.0956 -0.1993
 5394TIP3    H137673   6.393   4.009   2.489  1.0099 -0.3349 -0.2181
 5394TIP3    H237674   6.299   4.024   2.606 -0.8982 -0.6981 -1.6660
 5395TIP3   OH237675   0.627   0.438  12.917 -0.2328 -0.1394 -0.2180
 5395TIP3    H137676   0.719   0.425  12.940 -0.6691  0.2791  1.9526
 5395TIP3    H237677   0.579   0.414  12.997 -1.7354  4.1848  0.4100
 5396TIP3   OH237678   1.288   2.079  11.789 -0.2908  0.0956 -0.0191
 5396TIP3    H137679   1.217   2.058  11.849  0.7842  0.6100  1.4958
 5396TIP3    H237680   1.338   2.147  11.834  1.0973 -0.1729 -1.0884
 5397TIP3   OH237681   1.775   1.665   2.431 -0.5599 -0.0222  0.7432
 5397TIP3    H137682   1.822   1.742   2.464  0.7696 -0.3911 -0.1891
 5397TIP3    H237683   1.845   1.603   2.408 -1.5664 -1.0683  0.3999
 5398TIP3   OH237684   1.708   5.106   1.791  0.1774 -0.6161 -0.3096
 5398TIP3    H137685   1.801   5.119   1.813 -0.2016  1.1094  0.4587
 5398TIP3    H237686   1.707   5.103   1.696  0.7436  2.6572 -0.5353
 5399TIP3   OH237687   5.426   6.015   1.135  0.1072 -0.0599  0.2540
 5399TIP3    H137688   5.426   6.064   1.218 -0.2351 -1.1426  0.9135
 5399TIP3    H237689   5.497   5.952   1.146 -0.2483 -0.5175 -0.0945
 5400TIP3   OH237690   2.821   1.987  12.214 -0.8214  0.7990  0.4304
 5400TIP3    H137691   2.866   1.949  12.138  0.8144  0.9645  1.2847
 5400TIP3    H237692   2.737   1.942  12.216  0.3978 -1.6766  0.4433
 5401TIP3   OH237693   1.674   3.195  12.807 -0.2011 -0.2401 -0.3364
 5401TIP3    H137694   1.684   3.136  12.732  4.0731  0.6471 -0.6982
 5401TIP3    H237695   1.671   3.137  12.883 -0.1615 -1.0288 -0.9260
 5402TIP3   OH237696   6.587   3.653   4.555 -0.0722  0.1216  0.9898
 5402TIP3    H137697   6.658   3.714   4.535 -3.1060  3.5431 -0.6860
 5402TIP3    H237698   6.591   3.588   4.485  0.4882  1.2162 -0.0369
 5403TIP3   OH237699   2.962   5.288   3.901  0.0212  0.0092  0.4573
 5403TIP3    H137700   2.970   5.330   3.987 -0.2803  1.3786 -0.1647
 5403TIP3    H237701   3.029   5.329   3.847 -1.0626  0.5767 -0.5039
 5404TIP3   OH237702   0.861   0.138  13.469  0.0822  0.1920  0.0999
 5404TIP3    H137703   0.773   0.108  13.447 -0.0462  0.8419 -0.2900
 5404TIP3    H237704   0.917   0.098  13.403  0.1459 -0.5536  0.5885
 5405TIP3   OH237705   1.139   0.393   4.372 -0.2731  0.6451 -0.5249
 5405TIP3    H137706   1.137   0.481   4.407 -0.5409  0.4342 -0.0074
 5405TIP3    H237707   1.049   0.375   4.346 -0.5308 -0.0193  0.7502
 5406TIP3   OH237708   6.535   4.089  12.873  0.0921  0.3781  0.0854
 5406TIP3    H137709   6.576   4.123  12.953  1.4411 -0.4203 -0.2393
 5406TIP3    H237710   6.541   3.994  12.882 -0.0579  0.2792 -0.8141
 5407TIP3   OH237711   4.948   1.778  16.707 -0.1563  0.6089  0.1055
 5407TIP3    H137712   5.018   1.825  16.661 -1.2802  3.2920  0.9270
 5407TIP3    H237713   4.993   1.724  16.771  1.1994  1.8517  0.2454
 5408TIP3   OH237714   3.938   4.247  15.369  0.0837 -0.5001  0.5409
 5408TIP3    H137715   3.988   4.304  15.311 -1.2105  0.6811  0.5161
 5408TIP3    H237716   3.924   4.299  15.448  0.7542 -1.6258  1.4222
 5409TIP3   OH237717   2.688   6.559  13.924 -0.0533  0.1799  0.1733
 5409TIP3    H137718   2.738   6.526  13.849 -0.0881  2.1097 -0.7423
 5409TIP3    H237719   2.753   6.569  13.993 -0.2091 -2.7566  0.9041
 5410TIP3   OH237720   2.744   2.511  15.999  0.3057  0.0705  0.2656
 5410TIP3    H137721   2.798   2.478  16.070 -0.7058 -0.0484  1.0029
 5410TIP3    H237722   2.656   2.518  16.036  0.0645  1.6042 -0.4696
 5411TIP3   OH237723   5.532   4.656   5.894 -0.4047  0.2786 -0.2581
 5411TIP3    H137724   5.453   4.603   5.883  0.9370 -1.3362 -3.1915
 5411TIP3    H237725   5.586   4.605   5.955  0.1354 -0.9075 -1.6788
 5412TIP3   OH237726   5.584   4.913   5.156 -0.1365  0.1292 -0.1407
 5412TIP3    H137727   5.598   4.823   5.185  0.4606  0.2047 -0.1823
 5412TIP3    H237728   5.566   4.905   5.062 -0.3373  0.0358 -0.0960
 5413TIP3   OH237729   4.689   0.243   3.455  0.3721 -0.4443  0.0776
 5413TIP3    H137730   4.684   0.316   3.393 -0.5659  1.1558  1.9529
 5413TIP3    H237731   4.774   0.202   3.436  0.4247  0.4040 -1.7799
 5414TIP3   OH237732   0.774   6.548  14.502  0.3082 -0.3499  0.2177
 5414TIP3    H137733   0.764   6.482  14.434 -1.2239  0.6223 -0.5330
 5414TIP3    H237734   0.863   6.582  14.490 -0.6159  1.3294 -2.7521
 5415TIP3   OH237735   1.387   2.290  10.609 -0.0290  0.1038 -0.0153
 5415TIP3    H137736   1.438   2.343  10.670  1.0005  0.4085 -1.0961
 5415TIP3    H237737   1.351   2.353  10.546 -0.1340 -0.3082 -0.3745
 5416TIP3   OH237738   6.758   5.865   5.650  0.3305 -0.2348  0.4026
 5416TIP3    H137739   6.817   5.939   5.632  0.0500  0.0393  0.5973
 5416TIP3    H237740   6.737   5.874   5.743 -2.9362  1.8475 -0.3748
 5417TIP3   OH237741   0.417   4.777  13.933  0.3231 -0.1327 -0.1811
 5417TIP3    H137742   0.415   4.873  13.941 -1.3203 -0.2529  1.7914
 5417TIP3    H237743   0.509   4.754  13.946  0.6758  1.1325 -0.2361
 5418TIP3   OH237744   3.328   5.363  11.139 -0.7317 -0.6741 -0.0921
 5418TIP3    H137745   3.388   5.375  11.212 -0.1117  2.8299 -0.9704
 5418TIP3    H237746   3.384   5.370  11.061 -1.9330  0.3261 -0.9048
 5419TIP3   OH237747   3.533   2.038  14.813 -0.2025  0.0297 -0.4323
 5419TIP3    H137748   3.589   2.044  14.890 -1.1269 -2.0623  0.4934
 5419TIP3    H237749   3.469   2.109  14.824 -1.4602 -1.3318  1.7834
 5420TIP3   OH237750   4.137   5.927  15.294  0.0937 -0.2687  1.0568
 5420TIP3    H137751   4.091   5.844  15.283 -1.3647  0.5733  0.4650
 5420TIP3    H237752   4.186   5.917  15.376  0.6083 -1.9764  0.5801
 5421TIP3   OH237753   2.694   4.129  16.740 -0.7217  0.1294 -0.8239
 5421TIP3    H137754   2.678   4.223  16.730 -1.5262  0.0915 -0.0781
 5421TIP3    H237755   2.692   4.115  16.834 -0.2545 -0.5874 -0.9160
 5422TIP3   OH237756   3.029   1.020   0.272 -0.2208  0.2110 -0.3931
 5422TIP3    H137757   3.112   1.012   0.226 -0.0985  1.2203 -0.3665
 5422TIP3    H237758   2.977   1.080   0.219  0.1004  1.7929  0.9722
 5423TIP3   OH237759   3.620   3.162  11.893  0.2708 -0.6972 -0.4477
 5423TIP3    H137760   3.648   3.166  11.984  2.8114  0.1323 -1.1806
 5423TIP3    H237761   3.552   3.095  11.892  0.5904 -1.1576  1.9389
 5424TIP3   OH237762   4.206   5.072  12.483 -0.0144  0.6167 -0.2418
 5424TIP3    H137763   4.128   5.116  12.517  0.2210  2.2841 -1.7372
 5424TIP3    H237764   4.277   5.103  12.538 -0.2850 -0.5480  0.8262
 5425TIP3   OH237765   4.480   1.682   4.704  0.2577  0.1706  0.4408
 5425TIP3    H137766   4.572   1.690   4.730  0.0175 -1.7174  2.1911
 5425TIP3    H237767   4.431   1.691   4.786 -1.1263  1.0713 -0.4545
 5426TIP3   OH237768   5.394   6.660  15.327  0.3049 -0.8650 -1.0196
 5426TIP3    H137769   5.466   6.664  15.390 -2.8393  1.1494  2.9383
 5426TIP3    H237770   5.396   6.745  15.283  0.0164 -0.5475 -0.4316
 5427TIP3   OH237771   1.771   0.869  15.590  0.1474  0.3475  0.6360
 5427TIP3    H137772   1.821   0.862  15.508 -1.0658  1.3978 -0.2387
 5427TIP3    H237773   1.782   0.784  15.632  0.4032 -0.3912 -0.8665
 5428TIP3   OH237774   2.095   5.310  15.023 -0.4284 -0.0498  0.1492
 5428TIP3    H137775   2.025   5.346  14.968  1.0010 -0.6076 -2.1718
 5428TIP3    H237776   2.088   5.215  15.010 -0.7508 -0.2901  1.8810
 5429TIP3   OH237777   6.023   2.173  16.977  0.2956  0.3531  0.1554
 5429TIP3    H137778   6.099   2.214  16.935  0.1209  0.8119  0.2735
 5429TIP3    H237779   5.950   2.190  16.918  0.6154 -1.7889 -0.9339
 5430TIP3   OH237780   6.715   2.005   1.584  0.5159  0.2517 -0.6111
 5430TIP3    H137781   6.715   2.100   1.575 -1.3593  0.2174 -1.6431
 5430TIP3    H237782   6.634   1.977   1.540  1.5346 -1.9097 -1.2787
 5431TIP3   OH237783   1.092   3.213  12.608  0.3076  0.6272  0.6073
 5431TIP3    H137784   1.101   3.308  12.616  1.2824  0.7355 -1.3060
 5431TIP3    H237785   1.087   3.197  12.514  0.7125 -1.2574  0.8748
 5432TIP3   OH237786   2.604   2.066  14.421 -0.0631  0.4156 -0.0437
 5432TIP3    H137787   2.534   2.131  14.419  1.7522  2.4505 -0.8033
 5432TIP3    H237788   2.626   2.057  14.514 -2.7394 -2.0023  0.5095
 5433TIP3   OH237789   2.186   4.336  15.018 -0.5577  0.4814  0.2690
 5433TIP3    H137790   2.280   4.329  14.998 -1.0650 -0.3034 -2.1078
 5433TIP3    H237791   2.157   4.246  15.029 -1.1649  0.6835  0.3327
 5434TIP3   OH237792   1.773   0.499  11.524 -0.6558 -0.7057 -0.1726
 5434TIP3    H137793   1.831   0.572  11.502 -0.3186 -1.2252 -1.0622
 5434TIP3    H237794   1.685   0.534  11.509 -0.6843  0.4742  2.3581
 5435TIP3   OH237795   1.551   3.751  12.320 -0.6004  0.1652 -0.6805
 5435TIP3    H137796   1.477   3.698  12.291  0.0660 -0.2978 -1.6221
 5435TIP3    H237797   1.526   3.783  12.406 -1.3276 -1.1058 -0.3879
 5436TIP3   OH237798   4.876   0.776   3.490 -0.0575  0.6173 -0.6495
 5436TIP3    H137799   4.876   0.762   3.395  0.7501 -1.9573 -0.3594
 5436TIP3    H237800   4.800   0.831   3.506 -1.2775 -0.3370 -2.6329
 5437TIP3   OH237801   1.009   3.090  14.592  0.3893 -0.0122  0.2283
 5437TIP3    H137802   1.002   3.060  14.501  0.6863  0.1087  0.1639
 5437TIP3    H237803   1.100   3.118  14.601  0.4864 -0.4492  0.6939
 5438TIP3   OH237804   3.126   6.641  12.739 -0.0726 -0.1978  0.5381
 5438TIP3    H137805   3.143   6.725  12.782  1.1586 -0.1208 -0.0489
 5438TIP3    H237806   3.041   6.613  12.774 -0.6752  1.4415  0.4824
 5439TIP3   OH237807   5.293   0.861   4.635  0.3020  0.4113  0.1755
 5439TIP3    H137808   5.285   0.818   4.550 -1.4512  2.1813 -0.6437
 5439TIP3    H237809   5.327   0.794   4.693  2.8195 -0.5167 -2.1794
 5440TIP3   OH237810   3.278   2.214  14.719 -0.5816 -0.4964 -0.2770
 5440TIP3    H137811   3.187   2.236  14.705 -0.1998  2.1461  0.7986
 5440TIP3    H237812   3.325   2.257  14.648  0.0927  1.3764  1.2175
 5441TIP3   OH237813   1.736   1.082  13.408  0.1534  0.3526 -0.4552
 5441TIP3    H137814   1.711   1.167  13.372 -0.5992 -0.3985 -1.7697
 5441TIP3    H237815   1.676   1.068  13.482  1.7005  1.8936  1.1936
 5442TIP3   OH237816   2.025   5.627  14.259 -0.9896 -0.6385  0.0296
 5442TIP3    H137817   2.028   5.651  14.166  1.1909  3.1712  0.8708
 5442TIP3    H237818   2.098   5.566  14.270  0.8967  1.4503 -0.2869
 5443TIP3   OH237819   2.116   5.080  15.573  0.3113  0.4643  0.1198
 5443TIP3    H137820   2.112   5.154  15.635  0.4622 -1.0307  2.0105
 5443TIP3    H237821   2.056   5.015  15.610  0.1458 -0.3706 -1.5215
 5444TIP3   OH237822   0.458   0.230   5.627  0.2434  0.1227 -0.2624
 5444TIP3    H137823   0.475   0.246   5.534  0.9465  3.6417  0.3119
 5444TIP3    H237824   0.508   0.299   5.672 -2.6331  0.6028  2.5146
 5445TIP3   OH237825   3.315   3.620  14.335  0.1338 -0.4073 -0.3458
 5445TIP3    H137826   3.229   3.627  14.292 -1.3164  0.2018  2.4441
 5445TIP3    H237827   3.311   3.536  14.381 -0.6681  1.3613  3.0590
 5446TIP3   OH237828   2.295   6.354   2.507 -0.3082  0.2561 -0.4677
 5446TIP3    H137829   2.391   6.358   2.514 -0.1000 -2.5805 -0.1912
 5446TIP3    H237830   2.274   6.409   2.432  1.2946  2.4633  0.5791
 5447TIP3   OH237831   6.188   2.895  12.046 -0.4146 -0.1752  0.4908
 5447TIP3    H137832   6.096   2.877  12.064 -0.0529 -2.1653  0.6126
 5447TIP3    H237833   6.187   2.965  11.982 -2.2187 -2.8805 -2.7447
 5448TIP3   OH237834   3.089   5.961   4.644 -0.1189 -0.0697 -0.3235
 5448TIP3    H137835   3.106   5.867   4.642 -1.5317 -0.4551  1.8220
 5448TIP3    H237836   2.998   5.970   4.615  0.5124  0.8721 -2.1802
 5449TIP3   OH237837   3.196   1.691  11.442 -0.1824 -0.5797 -0.6962
 5449TIP3    H137838   3.142   1.769  11.456  0.5031  0.2791 -2.4634
 5449TIP3    H237839   3.236   1.673  11.527 -2.8164 -0.9818  0.5781
 5450TIP3   OH237840   6.282   2.585  16.834  0.1174 -0.3275  0.1830
 5450TIP3    H137841   6.259   2.676  16.817 -0.8619 -0.7397 -0.8124
 5450TIP3    H237842   6.377   2.585  16.841  0.2419  0.5543 -1.2032
 5451TIP3   OH237843   1.086   5.016  12.570 -0.1728 -0.1051 -1.0190
 5451TIP3    H137844   1.126   4.939  12.610  1.9486  1.3211 -0.2241
 5451TIP3    H237845   1.090   5.083  12.638 -0.2484  1.2337 -2.2858
 5452TIP3   OH237846   3.404   3.403  11.571 -0.3707  0.0985 -0.5618
 5452TIP3    H137847   3.329   3.450  11.606 -0.7477 -1.7524  1.3009
 5452TIP3    H237848   3.468   3.405  11.642 -0.2359 -1.7677 -0.6038
 5453TIP3   OH237849   5.524   5.058  16.269  0.0293 -0.6995 -0.2451
 5453TIP3    H137850   5.586   5.130  16.276  0.4683 -0.9952 -1.0366
 5453TIP3    H237851   5.506   5.050  16.175 -0.6357 -1.0977 -0.0940
 5454TIP3   OH237852   2.024   5.765   5.187  0.2862 -0.5475  0.1778
 5454TIP3    H137853   1.969   5.840   5.164 -0.6196 -1.2756 -0.0954
 5454TIP3    H237854   2.093   5.801   5.243 -1.0603  0.2318  1.3846
 5455TIP3   OH237855   6.779   0.294  10.594 -0.3332  0.1253 -0.0271
 5455TIP3    H137856   6.794   0.245  10.513 -2.1917  0.5935 -0.6971
 5455TIP3    H237857   6.699   0.255  10.631  0.1568  0.3136  1.2915
 5456TIP3   OH237858   2.229   6.179   4.115 -0.2598  0.4596 -0.4989
 5456TIP3    H137859   2.224   6.097   4.065  1.8324  0.0558 -0.1678
 5456TIP3    H237860   2.252   6.245   4.049 -1.8778  0.8013 -0.7542
 5457TIP3   OH237861   0.731   3.539  10.518  0.5407  0.0388 -0.4469
 5457TIP3    H137862   0.665   3.585  10.569  1.5538  0.5526  0.4354
 5457TIP3    H237863   0.791   3.504  10.583 -0.3976 -2.9512 -1.0322
 5458TIP3   OH237864   1.918   6.404   4.843 -0.3139 -0.4532 -0.0250
 5458TIP3    H137865   1.940   6.337   4.909  1.5798 -0.1247 -0.2443
 5458TIP3    H237866   2.004   6.435   4.813 -1.1626  1.3031 -0.7166
 5459TIP3   OH237867   0.307   0.113   0.528 -0.8243 -0.3654 -0.1184
 5459TIP3    H137868   0.338   0.204   0.526  0.3085 -0.6107  2.4231
 5459TIP3    H237869   0.380   0.064   0.566 -0.5191 -2.8003 -3.4517
 5460TIP3   OH237870   6.000   2.995   0.351 -0.3216  0.1390 -1.0855
 5460TIP3    H137871   5.982   3.053   0.277 -1.4660 -0.5882 -1.4033
 5460TIP3    H237872   5.914   2.981   0.391  0.2676  0.4877  0.3787
 5461TIP3   OH237873   6.107   3.616  16.172 -0.1844 -0.2695  0.2828
 5461TIP3    H137874   6.054   3.618  16.252  0.7907  0.4471  0.9329
 5461TIP3    H237875   6.064   3.550  16.117 -1.7353  0.2772  0.7730
 5462TIP3   OH237876   6.591   4.815   3.955 -1.1731 -0.7522  0.0056
 5462TIP3    H137877   6.569   4.887   4.014  1.1923 -0.2976  0.3963
 5462TIP3    H237878   6.528   4.747   3.977 -2.0580  0.3827  1.1641
 5463TIP3   OH237879   3.830   4.888  11.422 -0.0992  0.1383  0.6066
 5463TIP3    H137880   3.798   4.945  11.493 -2.8057 -0.9571  0.4030
 5463TIP3    H237881   3.750   4.861  11.376  1.4173 -0.8539 -1.6032
 5464TIP3   OH237882   4.342   0.454  12.660  0.1621  0.0857  0.1691
 5464TIP3    H137883   4.278   0.405  12.609  1.2942 -1.0159 -0.2534
 5464TIP3    H237884   4.314   0.442  12.751 -1.5517  1.6032 -0.1049
 5465TIP3   OH237885   2.509   0.549   5.009  0.4469  0.6905  0.2551
 5465TIP3    H137886   2.529   0.532   5.101  0.3502 -1.1493 -0.0355
 5465TIP3    H237887   2.416   0.570   5.009  0.5695  1.2681  0.6329
 5466TIP3   OH237888   0.285   1.178   1.582  0.0231  0.0657  0.2266
 5466TIP3    H137889   0.266   1.157   1.674 -0.2829  0.9136  0.3671
 5466TIP3    H237890   0.201   1.167   1.538  0.4012 -1.3823 -0.1631
 5467TIP3   OH237891   1.672   4.616   6.149  0.3356 -0.6020  0.1331
 5467TIP3    H137892   1.586   4.579   6.127  0.5897 -0.1277 -1.9046
 5467TIP3    H237893   1.734   4.546   6.130  0.5220 -0.3458 -0.2379
 5468TIP3   OH237894   0.413   6.360   3.834  0.5031  0.0330  0.0661
 5468TIP3    H137895   0.333   6.357   3.781 -0.5697 -0.3043  1.6385
 5468TIP3    H237896   0.446   6.449   3.823  1.3360 -0.5229 -2.5691
 5469TIP3   OH237897   1.264   1.565  14.314  0.0998  0.1581  0.0337
 5469TIP3    H137898   1.194   1.623  14.283  0.8261  0.7988 -0.4513
 5469TIP3    H237899   1.306   1.533  14.235 -0.7699 -1.6781  0.2756
 5470TIP3   OH237900   1.206   4.490   2.903 -0.0355  0.1554  0.4649
 5470TIP3    H137901   1.195   4.418   2.841 -1.5644  0.0140  0.8646
 5470TIP3    H237902   1.146   4.558   2.872  0.7403  0.9329  0.5993
 5471TIP3   OH237903   3.123   5.550   2.401  0.0827 -0.1515  0.1295
 5471TIP3    H137904   3.064   5.502   2.343  2.2422 -1.8479 -0.7943
 5471TIP3    H237905   3.150   5.626   2.350 -0.2434 -0.0862  0.0486
 5472TIP3   OH237906   1.052   1.359   1.983  0.0878  0.3460 -0.1644
 5472TIP3    H137907   1.113   1.297   2.024 -0.1703 -0.0342 -0.3526
 5472TIP3    H237908   1.028   1.317   1.900 -0.7363  0.3185  0.0878
 5473TIP3   OH237909   1.434   6.183   2.369 -0.4241  0.2936  0.1917
 5473TIP3    H137910   1.491   6.243   2.416  0.4480 -0.5633  0.2566
 5473TIP3    H237911   1.363   6.165   2.430  1.1375 -1.4940  1.6085
 5474TIP3   OH237912   3.888   3.927   1.570  0.4912 -0.3921 -0.8836
 5474TIP3    H137913   3.961   3.916   1.631  0.8901 -0.0558 -1.2898
 5474TIP3    H237914   3.857   3.838   1.554  0.0052 -0.4452  0.2494
 5475TIP3   OH237915   5.929   4.469  12.955  0.1572  0.1715  0.3531
 5475TIP3    H137916   5.968   4.468  12.867 -1.4210 -0.7963 -0.3914
 5475TIP3    H237917   5.933   4.378  12.984  0.5185  0.4596  1.2397
 5476TIP3   OH237918   1.402   3.804   3.285  0.7141 -0.0187 -0.0552
 5476TIP3    H137919   1.306   3.806   3.281  0.7061  0.7133  0.4861
 5476TIP3    H237920   1.428   3.776   3.197  0.0041 -0.4615 -0.1365
 5477TIP3   OH237921   4.522   3.807  15.371 -0.2501  0.1613  0.2008
 5477TIP3    H137922   4.601   3.856  15.393 -1.4655  1.8713  1.0633
 5477TIP3    H237923   4.487   3.778  15.456 -1.7362  1.4627  0.0891
 5478TIP3   OH237924   1.383   6.646  15.350 -0.0175 -0.2696  0.7367
 5478TIP3    H137925   1.387   6.559  15.389  2.0371  0.6153  2.7368
 5478TIP3    H237926   1.406   6.706  15.421 -1.6347  1.9810 -0.4867
 5479TIP3   OH237927   3.923   2.032  12.183 -0.0011 -0.1147 -0.3223
 5479TIP3    H137928   3.848   2.027  12.124 -2.1361  1.6941  2.0099
 5479TIP3    H237929   3.887   2.011  12.269  2.7823 -1.7863  0.5709
 5480TIP3   OH237930   1.960   1.187   5.951 -0.6879 -0.5269  0.1536
 5480TIP3    H137931   1.959   1.234   6.035  0.3827  0.6844 -0.4752
 5480TIP3    H237932   1.991   1.099   5.973  2.9436  0.6977  0.6724
 5481TIP3   OH237933   2.934   6.014  11.255  0.1220  0.1744  0.1092
 5481TIP3    H137934   2.900   6.083  11.199  1.5746 -0.8227 -2.1317
 5481TIP3    H237935   2.857   5.962  11.279 -0.3170 -1.1409 -3.5377
 5482TIP3   OH237936   4.514   3.234  15.575  0.6544 -0.4550 -0.2369
 5482TIP3    H137937   4.600   3.222  15.535  0.3587 -1.0464 -0.7157
 5482TIP3    H237938   4.466   3.154  15.553  0.2029 -0.4273  0.6013
 5483TIP3   OH237939   3.545   3.140   2.211 -0.0781  0.5138  0.1686
 5483TIP3    H137940   3.484   3.161   2.139  1.2454  1.8594 -0.6378
 5483TIP3    H237941   3.605   3.076   2.173 -0.2479  0.1277  0.5534
 5484TIP3   OH237942   6.115   1.467  13.265  0.2434 -0.6549  0.3097
 5484TIP3    H137943   6.162   1.422  13.195  1.6808  2.2439 -0.7819
 5484TIP3    H237944   6.026   1.430  13.263  0.3916 -1.0830 -2.7078
 5485TIP3   OH237945   2.064   6.564  13.865 -0.5693  0.0734  0.7003
 5485TIP3    H137946   2.123   6.615  13.810 -2.0855  0.0253 -1.0221
 5485TIP3    H237947   1.979   6.605  13.856 -0.8002  0.5203  3.6475
 5486TIP3   OH237948   4.558   0.037   0.483 -0.3147 -0.0686 -0.2981
 5486TIP3    H137949   4.595   0.044   0.571 -0.2884  2.6959 -0.4618
 5486TIP3    H237950   4.474  -0.007   0.496 -0.4787  0.6375  1.1743
 5487TIP3   OH237951   0.765   0.755   2.053  0.0193 -0.4766  0.4415
 5487TIP3    H137952   0.674   0.760   2.024  0.0240 -0.7930  0.3732
 5487TIP3    H237953   0.791   0.665   2.037  0.4588 -0.2974  0.1274
 5488TIP3   OH237954   6.378   3.072  14.759 -0.2768  0.3960  0.1063
 5488TIP3    H137955   6.399   3.028  14.842  0.2415  0.9929  0.2974
 5488TIP3    H237956   6.408   3.162  14.772 -0.6538  0.6174 -0.5524
 5489TIP3   OH237957   0.551   0.454   5.138 -0.2548 -0.5768 -0.1034
 5489TIP3    H137958   0.467   0.419   5.169 -0.8846 -0.5153 -1.6789
 5489TIP3    H237959   0.531   0.541   5.105  0.7570  0.0983  0.9594
 5490TIP3   OH237960   5.267   2.843  15.199 -0.0857 -0.2143 -0.0394
 5490TIP3    H137961   5.221   2.761  15.187 -0.1088 -0.4071  1.1679
 5490TIP3    H237962   5.269   2.884  15.113  0.6986 -1.8816 -0.8443
 5491TIP3   OH237963   2.277   5.389  12.011  0.0547 -0.6371 -0.6157
 5491TIP3    H137964   2.219   5.465  12.006 -1.1813 -1.6206 -1.8905
 5491TIP3    H237965   2.355   5.421  12.056 -1.4939  0.7098  1.2922
 5492TIP3   OH237966   2.182   3.988  11.164 -0.2232  0.6797  0.6734
 5492TIP3    H137967   2.151   3.898  11.155  2.1294 -0.1922  0.7585
 5492TIP3    H237968   2.269   3.988  11.124  0.0555  2.7911  1.1625
 5493TIP3   OH237969   4.563   0.848   1.249  0.4354 -0.3629 -0.1166
 5493TIP3    H137970   4.468   0.850   1.242  0.4896 -0.4075 -1.0478
 5493TIP3    H237971   4.583   0.762   1.285  0.1553 -0.6859 -0.7135
 5494TIP3   OH237972   3.687   0.597   4.425 -0.1635 -0.3165 -0.4701
 5494TIP3    H137973   3.782   0.597   4.411  0.1282 -0.3337  1.2171
 5494TIP3    H237974   3.666   0.689   4.441 -0.3963 -0.3431 -0.6207
 5495TIP3   OH237975   3.726   4.734   1.089 -0.3687 -0.0973  0.0366
 5495TIP3    H137976   3.810   4.774   1.067  0.6448 -0.9563  2.0255
 5495TIP3    H237977   3.743   4.640   1.086 -0.5389 -0.2900  2.6909
 5496TIP3   OH237978   0.584   2.485  11.187 -0.2513  0.0793  0.7547
 5496TIP3    H137979   0.602   2.419  11.119 -0.6815 -0.0711  0.7848
 5496TIP3    H237980   0.524   2.546  11.145 -2.4961 -1.3346  1.7442
 5497TIP3   OH237981   2.265   2.250   4.055 -0.5649 -0.2628  0.0894
 5497TIP3    H137982   2.263   2.157   4.033  0.3532 -0.1125 -0.6946
 5497TIP3    H237983   2.276   2.294   3.971  0.2408  0.4790  0.5639
 5498TIP3   OH237984   5.371   4.312  16.352 -0.3518  0.1061  0.2186
 5498TIP3    H137985   5.330   4.360  16.281  0.6173  0.1519 -0.3277
 5498TIP3    H237986   5.303   4.254  16.385 -0.9884  0.5373 -0.3297
 5499TIP3   OH237987   1.027   0.758  16.434  0.7051 -0.3922  0.0518
 5499TIP3    H137988   1.025   0.684  16.494 -0.6172 -1.1872 -0.9153
 5499TIP3    H237989   1.047   0.720  16.349  1.1291  0.5216 -0.2684
 5500TIP3   OH237990   6.797   4.297  10.987  0.4602  0.3982  0.3334
 5500TIP3    H137991   6.739   4.314  11.062  0.1356 -0.3380  0.2614
 5500TIP3    H237992   6.738   4.273  10.916  0.6785  2.3161 -0.5497
 5501TIP3   OH237993   4.129   2.840   3.873  0.5656 -0.5346  0.0737
 5501TIP3    H137994   4.222   2.858   3.860  0.1788  2.9142  1.0104
 5501TIP3    H237995   4.084   2.919   3.843 -1.9881 -1.5811  0.8030
 5502TIP3   OH237996   2.338   6.189   5.534  0.5951  0.3156 -0.5581
 5502TIP3    H137997   2.406   6.236   5.581 -0.2871  1.7575 -0.6381
 5502TIP3    H237998   2.352   6.097   5.556  1.1407  0.7957  1.2844
 5503TIP3   OH237999   5.530   3.034   0.432  0.7981  0.8952 -0.1354
 5503TIP3    H138000   5.595   3.021   0.363 -0.5399  0.6901 -1.4172
 5503TIP3    H238001   5.570   2.997   0.510  1.9692  0.2168 -1.0169
 5504TIP3   OH238002   2.935   0.166   3.132 -0.3018 -0.1911 -0.4386
 5504TIP3    H138003   2.907   0.163   3.041  1.2696 -1.2680 -0.9373
 5504TIP3    H238004   3.020   0.121   3.132 -0.0909  0.1283  1.4899
 5505TIP3   OH238005   6.500   1.639  14.939  0.6016 -0.9385 -0.5558
 5505TIP3    H138006   6.592   1.649  14.963  0.2004 -0.4231  0.9089
 5505TIP3    H238007   6.500   1.580  14.864  2.1833 -0.2236 -1.1477
 5506TIP3   OH238008   1.444   2.578  12.271  0.5468  0.2349  0.4240
 5506TIP3    H138009   1.516   2.639  12.288  1.3538 -0.8981  1.1456
 5506TIP3    H238010   1.384   2.628  12.216  1.7729  1.2717 -0.0238
 5507TIP3   OH238011   6.848   3.630   2.270 -0.2812 -0.0396  0.4170
 5507TIP3    H138012   6.928   3.584   2.242  0.8444  1.5419  0.8724
 5507TIP3    H238013   6.868   3.662   2.358 -1.6415 -0.0712  0.7577
 5508TIP3   OH238014   2.861   0.919  14.393 -0.7981  0.3604 -0.4702
 5508TIP3    H138015   2.884   0.869  14.471  0.1048  2.3343  0.5934
 5508TIP3    H238016   2.883   0.861  14.320 -0.2082 -0.9468  0.6918
 5509TIP3   OH238017   0.039   1.214  17.051  0.4039  0.2932 -0.0596
 5509TIP3    H138018   0.074   1.221  17.140  0.3874 -0.9945  0.0619
 5509TIP3    H238019   0.083   1.284  17.003  1.5985  0.0194  0.5839
 5510TIP3   OH238020   3.328   6.412   3.034  0.2991  0.4078 -0.1773
 5510TIP3    H138021   3.265   6.484   3.042 -0.5204 -0.2831 -0.1337
 5510TIP3    H238022   3.299   6.365   2.955  1.5824  0.8335 -0.9204
 5511TIP3   OH238023   6.831   6.081   2.876 -0.5518 -0.4225  0.1363
 5511TIP3    H138024   6.811   6.052   2.787  2.3165 -1.7569 -0.1635
 5511TIP3    H238025   6.849   6.175   2.867  0.4645 -0.6996 -0.8439
 5512TIP3   OH238026   4.897   2.707   3.791 -0.0109 -0.3250  0.1116
 5512TIP3    H138027   4.834   2.723   3.861  0.0623 -1.4394  0.4560
 5512TIP3    H238028   4.982   2.726   3.831  0.1474 -2.2051  0.7776
 5513TIP3   OH238029   3.149   0.207   0.525  0.2979 -0.4036  0.5567
 5513TIP3    H138030   3.077   0.212   0.588 -0.5844  2.4508 -0.5091
 5513TIP3    H238031   3.138   0.123   0.482 -1.9773 -0.3772  0.9468
 5514TIP3   OH238032   2.261   2.160  13.065  0.0195  0.1237  0.2173
 5514TIP3    H138033   2.304   2.077  13.086  0.9125  0.2340 -1.0597
 5514TIP3    H238034   2.328   2.226  13.084  0.6638  0.2662 -2.2473
 5515TIP3   OH238035   6.310   3.456   1.708  0.3004 -0.0681  0.0689
 5515TIP3    H138036   6.388   3.417   1.669 -0.9030  0.3198 -3.0152
 5515TIP3    H238037   6.287   3.528   1.649 -0.9504  1.5040  2.3121
 5516TIP3   OH238038   3.617   4.515   0.032 -0.1800  0.6279 -0.1740
 5516TIP3    H138039   3.526   4.544   0.020 -0.1084 -0.0538 -3.0315
 5516TIP3    H238040   3.669   4.578  -0.018  0.7112 -0.0670 -0.1444
 5517TIP3   OH238041   5.903   3.777   0.529 -0.3231 -0.7672  0.2929
 5517TIP3    H138042   5.840   3.819   0.470 -1.1577 -1.1205  0.9147
 5517TIP3    H238043   5.872   3.800   0.616  0.5703 -0.7334  0.6110
 5518TIP3   OH238044   2.373   3.079  11.721 -0.0969  0.1876 -0.5341
 5518TIP3    H138045   2.287   3.113  11.697 -1.2842 -3.1424 -1.4141
 5518TIP3    H238046   2.382   3.100  11.814 -1.8684  0.5702 -0.4277
 5519TIP3   OH238047   6.565   6.428   0.416 -0.5669 -0.0976 -0.0808
 5519TIP3    H138048   6.589   6.358   0.478 -0.7649 -0.5742 -0.5388
 5519TIP3    H238049   6.566   6.508   0.469  1.1307 -0.2109  0.1317
 5520TIP3   OH238050   1.593   5.192   2.041 -0.0274  0.0858 -0.3952
 5520TIP3    H138051   1.505   5.190   2.005  0.3486  1.8567 -1.5262
 5520TIP3    H238052   1.649   5.165   1.968  0.3339 -2.6639  0.7481
 5521TIP3   OH238053   6.739   3.410  13.888 -0.3586 -0.5446  0.6568
 5521TIP3    H138054   6.724   3.479  13.953  1.6210  1.3871 -0.7787
 5521TIP3    H238055   6.698   3.443  13.808  2.3558  0.0197 -0.5947
 5522TIP3   OH238056   5.631   1.776   2.214  0.5963  0.4128  0.1448
 5522TIP3    H138057   5.552   1.731   2.245  0.8793  1.2557  2.2580
 5522TIP3    H238058   5.618   1.785   2.120 -0.9375 -1.1697  0.1523
 5523TIP3   OH238059   4.751   3.735   3.517 -0.6966 -0.0806  0.1096
 5523TIP3    H138060   4.842   3.748   3.544 -1.2991  1.6666  1.5427
 5523TIP3    H238061   4.728   3.648   3.550 -0.6529  1.0126  3.3793
 5524TIP3   OH238062   5.975   6.385  12.046 -0.0205 -0.1227  0.7537
 5524TIP3    H138063   5.907   6.389  11.978  0.6258  0.1099  0.0991
 5524TIP3    H238064   5.929   6.403  12.127 -0.9008 -0.8775  0.4396
 5525TIP3   OH238065   5.689   6.489  10.681 -0.4903 -0.1821 -0.0017
 5525TIP3    H138066   5.713   6.396  10.677 -1.2188 -0.3584 -0.4132
 5525TIP3    H238067   5.724   6.526  10.600 -0.5745 -0.1868 -0.0400
 5526TIP3   OH238068   5.417   4.742   3.194 -0.3776  0.2222 -0.3748
 5526TIP3    H138069   5.413   4.673   3.127  0.6462 -0.9551  0.7250
 5526TIP3    H238070   5.345   4.801   3.172 -3.5927 -2.9829  0.5841
 5527TIP3   OH238071   6.598   1.175  13.890 -0.2833 -0.1724  0.6970
 5527TIP3    H138072   6.514   1.176  13.936  0.1358 -0.7825  1.5018
 5527TIP3    H238073   6.633   1.263  13.903 -1.0559  0.2811 -0.1620
 5528TIP3   OH238074   0.613   0.601  11.437 -0.5528 -0.6605 -0.2660
 5528TIP3    H138075   0.644   0.535  11.499  1.5259 -0.4454 -1.0062
 5528TIP3    H238076   0.602   0.554  11.354  0.8371 -0.1426 -0.7706
 5529TIP3   OH238077   0.913   1.131  12.093 -0.2210  0.3259  1.0929
 5529TIP3    H138078   0.985   1.099  12.039  0.3763  1.3277  1.2588
 5529TIP3    H238079   0.942   1.116  12.183 -0.5535  0.0419  1.1538
 5530TIP3   OH238080   1.068   5.665   3.855  0.0642  0.5168  0.3081
 5530TIP3    H138081   1.030   5.702   3.935  0.1137  0.1193  0.5168
 5530TIP3    H238082   1.008   5.593   3.831 -0.7033  1.4655 -0.7597
 5531TIP3   OH238083   5.244   0.329   1.865  0.0457 -0.0065 -0.1662
 5531TIP3    H138084   5.285   0.264   1.809 -1.5844 -1.5006  0.3055
 5531TIP3    H238085   5.208   0.394   1.804 -0.1776 -0.6779 -0.7544
 5532TIP3   OH238086   3.897   2.695  13.672 -0.3776 -0.9926  0.5935
 5532TIP3    H138087   3.967   2.758  13.654  0.2121 -1.3602  1.5670
 5532TIP3    H238088   3.853   2.730  13.749 -0.5014 -1.3964  0.7065
 5533TIP3   OH238089   1.988   1.922   1.266  0.0619 -0.0716 -0.2044
 5533TIP3    H138090   2.008   1.861   1.195 -0.6765  0.5928 -0.9971
 5533TIP3    H238091   1.981   2.007   1.224 -3.5630 -0.0823  0.0667
 5534TIP3   OH238092   1.985   0.848   4.146  0.2819 -0.2370  0.0206
 5534TIP3    H138093   1.941   0.867   4.229 -0.2859  1.5318 -0.6422
 5534TIP3    H238094   1.929   0.784   4.103 -1.0626  1.0539 -0.2582
 5535TIP3   OH238095   2.059   1.820   1.001 -0.1590 -0.2269  0.0526
 5535TIP3    H138096   2.154   1.816   1.013  0.0798 -0.0423 -1.5382
 5535TIP3    H238097   2.038   1.742   0.951 -0.8648 -0.3086  0.4741
 5536TIP3   OH238098   5.952   0.088  15.195 -0.3648 -0.5336 -0.5627
 5536TIP3    H138099   5.863   0.071  15.163 -0.2414 -0.4157 -0.9727
 5536TIP3    H238100   6.005   0.020  15.153 -0.4407 -1.3384  0.5894
 5537TIP3   OH238101   2.348   6.138  12.570  0.2816 -0.1031 -0.0384
 5537TIP3    H138102   2.331   6.217  12.520  2.2064  1.7369  2.0153
 5537TIP3    H238103   2.383   6.076  12.505  1.4095  1.7016 -1.2639
 5538TIP3   OH238104   5.121   3.140  13.145 -0.1982 -0.4533 -0.0549
 5538TIP3    H138105   5.195   3.106  13.094  0.4809  1.1124 -0.1802
 5538TIP3    H238106   5.100   3.069  13.206  0.2162 -1.6289 -1.2312
 5539TIP3   OH238107   2.361   3.587  13.177 -0.3284 -0.0871 -0.0328
 5539TIP3    H138108   2.396   3.614  13.092 -0.9152 -1.6140 -0.8072
 5539TIP3    H238109   2.437   3.556  13.226 -0.2526 -1.2400 -0.8409
 5540TIP3   OH238110   1.269   4.558   3.946 -0.7752  0.8281  0.9952
 5540TIP3    H138111   1.312   4.499   4.007 -2.2798  1.4929  2.8084
 5540TIP3    H238112   1.330   4.632   3.936  1.1886 -0.9409 -1.4134
 5541TIP3   OH238113   5.544   2.446  11.296 -0.5010 -0.3391  0.0050
 5541TIP3    H138114   5.479   2.498  11.250 -0.1734  1.1908  1.1810
 5541TIP3    H238115   5.623   2.454  11.243 -0.4423  0.4271  0.1987
 5542TIP3   OH238116   1.390   6.134  13.295  0.3913  0.5451  0.3905
 5542TIP3    H138117   1.325   6.067  13.276  0.3709  0.6696  0.0146
 5542TIP3    H238118   1.407   6.176  13.211 -0.9573  2.2275  0.8855
 5543TIP3   OH238119   5.708   2.662   3.861  0.7689  0.4246 -0.6386
 5543TIP3    H138120   5.713   2.611   3.780  0.2670 -1.7042  0.5870
 5543TIP3    H238121   5.776   2.624   3.917 -0.7470 -0.0750  0.9347
 5544TIP3   OH238122   5.023   5.133   2.655 -0.5615 -0.4842  0.7117
 5544TIP3    H138123   4.938   5.173   2.636 -0.1793  0.5550  1.0799
 5544TIP3    H238124   5.046   5.166   2.743 -0.6955 -2.3740  1.5001
 5545TIP3   OH238125   0.259   3.072  12.289 -0.0995  0.2065  0.2366
 5545TIP3    H138126   0.194   3.007  12.262 -0.2391  0.7604 -0.8211
 5545TIP3    H238127   0.339   3.022  12.302  0.0643 -0.0661 -1.5796
 5546TIP3   OH238128   1.499   1.076  12.681 -0.0260  0.8100 -0.3271
 5546TIP3    H138129   1.468   1.074  12.772  1.1133  1.1930  0.0890
 5546TIP3    H238130   1.451   1.149  12.641  0.7456  1.7956  0.4754
 5547TIP3   OH238131   0.533   2.574   4.030  0.1781 -0.1352 -0.1952
 5547TIP3    H138132   0.547   2.651   3.974  0.7349 -1.3437 -1.7897
 5547TIP3    H238133   0.565   2.601   4.116 -0.9088  1.8577 -0.3570
 5548TIP3   OH238134   5.502   5.512   0.986  0.1775  0.6828 -0.1235
 5548TIP3    H138135   5.468   5.487   1.072  0.0066 -2.2413 -0.9130
 5548TIP3    H238136   5.596   5.518   0.998  0.3467 -1.4238 -0.0065
 5549TIP3   OH238137   5.142   6.079   4.305  0.3750  0.1424 -0.2454
 5549TIP3    H138138   5.208   6.031   4.354  2.2136  0.5165 -2.2196
 5549TIP3    H238139   5.161   6.060   4.213  0.0562  3.1545 -1.0491
 5550TIP3   OH238140   2.085   3.072  10.978  0.1838  0.8989 -0.2024
 5550TIP3    H138141   2.064   3.154  10.934 -1.7985  0.1140 -0.8510
 5550TIP3    H238142   2.142   3.025  10.917  0.6319  1.4298 -0.1970
 5551TIP3   OH238143   6.729   4.897   4.737 -0.0353 -0.2936  0.0313
 5551TIP3    H138144   6.763   4.940   4.815 -1.7400  1.4331 -0.0870
 5551TIP3    H238145   6.651   4.850   4.768 -0.1361 -0.4422 -0.4368
 5552TIP3   OH238146   6.836   3.788  15.832 -0.2681  0.1268  0.6132
 5552TIP3    H138147   6.898   3.859  15.816 -0.6535  0.4150  0.4006
 5552TIP3    H238148   6.756   3.832  15.860 -0.9911 -0.1231 -0.9664
 5553TIP3   OH238149   2.933   4.564  15.431  0.2841 -0.9774  0.0416
 5553TIP3    H138150   2.993   4.637  15.443  1.0460 -1.3720 -1.1595
 5553TIP3    H238151   2.857   4.586  15.485  2.1566 -1.2805  2.9826
 5554TIP3   OH238152   5.315   5.630  13.957 -0.1796  0.5240  0.0450
 5554TIP3    H138153   5.292   5.537  13.961 -0.9201  0.6619 -0.6908
 5554TIP3    H238154   5.231   5.674  13.947  0.3358  1.0745 -2.4969
 5555TIP3   OH238155   5.408   1.652   4.133  0.0986 -0.2028 -0.4087
 5555TIP3    H138156   5.467   1.582   4.161  0.8421  2.0087  4.5023
 5555TIP3    H238157   5.461   1.707   4.075  0.9122 -1.3469 -0.7811
 5556TIP3   OH238158   0.394   1.107   1.838 -0.3878  0.2022  0.1304
 5556TIP3    H138159   0.420   1.190   1.878 -1.7169  0.3357  0.7755
 5556TIP3    H238160   0.476   1.059   1.827  0.5521  1.9586 -1.1338
 5557TIP3   OH238161   0.125   3.768  15.336 -0.6539 -0.2142  0.3823
 5557TIP3    H138162   0.103   3.838  15.276 -1.1117  0.0654  0.8687
 5557TIP3    H238163   0.123   3.808  15.423  0.1634 -0.5698  0.5823
 5558TIP3   OH238164   6.209   2.559   6.086 -0.4787  0.0547 -0.4126
 5558TIP3    H138165   6.132   2.609   6.114 -1.5422 -0.8495 -1.5404
 5558TIP3    H238166   6.206   2.479   6.138 -0.8278 -0.3644 -1.0544
 5559TIP3   OH238167   1.274   1.579   6.324 -0.0737 -0.3180  0.3406
 5559TIP3    H138168   1.318   1.664   6.320  0.2465 -0.5168 -0.7721
 5559TIP3    H238169   1.182   1.600   6.340  0.1364  0.1905  0.9156
 5560TIP3   OH238170   6.609   2.902   1.616 -0.5996 -0.2407 -0.5521
 5560TIP3    H138171   6.536   2.848   1.584 -0.3491 -0.9913  0.1089
 5560TIP3    H238172   6.680   2.885   1.555 -0.2776 -1.2856  0.0946
 5561TIP3   OH238173   1.839   5.993   2.945  0.0283  0.1219 -0.0836
 5561TIP3    H138174   1.899   5.948   3.004  2.4609  1.1751 -1.5871
 5561TIP3    H238175   1.819   5.928   2.878 -0.4415 -0.1963  0.3572
 5562TIP3   OH238176   1.572   4.797  16.505  0.2634  0.3048  0.7878
 5562TIP3    H138177   1.552   4.846  16.585 -1.6934  1.0254 -0.0681
 5562TIP3    H238178   1.561   4.861  16.435 -0.3314 -0.8478 -0.2139
 5563TIP3   OH238179   6.435   2.985   3.156 -0.1302 -0.3814 -0.2718
 5563TIP3    H138180   6.464   3.002   3.246  2.0098 -4.0957 -0.0689
 5563TIP3    H238181   6.348   2.947   3.165  0.7027 -2.2365  0.4788
 5564TIP3   OH238182   4.517   4.959  12.711 -0.1789  0.5208 -0.5814
 5564TIP3    H138183   4.591   5.002  12.666  0.4767  1.4811  1.3160
 5564TIP3    H238184   4.482   5.026  12.769 -0.5453 -0.8664  0.8627
 5565TIP3   OH238185   2.230   5.710   3.859  0.7704 -0.6601  0.5775
 5565TIP3    H138186   2.145   5.755   3.865 -0.0229 -2.0563  0.1925
 5565TIP3    H238187   2.241   5.670   3.945  1.4081  0.1197  0.8709
 5566TIP3   OH238188   2.792   5.583   1.735 -0.1782 -0.4785  0.0033
 5566TIP3    H138189   2.854   5.550   1.800 -1.5077 -2.2833  0.4322
 5566TIP3    H238190   2.737   5.508   1.714 -2.0479  0.9799 -0.5653
 5567TIP3   OH238191   6.102   0.033   1.200 -0.1689  0.3822  0.0578
 5567TIP3    H138192   6.026   0.088   1.217 -0.2169  0.1038  0.7832
 5567TIP3    H238193   6.171   0.070   1.256  1.3046  2.7732 -3.0160
 5568TIP3   OH238194   1.897   5.212  15.424 -0.2445  0.0257  0.0941
 5568TIP3    H138195   1.963   5.250  15.367 -2.2360  0.5107 -2.0662
 5568TIP3    H238196   1.946   5.157  15.485  2.0571 -0.4289 -2.0066
 5569TIP3   OH238197   1.618   2.097   4.909 -0.4880 -0.1714 -0.1792
 5569TIP3    H138198   1.628   2.020   4.853 -0.6256  0.4218 -1.0268
 5569TIP3    H238199   1.687   2.156   4.882 -0.1509 -0.1411  0.7307
 5570TIP3   OH238200   2.380   1.142   2.662 -0.3368 -0.0921 -0.3980
 5570TIP3    H138201   2.381   1.071   2.726 -1.7554 -0.5551 -0.8663
 5570TIP3    H238202   2.306   1.123   2.605  0.4879  0.6774 -1.7827
 5571TIP3   OH238203   0.545   6.353  14.888  0.2400 -0.3111 -0.0411
 5571TIP3    H138204   0.580   6.319  14.970  0.3527  0.8119  0.4001
 5571TIP3    H238205   0.460   6.389  14.911  0.3682  0.2115 -0.3604
 5572TIP3   OH238206   3.982   5.784   2.961  0.2465 -0.0577  0.4002
 5572TIP3    H138207   3.990   5.694   2.929  0.2738  0.1702 -0.2579
 5572TIP3    H238208   3.945   5.832   2.887  0.2501  0.4776  0.7425
 5573TIP3   OH238209   0.448   3.322  13.735 -0.5692  0.3391 -0.2803
 5573TIP3    H138210   0.451   3.235  13.775 -0.1015 -0.1044 -1.2454
 5573TIP3    H238211   0.379   3.316  13.670 -0.1296  0.4906 -0.7729
 5574TIP3   OH238212   2.760   3.009   5.547  0.0279 -0.2864  0.0101
 5574TIP3    H138213   2.677   3.003   5.595  0.9804 -1.0507  1.6237
 5574TIP3    H238214   2.827   3.004   5.615  1.4094  1.5520 -1.1444
 5575TIP3   OH238215   6.250   0.110   0.698  0.3514 -0.0503 -0.4193
 5575TIP3    H138216   6.203   0.043   0.649 -1.9188  1.8846 -1.0376
 5575TIP3    H238217   6.244   0.083   0.789  0.7830 -1.4153 -0.7761
 5576TIP3   OH238218   3.670   6.696   5.805 -0.0462 -0.2661  0.0142
 5576TIP3    H138219   3.707   6.776   5.767  0.4681  1.2138  3.2682
 5576TIP3    H238220   3.745   6.642   5.827 -0.3210 -1.0016 -0.7978
 5577TIP3   OH238221   4.062   4.529   4.211  0.0694  0.3040 -0.3988
 5577TIP3    H138222   4.043   4.622   4.194  1.4907  0.5714 -0.6329
 5577TIP3    H238223   4.043   4.518   4.305  1.2336  1.2041 -0.0317
 5578TIP3   OH238224   2.288   1.138  13.896  0.7886  0.6531  0.1956
 5578TIP3    H138225   2.290   1.164  13.804 -0.3391  1.1751  0.3037
 5578TIP3    H238226   2.307   1.045  13.896  0.4815  0.5887 -0.6011
 5579TIP3   OH238227   4.577   2.553   1.399  0.7492 -0.1181  0.6184
 5579TIP3    H138228   4.562   2.497   1.324  0.5497  0.7912 -0.0361
 5579TIP3    H238229   4.530   2.511   1.471 -2.0826  0.8164 -0.5620
 5580TIP3   OH238230   5.553   5.561  11.557 -0.5880 -0.1766  0.1481
 5580TIP3    H138231   5.572   5.648  11.593  0.2977  0.0508 -0.8232
 5580TIP3    H238232   5.578   5.500  11.626  2.0487  0.2014 -0.3705
 5581TIP3   OH238233   3.727   3.515   4.664  0.2168  0.3222 -0.4254
 5581TIP3    H138234   3.819   3.538   4.675  0.6617 -1.0770 -1.0645
 5581TIP3    H238235   3.714   3.440   4.722  0.1101 -0.9926 -2.0909
 5582TIP3   OH238236   6.125   5.593   2.960  0.4640 -0.4092 -0.0819
 5582TIP3    H138237   6.141   5.627   2.872  0.7610  1.7540  0.7313
 5582TIP3    H238238   6.212   5.580   2.997  0.4055  1.2040  0.7300
 5583TIP3   OH238239   4.398   6.647   0.796 -0.3345 -0.1817  0.0863
 5583TIP3    H138240   4.358   6.625   0.880 -0.9517  1.5428  0.2810
 5583TIP3    H238241   4.324   6.667   0.739  0.1355  0.8492 -0.1970
 5584TIP3   OH238242   4.276   1.831   1.173 -0.0699  0.0247  0.4133
 5584TIP3    H138243   4.340   1.832   1.102 -0.5931 -0.2848 -0.0697
 5584TIP3    H238244   4.191   1.820   1.130 -0.7077  2.5591  0.8647
 5585TIP3   OH238245   1.957   2.632  15.581 -0.3990  0.6846 -0.0733
 5585TIP3    H138246   1.923   2.660  15.666  0.8272  0.4094  0.5434
 5585TIP3    H238247   2.011   2.705  15.551  1.3437 -0.2287  0.6872
 5586TIP3   OH238248   6.467   3.852   4.717  0.4384 -0.1743  0.1113
 5586TIP3    H138249   6.500   3.776   4.669 -1.0084 -0.8657  0.1409
 5586TIP3    H238250   6.383   3.822   4.753 -0.2511  1.4920 -0.0352
 5587TIP3   OH238251   0.303   4.545  14.841 -0.5946  1.0201 -0.0334
 5587TIP3    H138252   0.348   4.482  14.897 -2.0338 -2.1409 -2.1241
 5587TIP3    H238253   0.240   4.588  14.898 -0.4913 -0.4449  1.2453
 5588TIP3   OH238254   2.053   6.669  13.319 -0.2534 -0.5861 -0.5197
 5588TIP3    H138255   2.054   6.713  13.403  3.4368 -1.0686 -0.1086
 5588TIP3    H238256   2.090   6.733  13.258  0.7012 -1.4701 -0.9059
 5589TIP3   OH238257   2.054   3.181  16.248  0.0382  0.3331  0.3202
 5589TIP3    H138258   2.072   3.261  16.199 -0.0654 -0.4545 -1.0364
 5589TIP3    H238259   2.134   3.129  16.241  0.3777  0.6062  1.8238
 5590TIP3   OH238260   5.057   5.585  11.363  0.6582 -0.0637  0.0438
 5590TIP3    H138261   5.088   5.495  11.364  1.0568  0.0725  0.3114
 5590TIP3    H238262   5.099   5.626  11.439  0.4724  0.3425 -0.0661
 5591TIP3   OH238263   2.488   6.323   0.609 -0.7651  0.4421  0.5970
 5591TIP3    H138264   2.534   6.282   0.536  0.4528  2.4523  0.1642
 5591TIP3    H238265   2.419   6.260   0.633 -0.6800 -0.6184 -1.7267
 5592TIP3   OH238266   1.275   1.348   1.776  0.2914  0.1932 -0.2454
 5592TIP3    H138267   1.264   1.443   1.785  0.0910  0.2016 -0.5803
 5592TIP3    H238268   1.359   1.329   1.818  0.0266  0.4331  0.4042
 5593TIP3   OH238269   3.065   0.182   0.980 -0.4072 -0.6793  0.0821
 5593TIP3    H138270   3.064   0.087   0.998  0.3353 -1.0206 -1.5434
 5593TIP3    H238271   3.064   0.188   0.885 -2.6676  1.0088  0.1442
 5594TIP3   OH238272   1.184   6.057   1.502 -0.2500 -0.4883 -0.1802
 5594TIP3    H138273   1.203   6.052   1.409 -2.1176  1.5274 -0.7463
 5594TIP3    H238274   1.108   6.000   1.514 -0.2046 -0.4963  0.0769
 5595TIP3   OH238275   1.731   2.981  16.426 -0.3630 -0.5541 -0.1107
 5595TIP3    H138276   1.746   2.985  16.331  2.6047  1.2960  0.3040
 5595TIP3    H238277   1.637   2.997  16.436 -0.5724  0.3389 -2.7034
 5596TIP3   OH238278   4.670   2.492  16.629  0.3303  0.3474 -0.0519
 5596TIP3    H138279   4.720   2.484  16.548  1.5359 -0.4491  0.7457
 5596TIP3    H238280   4.651   2.402  16.656  0.1574  0.5896  0.6753
 5597TIP3   OH238281   3.975   1.842   1.511 -0.4040  0.3736 -0.5084
 5597TIP3    H138282   3.915   1.811   1.443 -0.2275  0.6744 -0.8053
 5597TIP3    H238283   4.051   1.874   1.463 -0.6518  1.4181 -0.2159
 5598TIP3   OH238284   0.998   5.771   1.380  0.1420  0.1584 -0.2766
 5598TIP3    H138285   0.930   5.705   1.365  0.6863 -0.0451 -2.0534
 5598TIP3    H238286   0.959   5.832   1.443 -0.5114 -1.6107  1.1109
 5599TIP3   OH238287   2.508   0.758  12.270 -0.3190 -0.3802  0.2856
 5599TIP3    H138288   2.588   0.808  12.281 -2.1232  2.3567  2.5693
 5599TIP3    H238289   2.500   0.745  12.175  2.4312 -0.2220 -0.0442
 5600TIP3   OH238290   5.942   3.080   2.766  0.4517  0.1355  0.1282
 5600TIP3    H138291   5.960   3.165   2.726 -0.4585  0.0077 -0.5863
 5600TIP3    H238292   6.028   3.042   2.783  0.8527  0.6717 -0.6912
 5601TIP3   OH238293   0.667   3.320   0.225 -0.1206 -0.2366  0.8923
 5601TIP3    H138294   0.600   3.362   0.170  0.6528  0.4322  0.4383
 5601TIP3    H238295   0.666   3.228   0.198 -1.1327 -0.3178  1.1731
 5602TIP3   OH238296   3.383   0.286  13.955  0.1849 -0.0459  0.5581
 5602TIP3    H138297   3.322   0.341  13.905  0.6628  0.1640  0.1956
 5602TIP3    H238298   3.392   0.331  14.039 -0.6232 -0.4002  0.8329
 5603TIP3   OH238299   0.501   0.625   3.995 -0.1642  0.1206 -0.1456
 5603TIP3    H138300   0.583   0.615   3.948 -1.6696 -0.5740 -2.8540
 5603TIP3    H238301   0.468   0.711   3.968  0.5010  1.2738  2.4480
 5604TIP3   OH238302   1.820   1.634   0.578 -1.0944  0.5196  0.2658
 5604TIP3    H138303   1.858   1.547   0.568  0.7196  1.1557  1.1266
 5604TIP3    H238304   1.735   1.619   0.620 -1.8328 -0.9445 -1.5673
 5605TIP3   OH238305   5.133   4.382  13.502  0.1646  0.1514  0.2716
 5605TIP3    H138306   5.160   4.473  13.499  1.1244 -0.1326 -0.0906
 5605TIP3    H238307   5.181   4.345  13.576  1.3254 -0.5243 -0.7890
 5606TIP3   OH238308   3.342   0.803  12.442  0.3307  0.1311 -0.1908
 5606TIP3    H138309   3.269   0.839  12.392  0.4675  2.8576  1.3705
 5606TIP3    H238310   3.416   0.861  12.422  1.4173 -1.0412  0.2416
 5607TIP3   OH238311   0.374   0.584  13.848  0.2688  0.1954  0.1123
 5607TIP3    H138312   0.294   0.604  13.800  0.0503  2.0454  1.1544
 5607TIP3    H238313   0.435   0.553  13.782 -1.0430 -0.5087 -0.8133
 5608TIP3   OH238314   3.186   0.898   1.509  0.1549 -0.1894  0.4815
 5608TIP3    H138315   3.165   0.889   1.416 -1.2115 -0.6753  0.8026
 5608TIP3    H238316   3.203   0.808   1.538  1.7671  0.0864  0.4693
 5609TIP3   OH238317   6.079   6.619   0.275  0.1897  0.1358 -0.0256
 5609TIP3    H138318   6.032   6.578   0.348  1.8425 -0.3280  0.8283
 5609TIP3    H238319   6.154   6.561   0.260  0.7669  1.1052 -1.0078
 5610TIP3   OH238320   2.517   3.767  12.979  0.0478 -0.1539  0.2668
 5610TIP3    H138321   2.461   3.733  12.909 -0.4163 -1.0154  1.0318
 5610TIP3    H238322   2.605   3.738  12.955 -0.1213 -0.5345  0.0864
 5611TIP3   OH238323   0.817   0.359   3.272  0.1248 -0.3359 -0.3792
 5611TIP3    H138324   0.782   0.272   3.291  1.2248 -0.6684  0.2023
 5611TIP3    H238325   0.764   0.391   3.200 -0.3429 -1.4611 -0.5537
 5612TIP3   OH238326   0.970   6.414  11.170 -0.4259 -0.1585  0.1267
 5612TIP3    H138327   0.916   6.416  11.249 -1.0687  1.6248 -0.3142
 5612TIP3    H238328   1.060   6.419  11.202 -0.6999  3.8409  0.7979
 5613TIP3   OH238329   2.265   0.145   0.517 -0.1292  0.4735 -0.4353
 5613TIP3    H138330   2.322   0.090   0.570  0.1921  0.8174 -0.4206
 5613TIP3    H238331   2.178   0.131   0.554 -0.2276 -0.8536 -1.1179
 5614TIP3   OH238332   5.199   5.870  12.321 -0.4872  0.0795 -0.0057
 5614TIP3    H138333   5.287   5.864  12.360  0.2483  0.7541 -1.4802
 5614TIP3    H238334   5.213   5.916  12.239 -2.0431 -0.9666 -0.8951
 5615TIP3   OH238335   0.974   2.098  11.411 -0.1759  0.5428 -0.0962
 5615TIP3    H138336   0.967   2.095  11.506 -0.7213  1.9521 -0.0628
 5615TIP3    H238337   0.894   2.143  11.383 -0.0902  0.0244 -1.2350
 5616TIP3   OH238338   4.308   4.270  16.960 -0.1304  0.5049 -0.7232
 5616TIP3    H138339   4.299   4.189  17.010  2.2908  0.9446  0.5916
 5616TIP3    H238340   4.225   4.316  16.973 -1.0223 -1.1126 -0.3648
 5617TIP3   OH238341   1.512   5.959  10.066 -0.2484  0.1275 -0.6897
 5617TIP3    H138342   1.429   5.961  10.018  0.6221 -0.3906 -2.2836
 5617TIP3    H238343   1.527   6.050  10.090 -1.0555  0.2944 -0.7701
 5618TIP3   OH238344   2.401   5.351  16.570 -0.2472  0.0384  0.0248
 5618TIP3    H138345   2.478   5.308  16.533 -0.5622 -1.2164  0.7565
 5618TIP3    H238346   2.385   5.426  16.513  0.9499 -0.2284 -0.6867
 5619TIP3   OH238347   1.927   2.902  12.770 -0.1637 -0.0417 -0.1628
 5619TIP3    H138348   1.910   2.912  12.677 -0.9579  0.6479  0.0433
 5619TIP3    H238349   1.923   2.991  12.805  3.2348  0.1569  0.0585
 5620TIP3   OH238350   0.273   5.512   3.784 -0.2098 -0.1732  0.6135
 5620TIP3    H138351   0.317   5.580   3.836 -0.7727 -0.4924  1.5364
 5620TIP3    H238352   0.181   5.540   3.782 -0.2270 -0.2762 -0.0428
 5621TIP3   OH238353   3.877   0.217   1.891 -0.5986  0.1848 -0.3316
 5621TIP3    H138354   3.902   0.246   1.803 -1.2121 -0.1011 -0.6085
 5621TIP3    H238355   3.858   0.298   1.938 -1.3176  0.3004 -0.7987
 5622TIP3   OH238356   1.094   1.582   5.267 -0.1558  0.0306  0.1695
 5622TIP3    H138357   1.080   1.543   5.180 -0.9477 -0.3193  0.4460
 5622TIP3    H238358   1.170   1.639   5.255 -0.3360  0.0951 -0.7899
 5623TIP3   OH238359   2.237   4.129   4.032  0.7763  0.1964  0.1584
 5623TIP3    H138360   2.238   4.053   3.975  0.1985 -0.2705  0.7542
 5623TIP3    H238361   2.274   4.097   4.115  2.9637  1.2162 -0.3507
 5624TIP3   OH238362   1.519   1.806  15.509  0.0237 -0.0305  0.0844
 5624TIP3    H138363   1.497   1.808  15.602  0.1247  0.8066  0.1033
 5624TIP3    H238364   1.457   1.867  15.468  1.2026  1.0933 -0.1033
 5625TIP3   OH238365   0.679   4.842  11.778 -0.2415 -0.0246 -0.2619
 5625TIP3    H138366   0.611   4.812  11.718  0.4172  0.6999 -1.4058
 5625TIP3    H238367   0.630   4.876  11.854 -1.2557  1.5648 -1.5489
 5626TIP3   OH238368   4.934   2.374   2.936 -0.6023 -0.0869 -0.3508
 5626TIP3    H138369   4.883   2.302   2.972 -1.5289  0.1441 -1.1555
 5626TIP3    H238370   5.020   2.366   2.977 -1.0175 -1.0104  0.3650
 5627TIP3   OH238371   3.051   1.385  10.652  0.1869 -0.1004 -0.1737
 5627TIP3    H138372   3.070   1.291  10.656 -1.1762 -0.3994 -0.3079
 5627TIP3    H238373   2.959   1.390  10.626 -0.0651  1.2620  0.9009
 5628TIP3   OH238374   4.637   2.781  15.966  0.1150 -0.9218 -0.5425
 5628TIP3    H138375   4.643   2.840  15.891 -0.6399  0.6824  0.5989
 5628TIP3    H238376   4.592   2.832  16.034 -0.2797 -2.7096  0.6203
 5629TIP3   OH238377   2.361   1.124   1.464  0.1147  0.1701 -0.0682
 5629TIP3    H138378   2.269   1.106   1.446 -0.3096 -3.0867  3.8822
 5629TIP3    H238379   2.361   1.173   1.546  1.9826  2.2595 -1.1828
 5630TIP3   OH238380   6.608   1.771  12.262 -0.2991  0.1478  0.1491
 5630TIP3    H138381   6.673   1.832  12.297 -0.1180 -0.0397  0.1425
 5630TIP3    H238382   6.554   1.824  12.204 -0.1250  0.2951  0.1214
 5631TIP3   OH238383   4.398   2.931  16.948 -0.3891 -0.3373 -0.1370
 5631TIP3    H138384   4.308   2.962  16.941 -0.2076  0.4138  0.6723
 5631TIP3    H238385   4.452   3.009  16.935  0.1650 -0.8408 -0.9963
 5632TIP3   OH238386   4.450   5.862   2.119  0.5306  1.0472  0.0831
 5632TIP3    H138387   4.360   5.885   2.140  0.6998  0.6420  1.2960
 5632TIP3    H238388   4.503   5.905   2.186  1.1268  0.1083  0.2419
 5633TIP3   OH238389   1.925   3.494   4.165  0.2832  0.1758 -0.0231
 5633TIP3    H138390   1.959   3.484   4.076  0.1072  0.5252 -0.1332
 5633TIP3    H238391   1.997   3.535   4.213 -0.7109  3.1451 -0.8223
 5634TIP3   OH238392   1.706   6.181  13.994  0.6966 -0.4231 -0.0767
 5634TIP3    H138393   1.749   6.148  13.916  0.8624  1.7605 -0.9887
 5634TIP3    H238394   1.772   6.234  14.038  0.5743 -1.5250  1.5254
 5635TIP3   OH238395   3.350   0.272  10.933  0.0289 -1.0272 -0.5323
 5635TIP3    H138396   3.305   0.221  11.001 -1.0514 -1.4012 -1.5024
 5635TIP3    H238397   3.335   0.224  10.852 -0.8564  0.7124 -1.4540
 5636TIP3   OH238398   6.207   1.914  14.590 -0.1336  0.3953 -0.1352
 5636TIP3    H138399   6.182   1.962  14.669  0.6054  2.1501 -0.9088
 5636TIP3    H238400   6.268   1.973  14.545 -0.9388 -0.3087 -2.2723
 5637TIP3   OH238401   0.210   5.731  13.774 -1.0792 -0.3622 -0.1833
 5637TIP3    H138402   0.257   5.677  13.837 -1.5463 -0.4634  0.0829
 5637TIP3    H238403   0.181   5.671  13.706 -0.0914 -0.1665 -0.7959
 5638TIP3   OH238404   1.785   4.617   1.434  0.0225 -0.1848 -0.7596
 5638TIP3    H138405   1.791   4.540   1.490 -0.2245 -0.0774 -0.5831
 5638TIP3    H238406   1.863   4.668   1.455  0.3374 -0.5291 -1.0906
 5639TIP3   OH238407   4.509   6.370  16.069  0.1505 -0.2070 -0.4269
 5639TIP3    H138408   4.515   6.452  16.119  2.9933 -0.5218 -0.0767
 5639TIP3    H238409   4.479   6.397  15.982 -0.8557  0.9015  0.2337
 5640TIP3   OH238410   4.508   3.086  15.289  0.1027 -0.0720  0.3662
 5640TIP3    H138411   4.599   3.058  15.304  0.2150 -0.5143 -0.9863
 5640TIP3    H238412   4.514   3.181  15.279  0.9332 -0.3346 -2.6795
 5641TIP3   OH238413   5.822   2.759  13.028 -0.1183  0.1399 -0.7562
 5641TIP3    H138414   5.760   2.731  13.095  0.5994  1.0270  0.3169
 5641TIP3    H238415   5.768   2.800  12.961 -0.7380  0.5397 -0.0291
 5642TIP3   OH238416   0.570   0.872  13.446  0.4760 -0.5321 -0.3507
 5642TIP3    H138417   0.596   0.839  13.360  1.9313  0.8089 -0.4653
 5642TIP3    H238418   0.584   0.966  13.441 -2.2909  0.0013  0.3930
 5643TIP3   OH238419   1.892   5.681   2.251 -0.2748  0.0146  0.5849
 5643TIP3    H138420   1.962   5.725   2.300 -1.5043  0.7467  1.7609
 5643TIP3    H238421   1.869   5.742   2.181  0.6359 -0.4853 -0.1714
 5644TIP3   OH238422   6.362   2.104  15.737  0.4260  0.5203  0.3763
 5644TIP3    H138423   6.371   2.199  15.742  1.3301  0.4947 -0.4506
 5644TIP3    H238424   6.447   2.073  15.706 -0.0290 -0.5046  0.0891
 5645TIP3   OH238425   3.831   1.593   2.748 -0.0380 -0.1272  0.6270
 5645TIP3    H138426   3.833   1.688   2.749  2.3555 -0.1044  1.0593
 5645TIP3    H238427   3.755   1.569   2.801 -0.2867  1.5455  1.0698
 5646TIP3   OH238428   6.655   6.372  13.034  0.6409  0.2368  0.4051
 5646TIP3    H138429   6.708   6.293  13.038 -0.1327 -0.3514 -0.5514
 5646TIP3    H238430   6.705   6.432  12.979  1.2402  0.4262  1.1524
 5647TIP3   OH238431   0.751   0.211   1.431  0.0008  0.3125 -0.0022
 5647TIP3    H138432   0.661   0.181   1.447  0.1140  0.6564  1.4412
 5647TIP3    H238433   0.740   0.291   1.379 -0.5401  0.4532  0.3155
 5648TIP3   OH238434   4.737   4.754   0.699  0.4249  0.1141 -0.3475
 5648TIP3    H138435   4.756   4.679   0.755  0.0960 -0.8163 -1.4447
 5648TIP3    H238436   4.744   4.830   0.757  1.6332 -0.6766  0.5889
 5649TIP3   OH238437   5.328   1.459  12.306 -0.3181 -0.1056 -0.3929
 5649TIP3    H138438   5.418   1.482  12.283  0.0682 -0.1004  1.0647
 5649TIP3    H238439   5.276   1.493  12.233  0.8887 -0.5662 -1.5162
 5650TIP3   OH238440   1.289   3.670   2.420 -0.2992 -0.3878 -0.0085
 5650TIP3    H138441   1.288   3.675   2.516  2.3077  0.3219  0.0548
 5650TIP3    H238442   1.304   3.577   2.401 -0.6923 -0.5087  0.2586
 5651TIP3   OH238443   6.329   4.227  13.184 -0.1350 -0.4880  0.0491
 5651TIP3    H138444   6.377   4.146  13.200  0.5651 -0.0295  0.2963
 5651TIP3    H238445   6.323   4.269  13.270 -0.9124 -0.5020  0.0082
 5652TIP3   OH238446   4.450   1.319   0.731 -0.5995  0.4027  0.4241
 5652TIP3    H138447   4.415   1.352   0.813 -1.8366  0.6861 -0.2020
 5652TIP3    H238448   4.532   1.276   0.756 -0.6352  1.0302  1.7056
 5653TIP3   OH238449   4.476   4.378  11.166 -0.3601  0.0152 -0.6260
 5653TIP3    H138450   4.510   4.441  11.230 -1.0234  0.4730 -0.7114
 5653TIP3    H238451   4.421   4.319  11.218  0.3698 -0.5885 -0.5244
 5654TIP3   OH238452   2.205   3.664   1.041 -0.1561 -0.1723  0.1726
 5654TIP3    H138453   2.296   3.694   1.044 -0.7114  1.5760  0.5360
 5654TIP3    H238454   2.203   3.589   1.101  0.7660  0.6141  1.2219
 5655TIP3   OH238455   4.781   5.384   4.684 -0.0484 -0.2964  0.1824
 5655TIP3    H138456   4.695   5.344   4.668 -0.1283 -0.9963  2.0899
 5655TIP3    H238457   4.764   5.479   4.680 -0.0566 -0.3253 -3.3502
 5656TIP3   OH238458   3.228   6.226   3.988  0.0909  0.6988 -0.0348
 5656TIP3    H138459   3.254   6.137   4.013 -0.6461  0.2931 -0.6706
 5656TIP3    H238460   3.194   6.265   4.069  1.5159  0.8241  0.5285
 5657TIP3   OH238461   2.540   6.084   3.988 -0.4760 -0.2874  0.4151
 5657TIP3    H138462   2.613   6.132   3.948 -1.5049 -1.1337 -2.8373
 5657TIP3    H238463   2.581   6.005   4.025  0.4747  0.1453  0.3249
 5658TIP3   OH238464   3.818   2.449  16.519 -0.3346 -0.4060 -0.1204
 5658TIP3    H138465   3.797   2.463  16.426 -0.5056  1.1382  0.1213
 5658TIP3    H238466   3.912   2.434  16.520 -0.1347  0.7513 -0.4496
 5659TIP3   OH238467   3.466   4.178   5.137  0.8935 -0.6225 -0.3136
 5659TIP3    H138468   3.429   4.196   5.223 -0.1009 -1.4624 -0.5418
 5659TIP3    H238469   3.485   4.264   5.100 -2.6061  0.0503 -0.9301
 5660TIP3   OH238470   2.929   3.715  16.844 -1.0418  0.0350 -0.1380
 5660TIP3    H138471   2.882   3.782  16.895  0.2562  1.2259 -0.4400
 5660TIP3    H238472   3.011   3.701  16.892 -0.2760  0.3773 -1.2943
 5661TIP3   OH238473   5.665   4.205   5.191  0.0155  0.0420 -0.1373
 5661TIP3    H138474   5.623   4.131   5.234  0.1436  0.3550  0.5402
 5661TIP3    H238475   5.759   4.187   5.198  0.0943  0.8092  1.0532
 5662TIP3   OH238476   6.773   5.147  15.545 -0.1468  0.5208 -0.0279
 5662TIP3    H138477   6.689   5.174  15.580  0.4172  0.9276  1.0435
 5662TIP3    H238478   6.766   5.052  15.535 -0.2595  0.3638  1.3913
 5663TIP3   OH238479   2.861   1.152   3.927  0.1721 -0.0343 -0.1221
 5663TIP3    H138480   2.933   1.212   3.950  0.3327 -0.4275  0.4094
 5663TIP3    H238481   2.818   1.133   4.010  0.2807 -0.8573 -0.2442
 5664TIP3   OH238482   6.779   1.242   4.187 -0.1931  0.4893  0.1093
 5664TIP3    H138483   6.866   1.202   4.185  0.3495  1.6455 -0.4854
 5664TIP3    H238484   6.745   1.222   4.274 -0.0917 -1.5241 -0.2815
 5665TIP3   OH238485   3.375   1.678  11.206 -0.0178  0.7134  0.0915
 5665TIP3    H138486   3.440   1.731  11.252  1.8049 -1.8245  0.6642
 5665TIP3    H238487   3.297   1.681  11.261  0.5396  1.5151  0.8653
 5666TIP3   OH238488   3.998   1.758  16.278  0.7684 -0.4450 -0.1488
 5666TIP3    H138489   4.076   1.807  16.248 -1.2949  2.4801 -1.2254
 5666TIP3    H238490   3.948   1.742  16.198 -1.6479  1.5008  0.8361
 5667TIP3   OH238491   3.367   1.584  16.243 -0.3687  0.1468  0.3190
 5667TIP3    H138492   3.406   1.568  16.157 -0.9973  1.2586 -0.1828
 5667TIP3    H238493   3.442   1.604  16.300  0.0753 -0.8640  0.1124
 5668TIP3   OH238494   3.321   6.689   5.569  0.5630  0.4289 -0.0879
 5668TIP3    H138495   3.230   6.673   5.544  0.3211 -0.3116  1.1742
 5668TIP3    H238496   3.366   6.607   5.548  0.8282  0.6108 -0.2308
 5669TIP3   OH238497   5.663   6.225   1.625 -0.1147 -0.1826 -0.0089
 5669TIP3    H138498   5.741   6.275   1.599 -1.5782  2.2005 -0.0636
 5669TIP3    H238499   5.647   6.167   1.550 -0.6788  2.2199 -1.9069
 5670TIP3   OH238500   0.748   1.484   3.521  0.1459  0.4633 -0.2333
 5670TIP3    H138501   0.681   1.532   3.570  0.8070  0.3237  0.8438
 5670TIP3    H238502   0.725   1.392   3.534 -0.7510  0.4466 -1.7626
 5671TIP3   OH238503   2.405   3.380   6.037 -0.2390 -0.0909 -0.6247
 5671TIP3    H138504   2.400   3.388   6.133  2.5366 -0.0273 -0.4038
 5671TIP3    H238505   2.451   3.460   6.009 -2.3364  0.6368 -2.2297
 5672TIP3   OH238506   6.107   1.758   1.443  0.3521  0.8623  0.1763
 5672TIP3    H138507   6.113   1.850   1.470  1.3059  1.1752 -0.9961
 5672TIP3    H238508   6.195   1.737   1.412  0.5162 -0.8701  1.6648
 5673TIP3   OH238509   6.562   4.141  11.374  0.1599  0.4103  0.0942
 5673TIP3    H138510   6.602   4.212  11.324 -2.7572  1.2041 -1.3196
 5673TIP3    H238511   6.592   4.061  11.331  2.2272  0.7763  0.7390
 5674TIP3   OH238512   3.012   4.979  10.430 -0.0997 -0.2005  0.1969
 5674TIP3    H138513   3.038   4.916  10.498 -0.8080 -0.4810  0.2116
 5674TIP3    H238514   3.060   5.059  10.453  0.5860 -0.6448  0.3416
 5675TIP3   OH238515   3.868   2.948  11.910 -0.3295 -0.1437  0.5917
 5675TIP3    H138516   3.876   3.040  11.886  1.2842 -0.5814 -0.7173
 5675TIP3    H238517   3.905   2.943  11.998  1.1987  0.2229  0.0052
 5676TIP3   OH238518   4.125   6.106   3.114  0.5443 -0.3642 -0.5283
 5676TIP3    H138519   4.087   6.054   3.185  2.0656 -0.0766  0.5775
 5676TIP3    H238520   4.196   6.155   3.157 -1.2283  3.2320 -1.3171
 5677TIP3   OH238521   0.449   2.620   3.545 -0.2432 -0.2814 -0.4775
 5677TIP3    H138522   0.517   2.644   3.607 -0.7345 -1.3265  0.4950
 5677TIP3    H238523   0.376   2.679   3.564 -0.2616 -0.3660 -0.2792
 5678TIP3   OH238524   5.274   2.031  11.697 -0.3568 -0.1819  0.4671
 5678TIP3    H138525   5.189   2.073  11.707  0.1445  0.6821  1.2621
 5678TIP3    H238526   5.288   1.986  11.781  0.4847  0.6716  0.7995
 5679TIP3   OH238527   0.834   2.828   3.128  0.2604  0.2452  0.5290
 5679TIP3    H138528   0.877   2.884   3.192  1.0254 -0.1140  0.3444
 5679TIP3    H238529   0.898   2.759   3.109 -0.6120 -0.6349  0.6620
 5680TIP3   OH238530   5.389   3.400  10.821 -0.0549  0.5466 -0.3579
 5680TIP3    H138531   5.398   3.320  10.769  1.2534  0.4128  0.0324
 5680TIP3    H238532   5.427   3.377  10.906  0.0996  1.4972 -0.1619
 5681TIP3   OH238533   4.820   4.194  12.371 -0.8034  0.0409  0.3886
 5681TIP3    H138534   4.772   4.234  12.300  0.1898 -0.3399 -0.5251
 5681TIP3    H238535   4.901   4.245  12.378 -0.6306 -0.2840  0.8415
 5682TIP3   OH238536   0.311   1.179   3.065  0.3652 -0.5185  0.4791
 5682TIP3    H138537   0.270   1.122   2.999  1.1987 -1.0160  0.3717
 5682TIP3    H238538   0.248   1.249   3.078 -0.0544 -0.6956 -0.4602
 5683TIP3   OH238539   6.641   3.092  13.391 -0.2296  0.2051 -0.5584
 5683TIP3    H138540   6.664   3.006  13.355 -0.7036 -0.1214 -0.1001
 5683TIP3    H238541   6.681   3.155  13.332 -0.5529 -0.3288 -1.3515
 5684TIP3   OH238542   1.125   0.289  15.838 -0.0613 -0.5538 -0.2010
 5684TIP3    H138543   1.107   0.373  15.879  1.0347  0.7840 -2.2734
 5684TIP3    H238544   1.208   0.261  15.877 -0.3384 -0.6095  0.3621
 5685TIP3   OH238545   1.199   5.289  12.446 -0.6616 -0.9216  0.3067
 5685TIP3    H138546   1.165   5.202  12.465 -0.2726 -0.8862  1.2408
 5685TIP3    H238547   1.193   5.297  12.351 -0.6191 -1.9999  0.1997
 5686TIP3   OH238548   4.477   1.053  15.443  0.3374  0.2470  0.1492
 5686TIP3    H138549   4.522   0.974  15.473 -0.8144 -0.6503 -0.3771
 5686TIP3    H238550   4.547   1.114  15.421  1.2975  0.5207  3.3850
 5687TIP3   OH238551   4.364   5.035   1.164  0.2881 -0.6345  0.3663
 5687TIP3    H138552   4.392   4.961   1.219  1.6844  0.1390  0.7528
 5687TIP3    H238553   4.324   5.097   1.224  0.7889 -0.2796  0.3385
 5688TIP3   OH238554   0.371   6.616  13.699 -0.0961  0.6038 -0.1228
 5688TIP3    H138555   0.277   6.627  13.685 -0.0807  0.3845 -0.4072
 5688TIP3    H238556   0.395   6.690  13.755 -0.6309  0.0931  0.8134
 5689TIP3   OH238557   3.443   2.276  16.721  0.2369  0.3817  0.0113
 5689TIP3    H138558   3.393   2.222  16.659  0.8989 -1.2655  0.8531
 5689TIP3    H238559   3.377   2.305  16.785 -0.1004  0.4318 -0.3540
 5690TIP3   OH238560   0.187   0.845   6.472 -0.2130  0.0919 -0.0217
 5690TIP3    H138561   0.213   0.931   6.439  1.5418 -0.2960  0.2313
 5690TIP3    H238562   0.255   0.786   6.440 -0.6814 -0.9846  0.8982
 5691TIP3   OH238563   0.369   0.629   3.424 -0.3111  0.3190  0.6006
 5691TIP3    H138564   0.426   0.661   3.494  0.6173 -0.8436  0.4147
 5691TIP3    H238565   0.392   0.536   3.416 -0.9231  0.2688 -0.7541
 5692TIP3   OH238566   4.978   5.918   2.816  0.4959 -0.6086 -0.0827
 5692TIP3    H138567   4.937   5.833   2.799  1.3204 -1.0244 -0.0597
 5692TIP3    H238568   5.071   5.897   2.829  0.8347  0.3872 -0.8175
 5693TIP3   OH238569   4.384   5.292   2.696 -0.1582 -0.5031  0.3277
 5693TIP3    H138570   4.475   5.283   2.725  0.1395  2.0800  0.3777
 5693TIP3    H238571   4.390   5.299   2.600 -0.0728  1.4674  0.4410
 5694TIP3   OH238572   5.181   6.591   1.038  0.4539 -0.5350 -0.1040
 5694TIP3    H138573   5.153   6.605   0.948  0.9307  2.0333  0.0940
 5694TIP3    H238574   5.133   6.512   1.065 -1.1732 -0.2685 -1.9700
 5695TIP3   OH238575   5.087   1.179  14.048  0.4317  0.0390 -0.1047
 5695TIP3    H138576   5.012   1.189  13.990 -0.0811 -1.8802  0.1708
 5695TIP3    H238577   5.092   1.262  14.096 -2.1592 -0.1630  0.6420
 5696TIP3   OH238578   5.463   3.995  16.863  0.5396  0.3867  0.6825
 5696TIP3    H138579   5.430   4.084  16.852  1.7271  0.7260 -0.3928
 5696TIP3    H238580   5.394   3.950  16.912 -1.4869  1.0373 -1.3995
 5697TIP3   OH238581   3.125   2.459   2.683  0.9862  0.1640  0.2669
 5697TIP3    H138582   3.105   2.382   2.629 -0.7497 -0.4550  1.6950
 5697TIP3    H238583   3.219   2.451   2.702  0.7637 -1.8835  0.7548
 5698TIP3   OH238584   5.186   4.589  14.632 -0.2582 -0.3856  0.5023
 5698TIP3    H138585   5.271   4.614  14.668 -1.5829  1.4396  2.6103
 5698TIP3    H238586   5.138   4.552  14.706 -1.5866 -0.6320 -0.4427
 5699TIP3   OH238587   2.058   4.037   5.095 -0.2482 -0.1117 -0.7269
 5699TIP3    H138588   2.097   4.078   5.018 -1.3866  0.4040 -1.0518
 5699TIP3    H238589   1.964   4.046   5.082 -0.4699  0.9700  1.2426
 5700TIP3   OH238590   0.083   2.113  10.682 -0.2368  0.6517  0.3700
 5700TIP3    H138591   0.123   2.174  10.620 -0.1106 -0.5396 -0.7453
 5700TIP3    H238592   0.106   2.027  10.649 -0.5019 -0.0161  1.8683
 5701TIP3   OH238593   2.866   1.673  11.558  0.1400 -0.2454  0.1923
 5701TIP3    H138594   2.838   1.644  11.472 -1.4881 -0.1901  0.6738
 5701TIP3    H238595   2.820   1.756  11.573  0.8246  0.0265  0.8877
 5702TIP3   OH238596   1.095   2.876  14.456  0.0987 -0.2533 -0.0059
 5702TIP3    H138597   1.113   2.866  14.362  0.6730 -0.8599  0.1670
 5702TIP3    H238598   1.179   2.861  14.498  0.0962  1.1282  0.5500
 5703TIP3   OH238599   6.170   3.799   0.931 -0.3762  0.0625 -0.3178
 5703TIP3    H138600   6.216   3.792   1.014 -1.4009 -1.4901  0.1687
 5703TIP3    H238601   6.111   3.723   0.930 -3.2378  2.1058 -0.6868
 5704TIP3   OH238602   1.545   1.472  16.960 -0.4125 -0.1082  0.2233
 5704TIP3    H138603   1.567   1.531  17.032  0.6678  0.8379 -0.8346
 5704TIP3    H238604   1.538   1.386  17.001 -0.7889  0.5455  1.6030
 5705TIP3   OH238605   2.475   5.054  14.954  0.5005  0.0209 -0.2858
 5705TIP3    H138606   2.380   5.045  14.960  0.5511  0.0637  0.5978
 5705TIP3    H238607   2.492   5.146  14.976  0.8740 -0.3789  1.1468
 5706TIP3   OH238608   4.922   1.109  11.020 -0.9642  0.2707  0.3736
 5706TIP3    H138609   4.945   1.131  10.930 -0.7181 -1.1186  0.0711
 5706TIP3    H238610   4.839   1.063  11.014 -1.5700  1.2354  1.0061
 5707TIP3   OH238611   5.514   6.828   1.411 -0.0175  0.2767 -0.1356
 5707TIP3    H138612   5.502   6.923   1.404 -2.1005  0.1548  0.8228
 5707TIP3    H238613   5.533   6.813   1.504  1.1141 -0.2060 -0.4241
 5708TIP3   OH238614   3.949   4.686  13.021 -0.2241  0.1273  0.1888
 5708TIP3    H138615   3.915   4.775  13.006 -1.8849 -0.7532 -1.6762
 5708TIP3    H238616   3.873   4.635  13.049  0.6131 -0.8343  0.7833
 5709TIP3   OH238617   6.170   1.926   4.830 -0.1784  0.0174  0.1937
 5709TIP3    H138618   6.085   1.882   4.835 -0.0747 -0.2333 -0.2451
 5709TIP3    H238619   6.228   1.862   4.790  0.3389  0.0107  0.9312
 5710TIP3   OH238620   5.144   3.391  11.173 -0.3987  0.1884 -0.2863
 5710TIP3    H138621   5.090   3.366  11.248 -0.8302  0.1834 -0.5991
 5710TIP3    H238622   5.224   3.339  11.183 -0.5902 -0.0550 -0.0074
 5711TIP3   OH238623   5.805   6.114  12.211  0.5254  0.4447  0.0293
 5711TIP3    H138624   5.774   6.156  12.131  2.0294  0.2854 -0.6797
 5711TIP3    H238625   5.861   6.180  12.252  0.3081  0.2783  0.5996
 5712TIP3   OH238626   5.295   1.520   2.586 -0.4072  0.0025 -0.6272
 5712TIP3    H138627   5.270   1.611   2.570 -2.1176  0.0283  1.6852
 5712TIP3    H238628   5.268   1.474   2.507 -2.1130  1.0989 -0.7371
 5713TIP3   OH238629   3.637   2.081   2.279  0.1349 -0.4610 -0.1752
 5713TIP3    H138630   3.600   1.993   2.271 -0.2621 -0.1295 -2.4769
 5713TIP3    H238631   3.585   2.135   2.221  2.1441  0.7056 -0.9928
 5714TIP3   OH238632   5.800   3.654   5.702  0.8016  0.3367  0.1326
 5714TIP3    H138633   5.800   3.621   5.612  0.5545  1.0340 -0.1291
 5714TIP3    H238634   5.891   3.647   5.730  0.7986 -0.3296  0.0034
 5715TIP3   OH238635   5.831   5.000   0.876  0.0785 -0.6196 -0.0342
 5715TIP3    H138636   5.823   5.040   0.962  0.2111  0.0146 -0.3135
 5715TIP3    H238637   5.909   5.039   0.838  0.2544 -1.2021 -0.2867
 5716TIP3   OH238638   0.404   2.295   6.170  0.6976  0.4136  0.5133
 5716TIP3    H138639   0.470   2.355   6.205 -0.4229  1.3197  1.1391
 5716TIP3    H238640   0.376   2.244   6.246 -0.6283  1.3165  0.6648
 5717TIP3   OH238641   2.195   0.980  13.601 -0.4955 -0.1635  0.2622
 5717TIP3    H138642   2.283   1.005  13.575  0.5808 -2.4085  1.4339
 5717TIP3    H238643   2.206   0.894  13.643 -3.1102 -0.1029  1.2526
 5718TIP3   OH238644   3.604   5.010   4.483 -0.2383  0.1898  0.5353
 5718TIP3    H138645   3.527   4.976   4.528 -0.7666  0.7353  0.0652
 5718TIP3    H238646   3.675   5.003   4.547 -0.7224 -0.1326  1.0424
 5719TIP3   OH238647   6.489   3.271   3.943  0.4337  0.5115  0.6996
 5719TIP3    H138648   6.434   3.258   3.866  2.0085 -3.9806  0.0277
 5719TIP3    H238649   6.568   3.314   3.910  0.1232  0.7648  0.2936
 5720TIP3   OH238650   0.624   0.312  12.171  0.2058 -0.3905  0.4004
 5720TIP3    H138651   0.603   0.297  12.078 -1.0864 -1.4245  0.8266
 5720TIP3    H238652   0.580   0.394  12.193 -1.3513 -1.2369  0.6162
 5721TIP3   OH238653   2.678   0.856   3.772 -0.2525  0.0105 -0.4332
 5721TIP3    H138654   2.663   0.763   3.791  1.6960 -0.2788 -0.0626
 5721TIP3    H238655   2.744   0.855   3.702  0.0762  1.1248 -0.1546
 5722TIP3   OH238656   5.908   3.340  16.550 -0.4525  0.6001 -0.4312
 5722TIP3    H138657   5.823   3.307  16.578  0.0066 -0.4655 -0.2614
 5722TIP3    H238658   5.888   3.423  16.507 -1.4676  0.8371  0.4593
 5723TIP3   OH238659   5.520   4.029   5.350  0.1919  0.1264 -0.6040
 5723TIP3    H138660   5.498   4.060   5.438  1.0399  0.6469 -0.5672
 5723TIP3    H238661   5.436   4.031   5.303  0.1283  2.1143 -0.4807
 5724TIP3   OH238662   3.681   0.178   2.584 -0.0111 -0.9792  0.7310
 5724TIP3    H138663   3.615   0.242   2.557  2.1090  1.9966  2.0340
 5724TIP3    H238664   3.741   0.173   2.510  1.0236  0.3525  1.4380
 5725TIP3   OH238665   4.717   5.302   2.454 -0.0051 -0.1982 -0.7687
 5725TIP3    H138666   4.734   5.396   2.444  0.6290 -0.1738  0.3740
 5725TIP3    H238667   4.728   5.286   2.548 -0.7753 -1.2897 -0.8555
 5726TIP3   OH238668   0.962   4.352  15.951 -0.1722  0.8665  0.1486
 5726TIP3    H138669   0.868   4.370  15.952 -1.0041 -2.6215  1.4399
 5726TIP3    H238670   0.970   4.267  15.995  3.6580  1.2009  0.4328
 5727TIP3   OH238671   1.728   0.620   4.068 -0.4488 -0.5867 -0.3631
 5727TIP3    H138672   1.699   0.581   4.151 -0.6810 -2.3942 -1.2540
 5727TIP3    H238673   1.815   0.583   4.053 -0.4339 -0.3164 -0.9680
 5728TIP3   OH238674   5.222   2.772   0.688  0.5183 -0.1354 -0.1181
 5728TIP3    H138675   5.151   2.765   0.624  0.4072  1.0166 -0.1350
 5728TIP3    H238676   5.199   2.708   0.756 -1.0046  0.7946  0.3080
 5729TIP3   OH238677   0.922   1.507  16.027  0.0885  0.6056 -0.3790
 5729TIP3    H138678   0.935   1.558  15.948 -0.2582 -1.8275 -2.1344
 5729TIP3    H238679   0.830   1.481  16.024  0.4071 -0.6397  0.0732
 5730TIP3   OH238680   0.818   2.275  16.449 -0.0496 -0.0046  0.4799
 5730TIP3    H138681   0.816   2.353  16.394  1.1789  0.6440  1.3178
 5730TIP3    H238682   0.899   2.230  16.423  0.4180  0.1847  1.5657
 5731TIP3   OH238683   0.781   2.906   4.440 -0.3628 -0.2226 -0.0766
 5731TIP3    H138684   0.874   2.919   4.458 -0.4806  0.9406 -0.2001
 5731TIP3    H238685   0.768   2.812   4.448  0.2496 -0.1709  2.7959
 5732TIP3   OH238686   4.293   4.031   1.485  0.6945 -0.4820  0.1535
 5732TIP3    H138687   4.238   4.046   1.408 -3.9227 -1.1330  2.9745
 5732TIP3    H238688   4.318   4.119   1.514  1.7121 -0.2001 -1.4321
 5733TIP3   OH238689   5.043   0.851  10.807 -0.2482 -0.0490  0.3398
 5733TIP3    H138690   4.973   0.845  10.742 -0.1133  0.2557  0.1652
 5733TIP3    H238691   5.049   0.763  10.844 -0.9533  0.0061  0.5988
 5734TIP3   OH238692   1.906   2.861   0.821  0.1589  0.5410  0.3624
 5734TIP3    H138693   1.947   2.911   0.751 -3.2568  1.8323 -0.9467
 5734TIP3    H238694   1.895   2.923   0.892 -1.1908  0.8353 -0.0616
 5735TIP3   OH238695   2.758   1.778   5.104 -0.2025 -0.6222 -0.3452
 5735TIP3    H138696   2.784   1.869   5.091 -0.5580 -0.8292 -3.0569
 5735TIP3    H238697   2.830   1.727   5.068 -1.3174 -1.3114 -1.7139
 5736TIP3   OH238698   3.789   2.728   5.351 -0.9109  0.7170 -0.0376
 5736TIP3    H138699   3.699   2.749   5.374 -0.9742  0.7668 -0.3229
 5736TIP3    H238700   3.803   2.641   5.388 -1.3102  0.4083 -0.5985
 5737TIP3   OH238701   6.698   6.186   6.411  0.2343 -0.4724 -0.4242
 5737TIP3    H138702   6.771   6.182   6.349  0.7763  0.8570  0.0995
 5737TIP3    H238703   6.620   6.191   6.356  0.6155 -0.6267 -0.9877
 5738TIP3   OH238704   3.982   3.489  12.494  0.2255  0.4135 -0.2501
 5738TIP3    H138705   3.998   3.475  12.587  2.8879 -1.7116 -0.9047
 5738TIP3    H238706   4.027   3.571  12.474 -0.3439  0.8673  0.2887
 5739TIP3   OH238707   5.276   4.238   4.495  0.2684 -0.2410  0.2426
 5739TIP3    H138708   5.270   4.255   4.589  0.3492 -0.5884  0.3112
 5739TIP3    H238709   5.277   4.325   4.455  2.1005 -0.0298  0.6797
 5740TIP3   OH238710   6.420   1.199  11.226 -0.0008  0.4151 -0.5848
 5740TIP3    H138711   6.346   1.138  11.230 -0.5690  1.1361  0.5381
 5740TIP3    H238712   6.453   1.202  11.316  0.8661  0.7425 -0.9089
 5741TIP3   OH238713   2.208   0.005  12.611 -0.0426 -0.1288 -0.1081
 5741TIP3    H138714   2.191   0.061  12.535  0.7276  0.4649  0.1481
 5741TIP3    H238715   2.292  -0.036  12.592  0.1569  0.0309  0.4309
 5742TIP3   OH238716   6.652   0.640   3.365  0.5692 -0.3677  0.0517
 5742TIP3    H138717   6.624   0.728   3.389 -0.6118 -0.4960 -0.7482
 5742TIP3    H238718   6.747   0.641   3.378  0.2042 -0.2285  3.8767
 5743TIP3   OH238719   0.116   1.778  14.942  0.0860 -0.2003 -0.5389
 5743TIP3    H138720   0.207   1.799  14.924  0.9938 -2.8823  0.4619
 5743TIP3    H238721   0.098   1.699  14.891 -1.8035  0.4383 -0.9539
 5744TIP3   OH238722   0.262   0.620  15.348 -0.2662  0.2646 -0.0823
 5744TIP3    H138723   0.212   0.670  15.284 -1.8409 -2.6449 -1.3244
 5744TIP3    H238724   0.350   0.612  15.310 -0.2224  1.3669 -0.2282
 5745TIP3   OH238725   6.351   2.689   3.873 -0.0948 -0.6853  0.2844
 5745TIP3    H138726   6.311   2.776   3.865  0.9783  0.0991  2.4404
 5745TIP3    H238727   6.373   2.682   3.966  0.8196 -2.8488 -0.0437
 5746TIP3   OH238728   2.677   6.686   5.084  0.4486 -0.1549 -0.0950
 5746TIP3    H138729   2.731   6.725   5.152  0.8832 -0.1106 -0.4632
 5746TIP3    H238730   2.733   6.620   5.043  0.2808 -0.0047 -0.5769
 5747TIP3   OH238731   5.375   1.562  17.041 -0.6370  0.6823  0.4614
 5747TIP3    H138732   5.413   1.474  17.039 -0.3540  0.7263  2.2523
 5747TIP3    H238733   5.308   1.560  16.973 -0.4866 -0.8516  0.3167
 5748TIP3   OH238734   2.204   4.990   1.352  0.0533 -0.0105 -0.0757
 5748TIP3    H138735   2.249   4.906   1.364  0.0508 -0.0965 -0.6442
 5748TIP3    H238736   2.211   5.033   1.438 -2.5952 -1.8528  1.1765
 5749TIP3   OH238737   4.151   3.351   0.174 -0.1249  0.5171  0.6215
 5749TIP3    H138738   4.237   3.323   0.140 -0.2623  0.9657 -0.1191
 5749TIP3    H238739   4.113   3.271   0.210  0.3843  0.2001  0.4773
 5750TIP3   OH238740   5.584   2.524   7.019 -0.2195  0.6289  0.7721
 5750TIP3    H138741   5.603   2.578   6.942 -1.9248  0.9152  0.5126
 5750TIP3    H238742   5.488   2.521   7.023 -0.1605 -0.9015  1.8317
 5751TIP3   OH238743   5.804   6.598  15.655  0.1191  0.1914 -0.1786
 5751TIP3    H138744   5.767   6.669  15.603 -0.9680  0.9834  1.5646
 5751TIP3    H238745   5.780   6.518  15.608 -1.3235  0.8395 -0.6082
 5752TIP3   OH238746   4.074   0.237   1.339  0.2211  0.1767  0.4312
 5752TIP3    H138747   4.153   0.224   1.288  0.8715  1.4551  1.0625
 5752TIP3    H238748   4.016   0.287   1.282  0.4895  0.5950  0.5220
 5753TIP3   OH238749   5.576   2.941   1.525 -0.0328  0.1407 -0.4315
 5753TIP3    H138750   5.504   2.897   1.572  0.7731 -0.4452  0.2944
 5753TIP3    H238751   5.532   3.001   1.465 -1.1461 -0.5652 -0.3629
 5754TIP3   OH238752   5.606   6.184   3.841  0.0262 -0.2607  0.1288
 5754TIP3    H138753   5.653   6.256   3.800  0.3344  2.1381  4.1665
 5754TIP3    H238754   5.674   6.122   3.868  0.2683  0.2800  0.7703
 5755TIP3   OH238755   1.112   6.486  11.543  0.4338 -0.2135 -0.2877
 5755TIP3    H138756   1.087   6.550  11.609 -0.1027 -1.0681  0.3614
 5755TIP3    H238757   1.036   6.478  11.486 -0.0891 -1.3847  0.5405
 5756TIP3   OH238758   1.868   1.820  11.770  0.0390  0.0524 -0.0545
 5756TIP3    H138759   1.855   1.833  11.676 -2.3452 -0.3150  0.1571
 5756TIP3    H238760   1.901   1.904  11.801  1.2286  0.0551 -1.2582
 5757TIP3   OH238761   0.393   4.360  16.975  0.1351 -0.1057  0.1869
 5757TIP3    H138762   0.442   4.334  17.053  0.2385 -0.8018 -0.1018
 5757TIP3    H238763   0.317   4.408  17.009  0.6345  0.3573  0.6687
 5758TIP3   OH238764   6.297   0.089  11.289 -0.0535 -0.2674  0.8918
 5758TIP3    H138765   6.240   0.131  11.224  1.3698 -2.8217 -2.2883
 5758TIP3    H238766   6.379   0.137  11.283 -0.1625 -0.0099  1.4276
 5759TIP3   OH238767   6.445   1.494   1.025  0.1075 -0.2792 -0.0673
 5759TIP3    H138768   6.511   1.550   0.983 -1.3795  2.0463  0.4827
 5759TIP3    H238769   6.417   1.434   0.955  0.0844  1.2617 -1.4494
 5760TIP3   OH238770   4.895   5.172   3.079 -0.5172 -0.1932 -0.5866
 5760TIP3    H138771   4.973   5.130   3.043  1.0830  1.1303  1.1479
 5760TIP3    H238772   4.847   5.202   3.002  2.3317  1.7769 -1.7868
 5761TIP3   OH238773   3.778   3.991   4.061 -0.3266  0.6911  0.0751
 5761TIP3    H138774   3.838   3.944   4.118 -0.9051 -0.4481 -0.2241
 5761TIP3    H238775   3.808   4.082   4.064 -1.1201  0.9528  3.1985
 5762TIP3   OH238776   3.956   6.612   3.232  0.3444 -0.4063 -0.1599
 5762TIP3    H138777   3.999   6.654   3.158 -0.0603 -0.8507 -0.6509
 5762TIP3    H238778   3.981   6.666   3.307  1.0266 -0.1445 -0.5635
 5763TIP3   OH238779   5.462   5.101   4.413  0.2820 -0.3603 -0.0079
 5763TIP3    H138780   5.424   5.013   4.412 -0.3376 -0.1451  1.4372
 5763TIP3    H238781   5.502   5.109   4.500 -1.4425  1.4831  0.6944
 5764TIP3   OH238782   2.010   1.684  15.281 -0.7461  0.8341  0.3809
 5764TIP3    H138783   1.925   1.650  15.310 -0.4864 -0.5579 -0.3921
 5764TIP3    H238784   2.041   1.620  15.218  1.6426  0.4169  1.8410
 5765TIP3   OH238785   2.093   4.567  16.077 -0.3303  0.0634 -0.1600
 5765TIP3    H138786   2.017   4.568  16.135 -1.6683  1.7718 -1.8091
 5765TIP3    H238787   2.087   4.484  16.030 -0.3869 -0.4123  0.6774
 5766TIP3   OH238788   1.171   3.428  13.381  0.2597 -0.2617 -0.5853
 5766TIP3    H138789   1.234   3.489  13.419 -0.7787 -0.1159  1.0195
 5766TIP3    H238790   1.151   3.367  13.452 -1.1205 -0.5016 -1.1547
 5767TIP3   OH238791   4.166   4.072   3.798 -0.1979 -0.9123  0.0557
 5767TIP3    H138792   4.085   4.055   3.750  0.1928 -1.2670 -0.4809
 5767TIP3    H238793   4.232   4.019   3.754  0.2917 -0.7710  0.6081
 5768TIP3   OH238794   6.042   5.110  16.240 -0.6285  0.1122  0.3238
 5768TIP3    H138795   5.949   5.102  16.262 -0.6319  0.2622  0.3616
 5768TIP3    H238796   6.043   5.132  16.147 -0.6784  1.6253  0.6582
 5769TIP3   OH238797   6.154   2.698  15.799  0.3812 -0.4822 -0.3146
 5769TIP3    H138798   6.076   2.651  15.772  0.0023  1.2222 -2.5269
 5769TIP3    H238799   6.168   2.672  15.890 -2.8017 -0.7843  0.1955
 5770TIP3   OH238800   6.106   3.891   6.057  0.0927 -0.0794  0.4365
 5770TIP3    H138801   6.037   3.827   6.072  0.0555  0.0569  0.8839
 5770TIP3    H238802   6.144   3.868   5.972  1.7676 -2.2411  1.6589
 5771TIP3   OH238803   6.780   1.681  16.541 -0.3937 -0.3009  0.5251
 5771TIP3    H138804   6.821   1.595  16.544  1.7541  0.6473  0.2571
 5771TIP3    H238805   6.821   1.730  16.613 -0.6320  0.8737 -0.1015
 5772TIP3   OH238806   3.597   2.824   4.592  0.0288  0.3393  0.0132
 5772TIP3    H138807   3.638   2.858   4.671  0.4788  3.3020 -1.3804
 5772TIP3    H238808   3.666   2.776   4.548  0.2690  0.1942  0.5370
 5773TIP3   OH238809   3.267   3.464   3.618  0.0252 -0.6447  0.0973
 5773TIP3    H138810   3.280   3.532   3.552 -0.2801 -0.7372 -0.0598
 5773TIP3    H238811   3.348   3.465   3.670  0.3867 -0.7713 -0.4554
 5774TIP3   OH238812   2.400   0.836   0.241 -0.3421  0.1392  0.0685
 5774TIP3    H138813   2.418   0.808   0.152  0.1316  0.8407 -0.0723
 5774TIP3    H238814   2.485   0.868   0.274 -0.3032 -0.9575  1.0906
 5775TIP3   OH238815   2.992   5.236   1.145 -0.0546  0.6240 -0.2743
 5775TIP3    H138816   2.911   5.244   1.195  0.1448  2.6723 -0.2158
 5775TIP3    H238817   3.060   5.222   1.212  0.0229  1.9704 -0.0425
 5776TIP3   OH238818   4.109   5.159  12.847  0.0788  0.4529 -0.1511
 5776TIP3    H138819   4.085   5.216  12.920 -0.0230 -1.0709  1.0762
 5776TIP3    H238820   4.026   5.142  12.801  0.1999  1.7011 -0.8721
 5777TIP3   OH238821   0.982   1.948   0.521  0.1866 -0.1989  0.1584
 5777TIP3    H138822   0.976   1.923   0.613 -2.1403 -1.4542 -0.2427
 5777TIP3    H238823   0.943   1.874   0.474  0.6355  0.7441 -1.7751
 5778TIP3   OH238824   0.871   3.196  16.159 -0.1344  0.2127  0.2111
 5778TIP3    H138825   0.791   3.196  16.107  0.0030  0.2876 -0.0003
 5778TIP3    H238826   0.858   3.126  16.224 -1.0023  1.1983  1.1467
 5779TIP3   OH238827   5.582   1.828   1.458 -0.3175 -0.5774  0.3990
 5779TIP3    H138828   5.613   1.917   1.443 -2.8773  0.3888  0.2027
 5779TIP3    H238829   5.650   1.786   1.510  0.2965  1.9828  1.8153
 5780TIP3   OH238830   6.826   4.607   3.209  0.2328  0.3266 -0.4664
 5780TIP3    H138831   6.832   4.634   3.301 -0.2429 -1.1021  0.0211
 5780TIP3    H238832   6.892   4.538   3.200 -1.5901 -1.5240 -0.3919
 5781TIP3   OH238833   6.170   1.734  11.186  0.2425  0.2208 -0.5212
 5781TIP3    H138834   6.138   1.818  11.216  0.6841  0.5877 -1.0618
 5781TIP3    H238835   6.193   1.747  11.094  0.0382 -0.5655 -0.6967
 5782TIP3   OH238836   3.740   0.648  15.014 -0.5064 -0.1707  0.0680
 5782TIP3    H138837   3.649   0.641  15.043 -0.6046 -1.0720 -0.4004
 5782TIP3    H238838   3.777   0.720  15.065 -1.5745  0.4271  0.0157
 5783TIP3   OH238839   1.889   3.905  12.686  0.1280 -0.6913 -0.1652
 5783TIP3    H138840   1.809   3.891  12.737 -0.7457 -1.6991 -1.7115
 5783TIP3    H238841   1.947   3.834  12.713  0.2312 -0.3619  0.4739
 5784TIP3   OH238842   0.385   4.325  12.102  0.0651 -0.8610 -0.3420
 5784TIP3    H138843   0.395   4.329  12.197 -1.9985 -1.2546 -0.0729
 5784TIP3    H238844   0.475   4.317  12.069  0.7612 -1.6027  1.6088
 5785TIP3   OH238845   4.806   2.120  15.181 -0.3345  0.0101 -0.2713
 5785TIP3    H138846   4.854   2.099  15.261 -0.7592 -3.4016 -0.7557
 5785TIP3    H238847   4.863   2.089  15.110 -1.1809  0.3144 -1.1035
 5786TIP3   OH238848   5.809   5.540  15.010 -0.4109  0.7903 -0.2070
 5786TIP3    H138849   5.743   5.564  15.075 -1.1723  0.5918 -0.8861
 5786TIP3    H238850   5.781   5.585  14.930  0.9045  1.6145 -0.2323
 5787TIP3   OH238851   0.675   4.495  13.967  0.4966 -0.1093  0.2864
 5787TIP3    H138852   0.589   4.458  13.949  0.1962  0.5738  0.2948
 5787TIP3    H238853   0.672   4.517  14.060  1.4005 -1.9463  0.7908
 5788TIP3   OH238854   0.806   2.242   3.297 -0.6754 -0.4944 -0.0455
 5788TIP3    H138855   0.848   2.323   3.325 -1.4487 -1.1627  3.6571
 5788TIP3    H238856   0.877   2.179   3.289 -0.0844  0.3824 -2.8420
 5789TIP3   OH238857   4.942   1.061   6.241  0.1989 -0.0556 -0.7581
 5789TIP3    H138858   4.979   0.974   6.229  1.8047  0.5980 -0.7400
 5789TIP3    H238859   4.896   1.079   6.159 -0.0926 -0.8911 -0.7855
 5790TIP3   OH238860   4.643   2.372  14.502  0.5863  0.1832  0.2848
 5790TIP3    H138861   4.555   2.401  14.526  0.8311  1.0278  0.1796
 5790TIP3    H238862   4.689   2.364  14.585  0.6461  0.5268  0.2867
 5791TIP3   OH238863   5.062   1.107  12.256  0.1741  0.2155  0.0729
 5791TIP3    H138864   5.129   1.153  12.206 -1.7128  0.5035 -2.3495
 5791TIP3    H238865   4.983   1.113  12.203 -0.8593 -3.5462  0.8941
 5792TIP3   OH238866   0.891   3.887   2.382 -0.3907  0.3888  0.4163
 5792TIP3    H138867   0.921   3.928   2.463  3.6532  0.1920 -0.7573
 5792TIP3    H238868   0.871   3.797   2.407  0.3150  0.4686  1.3143
 5793TIP3   OH238869   6.735   0.947   4.050  0.1071 -0.2922  0.6171
 5793TIP3    H138870   6.725   0.936   4.145  0.4652  1.5891  0.9123
 5793TIP3    H238871   6.676   1.019   4.028  1.8486  0.9651 -0.1420
 5794TIP3   OH238872   3.355   4.915   1.370 -0.0384  0.4345 -0.2973
 5794TIP3    H138873   3.337   4.910   1.464  0.0022  0.9130 -0.2593
 5794TIP3    H238874   3.450   4.910   1.363 -0.1303 -2.1531 -0.5029
 5795TIP3   OH238875   5.730   1.004  13.317 -0.3700 -0.0280 -0.0341
 5795TIP3    H138876   5.694   0.999  13.405 -2.5338  0.0230 -0.8474
 5795TIP3    H238877   5.804   1.064  13.324  0.5641 -1.3224  2.0334
 5796TIP3   OH238878   1.161   2.635   4.609  0.8624 -0.4816 -0.2292
 5796TIP3    H138879   1.174   2.729   4.622 -0.2828 -0.4958  1.3065
 5796TIP3    H238880   1.191   2.619   4.520  1.4410  1.2628 -0.3899
 5797TIP3   OH238881   2.682   6.537  16.261  0.3163  0.1986 -0.0375
 5797TIP3    H138882   2.667   6.632  16.255 -3.1167 -0.1676  0.7003
 5797TIP3    H238883   2.657   6.514  16.350 -1.0133 -1.6529 -0.8212
 5798TIP3   OH238884   5.192   6.258   4.541  0.1084 -0.5340 -0.2522
 5798TIP3    H138885   5.268   6.236   4.594 -0.1505 -2.1122 -0.4709
 5798TIP3    H238886   5.197   6.199   4.466 -1.3094 -0.6601 -0.2795
 5799TIP3   OH238887   6.108   3.573  13.466  0.3628  0.0932  0.5032
 5799TIP3    H138888   6.200   3.567  13.440  0.4332 -0.7382  0.9156
 5799TIP3    H238889   6.064   3.611  13.390  0.5722 -2.2735 -0.9116
 5800TIP3   OH238890   4.866   5.762   5.995  0.0156  0.1004  0.4264
 5800TIP3    H138891   4.806   5.797   6.061 -2.3852 -0.0293 -1.5601
 5800TIP3    H238892   4.920   5.699   6.043 -1.2563  0.4085  2.3820
 5801TIP3   OH238893   0.987   1.924  16.734  0.2853 -0.1716 -0.4308
 5801TIP3    H138894   0.990   1.935  16.639  2.0637 -1.7742 -0.6152
 5801TIP3    H238895   1.037   1.998  16.768  0.6950 -0.2682 -0.8197
 5802TIP3   OH238896   1.635   3.111   4.382 -0.0107 -1.2034 -0.0749
 5802TIP3    H138897   1.612   3.170   4.454 -1.3910  0.2183 -1.5838
 5802TIP3    H238898   1.714   3.151   4.344  0.2464 -1.4988  0.1446
 5803TIP3   OH238899   4.418   5.294  11.589 -0.1495  0.2508  0.2491
 5803TIP3    H138900   4.363   5.270  11.514  0.5832  3.2149 -1.3641
 5803TIP3    H238901   4.455   5.210  11.619 -1.5656 -1.1990 -1.7958
 5804TIP3   OH238902   6.181   4.970  14.213  0.0180  0.1637 -0.0901
 5804TIP3    H138903   6.212   4.904  14.274  0.1165 -0.3432 -0.6808
 5804TIP3    H238904   6.125   5.027  14.266 -0.9574 -1.0304  0.2014
 5805TIP3   OH238905   0.697   4.759  14.081  0.4330  0.0053 -0.2857
 5805TIP3    H138906   0.770   4.821  14.082  0.6634 -0.2780  0.4216
 5805TIP3    H238907   0.730   4.685  14.029  1.7412 -1.4046  2.3458
 5806TIP3   OH238908   5.727   2.934   6.505 -0.3142 -0.4968  0.2746
 5806TIP3    H138909   5.810   2.888   6.517  0.3161 -0.5360 -3.2389
 5806TIP3    H238910   5.675   2.876   6.450 -1.8283  0.5123  0.5740
 5807TIP3   OH238911   4.065   6.455  14.479  0.3782 -0.1559  0.0836
 5807TIP3    H138912   4.049   6.447  14.573 -0.2596  0.5886  0.0444
 5807TIP3    H238913   3.991   6.410  14.438 -0.3534  1.1320 -0.0669
 5808TIP3   OH238914   2.930   0.879   2.742 -0.1211 -0.7190 -0.2126
 5808TIP3    H138915   2.988   0.820   2.694  0.4907  1.1389 -1.9232
 5808TIP3    H238916   2.843   0.841   2.732  0.2836 -1.4588 -1.0738
 5809TIP3   OH238917   5.721   2.968  12.236 -0.3017 -0.1449 -0.3003
 5809TIP3    H138918   5.643   2.996  12.188 -0.8156  2.0273  1.5834
 5809TIP3    H238919   5.739   3.041  12.296  3.4800 -0.3114 -0.9665
 5810TIP3   OH238920   1.133   4.065   4.872 -0.4680  0.4155 -0.7333
 5810TIP3    H138921   1.048   4.023   4.868 -0.9701  1.1838  1.1233
 5810TIP3    H238922   1.196   3.994   4.857 -1.3838 -0.3242 -1.1631
 5811TIP3   OH238923   1.815   2.995   0.470 -0.0746 -0.1301  0.1197
 5811TIP3    H138924   1.894   2.946   0.492 -0.0676  0.1226  0.6821
 5811TIP3    H238925   1.814   2.998   0.374  0.8409  0.2567  0.1148
 5812TIP3   OH238926   0.258   5.523  11.021 -0.2159  0.3970 -0.1013
 5812TIP3    H138927   0.187   5.487  10.968 -1.1980  1.5425  0.3748
 5812TIP3    H238928   0.244   5.618  11.018 -0.9377  0.4956  2.9947
 5813TIP3   OH238929   1.806   6.287   1.877  0.1332  0.4031 -0.0324
 5813TIP3    H138930   1.839   6.330   1.956  1.1207  1.6491 -1.0698
 5813TIP3    H238931   1.815   6.193   1.895  2.4730  0.6749  0.4957
 5814TIP3   OH238932   6.580   2.915  12.741 -0.7470 -0.2227 -0.1737
 5814TIP3    H138933   6.515   2.974  12.702  0.0327  0.5529 -0.3203
 5814TIP3    H238934   6.606   2.857  12.669 -1.1688 -0.4505 -0.1480
 5815TIP3   OH238935   4.596   2.485  15.272 -0.5002 -0.1143 -0.1288
 5815TIP3    H138936   4.599   2.579  15.253 -0.3415 -0.1640 -0.3573
 5815TIP3    H238937   4.509   2.457  15.244 -0.7183  0.0569  0.3778
 5816TIP3   OH238938   0.655   3.384  14.341 -0.3603  0.0719 -0.1547
 5816TIP3    H138939   0.668   3.310  14.282  0.7169  1.1543 -1.3391
 5816TIP3    H238940   0.562   3.383  14.361 -0.8468 -0.1091 -2.2329
 5817TIP3   OH238941   4.192   2.835  13.908 -0.0014 -0.2278 -0.0289
 5817TIP3    H138942   4.211   2.890  13.832  1.5803  0.3275  0.6960
 5817TIP3    H238943   4.215   2.891  13.983 -2.2286 -0.4805  0.9163
 5818TIP3   OH238944   1.841   1.158   0.621  0.1282 -0.4126 -0.1003
 5818TIP3    H138945   1.797   1.104   0.687 -0.5678 -0.3356 -0.4926
 5818TIP3    H238946   1.905   1.100   0.580  0.8534 -0.3514  0.9147
 5819TIP3   OH238947   1.261   2.126  16.701  0.1518  0.1643 -0.1371
 5819TIP3    H138948   1.272   2.155  16.791  0.1857  1.7818 -0.6232
 5819TIP3    H238949   1.348   2.095  16.675  0.2343  0.0537  0.2680
 5820TIP3   OH238950   4.419   4.008   5.745 -0.1480 -0.3678 -0.5757
 5820TIP3    H138951   4.427   3.918   5.713 -0.9872 -0.2763 -1.0773
 5820TIP3    H238952   4.326   4.016   5.767 -0.4047  0.8551 -1.9741
 5821TIP3   OH238953   4.182   1.746  13.928  0.1107  0.1200 -0.0325
 5821TIP3    H138954   4.176   1.817  13.993 -0.4332 -1.2105  1.4402
 5821TIP3    H238955   4.273   1.748  13.899  0.0107  1.6609 -0.3347
 5822TIP3   OH238956   1.222   1.041  10.752 -0.2649 -0.5066 -0.1931
 5822TIP3    H138957   1.229   0.948  10.732 -1.7132 -0.6431 -0.1680
 5822TIP3    H238958   1.277   1.084  10.687  0.0282 -1.3469 -0.5068
 5823TIP3   OH238959   4.128   5.166  14.798 -0.0234  0.2259  0.7239
 5823TIP3    H138960   4.124   5.101  14.728 -0.9921  0.2441  0.7567
 5823TIP3    H238961   4.220   5.192  14.801 -0.1216  0.8651 -1.1168
 5824TIP3   OH238962   6.221   5.819   2.533 -0.1794  0.2975  0.0255
 5824TIP3    H138963   6.233   5.896   2.588 -0.3090  0.6051 -0.3688
 5824TIP3    H238964   6.206   5.747   2.594  1.3062  0.3206  0.4453
 5825TIP3   OH238965   0.202   2.212  14.527 -0.9230  0.0400 -0.3156
 5825TIP3    H138966   0.256   2.155  14.582 -0.3591  0.2937 -0.5989
 5825TIP3    H238967   0.117   2.215  14.571 -1.1736 -1.5267 -0.6140
 5826TIP3   OH238968   2.238   1.020  12.403  0.2321 -0.0190  0.6941
 5826TIP3    H138969   2.316   0.999  12.454 -0.3931 -2.1140  0.8995
 5826TIP3    H238970   2.167   0.974  12.448 -0.9651  1.0202 -0.0455
 5827TIP3   OH238971   4.279   5.312  13.565  0.7921 -0.4947 -0.3566
 5827TIP3    H138972   4.300   5.219  13.559  2.1519 -0.3541  1.2955
 5827TIP3    H238973   4.184   5.315  13.574  0.6748 -1.6819 -1.0342
 5828TIP3   OH238974   4.325   4.166   0.309  0.2346 -0.1367 -0.3824
 5828TIP3    H138975   4.367   4.088   0.343 -2.6331 -0.6089  2.4808
 5828TIP3    H238976   4.321   4.226   0.383  0.2671  1.8412 -1.8896
 5829TIP3   OH238977   1.751   5.908  15.729  0.0582  0.2623  0.2146
 5829TIP3    H138978   1.783   5.818  15.722 -0.8388  0.0890 -2.8059
 5829TIP3    H238979   1.761   5.929  15.822  1.9652 -2.2981  0.7106
 5830TIP3   OH238980   5.385   1.083  16.344 -0.1937 -0.9068  0.2298
 5830TIP3    H138981   5.400   1.081  16.250 -1.5346 -0.4659 -0.0108
 5830TIP3    H238982   5.399   1.174  16.368 -2.4757 -0.4304 -0.0384
 5831TIP3   OH238983   5.351   1.103   3.718 -0.3119 -0.3730  0.7116
 5831TIP3    H138984   5.431   1.053   3.700 -0.2092 -0.0575  0.2605
 5831TIP3    H238985   5.382   1.189   3.747 -0.4870 -0.5569  1.4576
 5832TIP3   OH238986   3.167   3.061   4.783  0.2802  0.3463  0.2822
 5832TIP3    H138987   3.255   3.070   4.819 -0.0323  0.1632  1.1229
 5832TIP3    H238988   3.181   3.023   4.696  0.9798 -0.7641  0.8528
 5833TIP3   OH238989   4.141   6.736  11.091  0.3717 -0.0123 -0.5352
 5833TIP3    H138990   4.091   6.777  11.020 -0.7025 -1.2101 -0.5003
 5833TIP3    H238991   4.220   6.790  11.099 -0.4037  1.2998 -1.3195
 5834TIP3   OH238992   2.173   3.482   5.618  0.3576 -0.2909 -0.2467
 5834TIP3    H138993   2.214   3.424   5.683  2.8357  1.2212 -0.3357
 5834TIP3    H238994   2.081   3.486   5.646  0.8785 -1.3465  1.9179
 5835TIP3   OH238995   3.467   2.695   1.872 -0.8804 -0.3054 -0.5127
 5835TIP3    H138996   3.547   2.732   1.835  0.8754 -1.4504  1.7999
 5835TIP3    H238997   3.416   2.771   1.900 -0.0361  0.4393 -0.9490
 5836TIP3   OH238998   3.294   2.736  14.551 -0.5821 -0.3232 -0.0617
 5836TIP3    H138999   3.269   2.646  14.574 -3.8970  0.8801  1.6025
 5836TIP3    H239000   3.249   2.753  14.468 -1.0037  0.1740  0.2636
 5837TIP3   OH239001   0.861   5.217  14.443  0.2865  0.5045 -0.0758
 5837TIP3    H139002   0.804   5.160  14.391 -1.0324  1.3389  0.4058
 5837TIP3    H239003   0.874   5.169  14.525  1.9164 -0.5600 -0.8906
 5838TIP3   OH239004   4.098   3.784   2.067  0.3618  0.2115  0.9230
 5838TIP3    H139005   4.069   3.761   2.156 -0.9680  1.4834  0.8376
 5838TIP3    H239006   4.096   3.879   2.065 -2.9468  0.2579 -1.4880
 5839TIP3   OH239007   5.684   1.671  11.569 -0.3623 -0.1801  0.2485
 5839TIP3    H139008   5.658   1.751  11.522 -0.6956 -0.1807  0.4275
 5839TIP3    H239009   5.743   1.626  11.509 -0.3174  0.1103  0.0707
 5840TIP3   OH239010   0.917   0.188   4.099  0.3385 -0.6086  0.4661
 5840TIP3    H139011   0.902   0.262   4.159  0.0103  0.9765 -1.4537
 5840TIP3    H239012   0.903   0.110   4.153 -0.6930  0.7360  2.2578
 5841TIP3   OH239013   5.743   3.530   4.389  0.6686 -0.9534 -0.9531
 5841TIP3    H139014   5.652   3.537   4.420  0.5199 -1.8632 -1.1619
 5841TIP3    H239015   5.791   3.593   4.442 -0.0186 -0.7390 -0.5723
 5842TIP3   OH239016   1.010   5.667  11.408  0.2228 -0.7571  0.2576
 5842TIP3    H139017   1.100   5.661  11.441  1.0562  1.4298 -1.4229
 5842TIP3    H239018   0.965   5.720  11.473  1.0498  0.9128 -0.4750
 5843TIP3   OH239019   5.193   1.943   0.108 -0.0705 -0.5264 -0.1276
 5843TIP3    H139020   5.273   1.908   0.147 -0.4877 -1.2766  0.0762
 5843TIP3    H239021   5.202   2.038   0.116  0.0272 -0.6497  1.4408
 5844TIP3   OH239022   0.606   0.533  16.910 -0.2812  0.3971 -0.4045
 5844TIP3    H139023   0.556   0.595  16.962  0.3413  0.2340  0.3996
 5844TIP3    H239024   0.561   0.449  16.924 -0.6851  0.5237 -0.9078
 5845TIP3   OH239025   5.640   3.244  14.171 -0.7053 -0.3187 -0.0450
 5845TIP3    H139026   5.577   3.176  14.150 -1.9901 -0.2029  2.8710
 5845TIP3    H239027   5.592   3.304  14.229  1.0349  1.8375 -0.7082
 5846TIP3   OH239028   2.538   2.808   2.274 -0.0821  0.0257  0.6971
 5846TIP3    H139029   2.473   2.870   2.240  1.5751  0.3131 -2.3180
 5846TIP3    H239030   2.490   2.726   2.284 -1.5288  0.9194  1.4122
 5847TIP3   OH239031   2.965   3.944  11.793  0.5778  0.1691 -0.6228
 5847TIP3    H139032   2.894   3.972  11.735  1.1565  0.4446 -1.2115
 5847TIP3    H239033   3.042   3.938  11.736  1.0640  0.0355  0.0340
 5848TIP3   OH239034   6.619   1.955  11.608  0.2882  0.8805 -0.0716
 5848TIP3    H139035   6.701   1.908  11.620  0.4814  0.7855 -1.5679
 5848TIP3    H239036   6.551   1.889  11.621  0.5137  0.5125 -0.7153
 5849TIP3   OH239037   6.394   2.007   1.729  0.4777  0.0215 -0.4331
 5849TIP3    H139038   6.424   2.077   1.671  2.8613 -0.9565 -0.5081
 5849TIP3    H239039   6.425   1.927   1.688  0.8311 -0.8183  1.3839
 5850TIP3   OH239040   2.354   4.993  13.452  0.0330 -0.1289 -0.0926
 5850TIP3    H139041   2.359   5.082  13.485 -1.6264 -0.4337  1.0648
 5850TIP3    H239042   2.312   5.001  13.366 -1.1801  0.1104  0.5105
 5851TIP3   OH239043   2.585   5.321  13.986 -0.3160 -0.1997  0.2935
 5851TIP3    H139044   2.641   5.281  14.052  1.0386 -0.2118 -0.8034
 5851TIP3    H239045   2.547   5.398  14.029  0.1164 -0.5020  1.2395
 5852TIP3   OH239046   3.508   6.755   2.298  0.1455  0.1787  0.1018
 5852TIP3    H139047   3.528   6.663   2.278 -0.3029 -0.1669  1.1388
 5852TIP3    H239048   3.447   6.782   2.230  1.7208  0.3058 -1.3101
 5853TIP3   OH239049   5.808   1.765   2.710 -0.0723 -0.0054 -0.2480
 5853TIP3    H139050   5.823   1.749   2.616 -0.2819  1.2899 -0.5173
 5853TIP3    H239051   5.890   1.803   2.741 -0.8908  2.1103 -0.5343
 5854TIP3   OH239052   3.536   3.276   4.440 -0.9503 -0.3517  0.5609
 5854TIP3    H139053   3.492   3.359   4.426 -0.0438  0.8135  3.6774
 5854TIP3    H239054   3.616   3.282   4.387 -2.0312 -0.3198 -1.1191
 5855TIP3   OH239055   1.151   5.711  14.010 -0.1586 -0.3175 -0.0784
 5855TIP3    H139056   1.066   5.741  14.041  0.2723 -1.5170  2.5420
 5855TIP3    H239057   1.214   5.771  14.050  0.4208 -1.9482  1.6357
 5856TIP3   OH239058   4.382   4.032  12.999 -0.7244 -0.0128  0.1933
 5856TIP3    H139059   4.394   3.939  12.984 -4.2741 -0.8005  1.2114
 5856TIP3    H239060   4.442   4.075  12.938  1.9536 -2.8900  0.5915
 5857TIP3   OH239061   1.399   3.865   2.820  0.9486  0.2223  0.1351
 5857TIP3    H139062   1.472   3.915   2.783  1.0697  0.3326  0.5225
 5857TIP3    H239063   1.340   3.849   2.745  0.7113  1.2886  0.0843
 5858TIP3   OH239064   3.720   0.794   0.129 -0.2028  0.2008  0.3246
 5858TIP3    H139065   3.648   0.821   0.186  0.6698  1.1546  1.0102
 5858TIP3    H239066   3.745   0.708   0.162 -0.8705 -0.0433  0.2173
 5859TIP3   OH239067   3.902   1.793   3.181  0.3087 -0.0351  0.4856
 5859TIP3    H139068   3.970   1.729   3.158 -0.9755 -0.6760 -1.8532
 5859TIP3    H239069   3.832   1.740   3.220  0.9546  0.5740  2.5508
 5860TIP3   OH239070   4.618   2.306   3.215  0.4828 -0.1584  0.1275
 5860TIP3    H139071   4.528   2.290   3.241  0.5389  0.6889  0.9289
 5860TIP3    H239072   4.614   2.326   3.122  0.0791 -1.8397 -0.2439
 5861TIP3   OH239073   4.125   2.371  11.791  0.5153 -0.2034 -0.0060
 5861TIP3    H139074   4.126   2.466  11.783  1.2874 -0.2543 -0.5289
 5861TIP3    H239075   4.083   2.355  11.876  0.0732  0.5831 -0.0664
 5862TIP3   OH239076   3.207   3.875  16.229  0.4002  0.2288  0.2329
 5862TIP3    H139077   3.183   3.907  16.316 -1.8638  1.0792 -0.6390
 5862TIP3    H239078   3.272   3.938  16.198 -2.6300  3.1257 -0.7126
 5863TIP3   OH239079   1.988   1.819   5.627  0.4399  0.3804  0.6239
 5863TIP3    H139080   1.970   1.726   5.611  0.2048  0.3936  0.7997
 5863TIP3    H239081   1.990   1.858   5.539  2.7957 -0.1676  0.3615
 5864TIP3   OH239082   5.208   0.534   1.337 -0.1810 -0.0220  0.2799
 5864TIP3    H139083   5.229   0.617   1.295  0.0214 -0.5052 -0.5984
 5864TIP3    H239084   5.155   0.487   1.273 -0.8876 -0.2978  1.0413
 5865TIP3   OH239085   1.929   0.641  11.826 -1.2276 -0.0414  0.2615
 5865TIP3    H139086   1.987   0.574  11.792 -3.9589 -2.3192 -0.2435
 5865TIP3    H239087   1.916   0.618  11.918 -1.9117 -0.0392  0.1759
 5866TIP3   OH239088   5.500   2.278   1.616  0.4146 -0.3006  0.0100
 5866TIP3    H139089   5.551   2.356   1.637  0.4578 -0.3119 -0.0553
 5866TIP3    H239090   5.521   2.216   1.686 -0.2691  0.0499  0.5360
 5867TIP3   OH239091   2.453   0.156   3.936  0.1212  0.2147  0.0940
 5867TIP3    H139092   2.505   0.171   3.857  0.8149 -2.8912 -0.1487
 5867TIP3    H239093   2.515   0.120   4.000 -0.8313  0.8471  1.4352
 5868TIP3   OH239094   0.831   2.118  14.187 -0.2302  0.0022 -0.9095
 5868TIP3    H139095   0.752   2.075  14.219  0.5805  0.9052  2.7600
 5868TIP3    H239096   0.901   2.053  14.197  0.0212  0.2366 -1.1000
 5869TIP3   OH239097   2.791   2.126  15.325  0.4825  0.0513 -0.6135
 5869TIP3    H139098   2.737   2.052  15.353 -2.3695  1.1345 -2.8207
 5869TIP3    H239099   2.770   2.195  15.388  0.6898 -0.0508 -0.4299
 5870TIP3   OH239100   0.464   6.036   1.350 -0.3874  0.1642  0.2162
 5870TIP3    H139101   0.387   6.048   1.406 -0.2460 -2.9669  1.3052
 5870TIP3    H239102   0.442   6.081   1.269 -2.5343  1.0158  1.1939
 5871TIP3   OH239103   4.843   3.414  10.725  0.9833  0.7965  0.5419
 5871TIP3    H139104   4.808   3.346  10.668 -0.3845  2.0700 -0.2072
 5871TIP3    H239105   4.826   3.381  10.814  1.5635 -0.4160  0.2277
 5872TIP3   OH239106   0.541   0.928  14.407 -0.1159  0.0303  0.1599
 5872TIP3    H139107   0.480   0.997  14.433  0.4391  0.2570  0.8649
 5872TIP3    H239108   0.598   0.970  14.341 -0.0458  0.1243  0.2806
 5873TIP3   OH239109   0.529   1.207  16.483 -0.5563 -0.6487  0.6916
 5873TIP3    H139110   0.567   1.121  16.500 -0.6155 -0.3750  2.4472
 5873TIP3    H239111   0.477   1.195  16.404  0.7504 -1.7938 -0.0280
 5874TIP3   OH239112   2.560   2.107   5.349  0.7322  0.3981 -0.1398
 5874TIP3    H139113   2.501   2.047   5.396 -0.3225 -0.2289 -2.1650
 5874TIP3    H239114   2.541   2.193   5.386 -0.9847  0.1044 -0.2530
 5875TIP3   OH239115   2.166   6.078   3.666 -0.4658  0.2165  0.2461
 5875TIP3    H139116   2.212   6.093   3.749  0.8802 -0.1987 -0.3865
 5875TIP3    H239117   2.204   6.143   3.607  0.5021 -1.1557 -0.7106
 5876TIP3   OH239118   3.321   4.398  15.938 -0.0335  0.1213  0.2262
 5876TIP3    H139119   3.254   4.441  15.885 -0.5433 -0.6397  0.2343
 5876TIP3    H239120   3.375   4.470  15.971  0.6567  0.5957 -1.7932
 5877TIP3   OH239121   2.486   5.890   1.162  0.3438 -0.2141 -0.5258
 5877TIP3    H139122   2.408   5.944   1.147 -0.0054 -0.6823 -0.3856
 5877TIP3    H239123   2.510   5.859   1.075 -1.3462 -2.4573 -0.2775
 5878TIP3   OH239124   6.854   0.575   5.858  0.2567 -0.0190 -0.1639
 5878TIP3    H139125   6.780   0.520   5.884 -0.4419  0.7417 -0.5181
 5878TIP3    H239126   6.880   0.620   5.939  0.9789 -0.9978  0.1826
 5879TIP3   OH239127   5.787   5.113   5.264  0.1828  0.1364 -0.2097
 5879TIP3    H139128   5.852   5.150   5.205 -0.7272  2.1265 -0.0244
 5879TIP3    H239129   5.721   5.074   5.207 -0.4184  1.5786 -0.5445
 5880TIP3   OH239130   4.268   0.936  16.101  0.5002 -0.0147 -0.3983
 5880TIP3    H139131   4.356   0.909  16.129  0.4840 -2.1017 -2.1165
 5880TIP3    H239132   4.285   1.001  16.032  0.6243  0.8499  0.4200
 5881TIP3   OH239133   3.195   4.093   3.135 -0.7443  1.2072  0.1271
 5881TIP3    H139134   3.129   4.091   3.204 -1.4306  2.0646 -0.4715
 5881TIP3    H239135   3.161   4.157   3.072 -0.5944 -0.2132 -1.4522
 5882TIP3   OH239136   0.060   4.162   5.541  0.0936 -0.5868 -0.1299
 5882TIP3    H139137   0.069   4.223   5.468 -0.6152 -0.5724 -0.2048
 5882TIP3    H239138  -0.030   4.171   5.571  0.5383 -0.1348  1.1554
 5883TIP3   OH239139   0.335   5.074   4.593  0.1912  0.1698  0.2267
 5883TIP3    H139140   0.249   5.112   4.608 -0.3168  0.8140 -3.4440
 5883TIP3    H239141   0.395   5.149   4.594  0.2152  0.1623 -0.2518
 5884TIP3   OH239142   2.521   3.114  13.556  0.3133 -0.2562 -0.3904
 5884TIP3    H139143   2.615   3.105  13.575 -0.0993  0.8996  2.6755
 5884TIP3    H239144   2.497   3.198  13.593 -2.1288 -0.8660 -0.4434
 5885TIP3   OH239145   4.085   2.056   4.496 -0.0334  0.0544  0.2594
 5885TIP3    H139146   3.993   2.053   4.467 -0.4631 -1.1847  1.6671
 5885TIP3    H239147   4.080   2.059   4.591  1.3905  2.0384  0.3244
 5886TIP3   OH239148   3.681   5.960  10.301  0.0793 -0.8537 -0.1075
 5886TIP3    H139149   3.607   5.944  10.360 -1.4452 -0.1240 -1.7278
 5886TIP3    H239150   3.644   5.950  10.214  0.4789  4.4523 -1.2412
 5887TIP3   OH239151   6.401   2.807   1.456  0.1561  0.8564 -0.2476
 5887TIP3    H139152   6.336   2.877   1.457  0.2056  0.9102 -0.5926
 5887TIP3    H239153   6.364   2.740   1.398 -0.3165  0.1807  0.8126
 5888TIP3   OH239154   0.947   0.659   4.207  0.1424  0.2641  0.0509
 5888TIP3    H139155   0.878   0.705   4.160  0.2069  2.0493  1.6075
 5888TIP3    H239156   1.028   0.689   4.166  0.2960  3.0251  2.1392
 5889TIP3   OH239157   2.198   3.781  15.142 -0.1021 -0.6177  0.1576
 5889TIP3    H139158   2.226   3.824  15.223  1.9788 -1.9434  0.2136
 5889TIP3    H239159   2.175   3.854  15.083 -3.4080  0.3702  2.3926
 5890TIP3   OH239160   2.474   2.633   1.727  0.0463 -0.7792 -0.3303
 5890TIP3    H139161   2.568   2.631   1.708 -0.1731  1.4019 -1.9829
 5890TIP3    H239162   2.469   2.667   1.816  0.8318  1.5523 -1.0955
 5891TIP3   OH239163   0.269   6.339   0.977 -0.2990  0.4750 -0.2302
 5891TIP3    H139164   0.187   6.387   0.979 -0.2393  0.5862 -0.3651
 5891TIP3    H239165   0.336   6.405   0.996 -0.1221  0.6768 -1.4571
 5892TIP3   OH239166   3.833   5.848  16.568  0.0332  1.0118 -0.2227
 5892TIP3    H139167   3.861   5.854  16.660  1.0260  2.5835 -0.6008
 5892TIP3    H239168   3.742   5.819  16.573  0.8579 -1.7223  1.1445
 5893TIP3   OH239169   3.689   2.268   0.485 -0.0846 -0.2534  0.1203
 5893TIP3    H139170   3.602   2.259   0.522 -0.1490 -1.1954 -0.2501
 5893TIP3    H239171   3.730   2.337   0.537 -1.2684  0.6658 -0.1213
 5894TIP3   OH239172   3.423   1.874  12.335 -0.2976  0.2262  0.0527
 5894TIP3    H139173   3.469   1.885  12.418  1.7063  3.0243 -1.2387
 5894TIP3    H239174   3.408   1.780  12.328  2.8680 -0.5711  1.8803
 5895TIP3   OH239175   4.004   0.949   2.992  0.5570  0.7446  0.1097
 5895TIP3    H139176   4.011   0.934   3.086  0.7108 -0.4307 -0.0782
 5895TIP3    H239177   4.090   0.924   2.958  0.2482  0.4164 -0.4355
 5896TIP3   OH239178   0.068   2.630   2.698 -0.2052 -0.1773 -1.0637
 5896TIP3    H139179  -0.015   2.583   2.702  0.1941 -0.7983  0.9966
 5896TIP3    H239180   0.083   2.661   2.787  2.2752 -0.9895 -1.1057
 5897TIP3   OH239181   4.268   1.579   4.892 -0.1526 -0.6727 -0.4803
 5897TIP3    H139182   4.210   1.553   4.964  0.3897  0.6375  0.4702
 5897TIP3    H239183   4.345   1.524   4.902 -0.1387 -0.5931 -0.1518
 5898TIP3   OH239184   5.279   3.575   1.992 -0.0205  0.2554  0.2420
 5898TIP3    H139185   5.223   3.506   2.029  0.0469  0.6970  1.1755
 5898TIP3    H239186   5.236   3.598   1.909 -1.4492  0.8616  1.1251
 5899TIP3   OH239187   3.614   4.892   1.636  0.2793 -0.0082 -0.4889
 5899TIP3    H139188   3.668   4.921   1.710  1.2791  0.3960 -1.3675
 5899TIP3    H239189   3.670   4.832   1.587 -1.1931 -2.2364  0.3809
 5900TIP3   OH239190   1.966   1.360  10.296  0.1491  0.2232 -0.3421
 5900TIP3    H139191   1.950   1.328  10.385 -2.7054  2.2887  0.0342
 5900TIP3    H239192   1.920   1.298  10.240 -2.3717  1.5501  0.1125
 5901TIP3   OH239193   1.540   1.603  16.347  0.0619 -0.1149  0.1925
 5901TIP3    H139194   1.605   1.540  16.379 -0.5607 -0.0108  1.7298
 5901TIP3    H239195   1.456   1.567  16.376 -0.5122  0.1922 -1.0343
 5902TIP3   OH239196   0.692   0.855   4.435  0.3137 -0.5596  0.4717
 5902TIP3    H139197   0.658   0.786   4.378  0.9297 -1.0234  0.6423
 5902TIP3    H239198   0.739   0.914   4.376 -0.5370 -0.0693  0.2741
 5903TIP3   OH239199   6.672   4.435   2.479  0.4127  0.6137  0.5391
 5903TIP3    H139200   6.676   4.350   2.435  0.0333  0.7810  0.1623
 5903TIP3    H239201   6.642   4.495   2.410 -0.6285  0.8024  1.1426
 5904TIP3   OH239202   2.537   1.076   1.053 -0.2046  0.4935  0.6340
 5904TIP3    H139203   2.550   1.102   1.145 -0.6556 -0.1685  0.8891
 5904TIP3    H239204   2.564   0.984   1.050 -2.3759 -0.1982  0.6286
 5905TIP3   OH239205   3.403   1.421  15.389 -0.2608 -0.4503 -0.1739
 5905TIP3    H139206   3.322   1.415  15.440 -0.5309 -0.6627 -0.6299
 5905TIP3    H239207   3.440   1.506  15.414  0.7575 -1.4536  2.0809
 5906TIP3   OH239208   3.913   2.901   4.979  0.0361  0.5302  0.4612
 5906TIP3    H139209   3.970   2.943   4.915  0.1132  0.3707  0.4244
 5906TIP3    H239210   3.911   2.962   5.053 -1.1331  1.3645 -0.2178
 5907TIP3   OH239211   0.199   3.602   3.261  0.0436  0.2655  0.3060
 5907TIP3    H139212   0.162   3.548   3.191  0.7250 -0.2759  0.3535
 5907TIP3    H239213   0.143   3.585   3.336 -0.3564  0.4169  0.0450
 5908TIP3   OH239214   6.798   3.209   1.475  0.0715  0.1462  0.2839
 5908TIP3    H139215   6.717   3.245   1.511  0.3324  0.9633  0.0604
 5908TIP3    H239216   6.861   3.216   1.546 -0.0496 -0.5022  0.4618
 5909TIP3   OH239217   0.538   2.071  16.793 -0.0095  0.0560  0.2458
 5909TIP3    H139218   0.584   2.065  16.710 -2.3184  1.4086 -1.2154
 5909TIP3    H239219   0.446   2.059  16.771 -0.5512 -1.5432  2.9124
 5910TIP3   OH239220   0.533   2.310   0.167  0.3559 -0.0426  0.0110
 5910TIP3    H139221   0.463   2.371   0.186 -0.4593 -1.1094  0.5365
 5910TIP3    H239222   0.605   2.337   0.224  0.1544  0.6718 -0.0715
 5911TIP3   OH239223   4.196   4.776  14.800 -0.4593 -0.1429 -0.2733
 5911TIP3    H139224   4.174   4.782  14.707 -0.1151  1.1861 -0.2920
 5911TIP3    H239225   4.179   4.685  14.823 -1.4089 -0.2772 -1.4209
 5912TIP3   OH239226   2.844   0.832  11.572  0.6294 -0.0668 -0.7777
 5912TIP3    H139227   2.887   0.916  11.560 -1.4943  0.8790 -2.4647
 5912TIP3    H239228   2.877   0.777  11.502 -0.4881  0.5185 -1.8025
 5913TIP3   OH239229   1.877   6.010   5.103  0.3779 -0.4100 -0.7267
 5913TIP3    H139230   1.800   5.985   5.155  0.5019 -1.4870 -1.0239
 5913TIP3    H239231   1.907   6.091   5.143 -0.5077 -0.3343 -0.1672
 5914TIP3   OH239232   2.646   6.357  10.516 -0.7572  0.1449  0.1129
 5914TIP3    H139233   2.640   6.277  10.465 -1.2114  0.6082 -0.5917
 5914TIP3    H239234   2.679   6.330  10.601  1.2350 -0.4857 -0.8041
 5915TIP3   OH239235   5.094   5.330  16.760  0.5117 -0.2308 -0.5876
 5915TIP3    H139236   5.016   5.275  16.756 -1.1831  1.9034  0.4386
 5915TIP3    H239237   5.154   5.293  16.695 -0.5826 -3.0535 -0.1099
 5916TIP3   OH239238   3.596   4.788  11.301  0.1586 -0.3656 -0.4241
 5916TIP3    H139239   3.627   4.775  11.211  2.4667  1.5754 -0.0010
 5916TIP3    H239240   3.532   4.859  11.295  0.0395 -0.4803 -0.5412
 5917TIP3   OH239241   3.189   1.373  12.504  0.2087 -0.6194  0.0275
 5917TIP3    H139242   3.108   1.342  12.464 -0.0073 -0.8177  0.6078
 5917TIP3    H239243   3.250   1.382  12.431  0.5046 -3.0622 -0.1071
 5918TIP3   OH239244   6.081   2.088   3.388  0.7846 -0.4047 -0.3507
 5918TIP3    H139245   6.167   2.076   3.429  1.5627  0.4959 -1.6351
 5918TIP3    H239246   6.068   2.008   3.337  0.1891 -1.1580  0.9106
 5919TIP3   OH239247   4.606   1.889  14.251 -0.1851  0.0147  0.1494
 5919TIP3    H139248   4.606   1.878  14.156  2.8705  1.2471 -0.1227
 5919TIP3    H239249   4.563   1.974  14.265  1.3858  0.9504 -0.4150
 5920TIP3   OH239250   4.018   2.461   0.988  0.3489 -0.2298 -0.3456
 5920TIP3    H139251   4.085   2.457   1.057 -1.3747 -0.3713  1.4152
 5920TIP3    H239252   3.994   2.553   0.983 -0.5278 -0.4083  0.2987
 5921TIP3   OH239253   4.639   6.745   3.868  0.0948  0.1975 -0.5377
 5921TIP3    H139254   4.716   6.743   3.926  0.8373 -0.9988 -1.5068
 5921TIP3    H239255   4.576   6.685   3.910  0.6831 -0.7751 -0.9972
 5922TIP3   OH239256   4.101   0.178  13.261 -0.6128 -0.0745 -0.1019
 5922TIP3    H139257   4.059   0.110  13.209 -0.6812  0.1737 -0.3740
 5922TIP3    H239258   4.077   0.260  13.217  0.6363  0.0375 -0.6200
 5923TIP3   OH239259   5.380   3.221  14.725  0.0002  0.4111 -0.1535
 5923TIP3    H139260   5.382   3.293  14.662  0.2836  0.4583 -0.0898
 5923TIP3    H239261   5.392   3.143  14.671 -0.9785  0.3570 -0.3044
 5924TIP3   OH239262   5.170   0.720   0.701  0.2682  0.0709 -0.4044
 5924TIP3    H139263   5.141   0.671   0.624 -0.1665  0.7529 -0.6837
 5924TIP3    H239264   5.100   0.783   0.717  1.5398  1.7404 -1.0910
 5925TIP3   OH239265   5.825   3.189   2.491  0.3283  0.7941 -0.1689
 5925TIP3    H139266   5.893   3.123   2.477  0.2408  0.6466  0.0859
 5925TIP3    H239267   5.743   3.140   2.482  0.1931  0.0486  3.3542
 5926TIP3   OH239268   2.226   3.025  12.661  0.0973  0.1072  0.1605
 5926TIP3    H139269   2.159   3.068  12.713  0.1458  1.9078 -1.1880
 5926TIP3    H239270   2.255   2.952  12.715 -3.0144 -0.8457  0.7321
 5927TIP3   OH239271   3.239   0.413   5.096 -0.4950 -0.2256  0.0703
 5927TIP3    H139272   3.188   0.356   5.153  0.6132  1.5231  2.9871
 5927TIP3    H239273   3.173   0.455   5.040 -2.5054  2.0226  3.7516
 5928TIP3   OH239274   3.327   5.276   1.459 -0.0379 -0.0837 -0.1874
 5928TIP3    H139275   3.407   5.225   1.457  0.3441  0.3657  1.7775
 5928TIP3    H239276   3.268   5.231   1.398  1.8375 -0.0937 -2.1435
 5929TIP3   OH239277   0.457   6.766  13.916  0.3198  0.0772  0.5797
 5929TIP3    H139278   0.383   6.806  13.962  0.8439  1.1726  0.5067
 5929TIP3    H239279   0.535   6.801  13.959  0.8093  0.2621 -0.4122
 5930TIP3   OH239280   1.066   5.858   4.874 -0.1769  0.3274  0.6222
 5930TIP3    H139281   1.016   5.914   4.934 -0.2645  1.6187 -0.5952
 5930TIP3    H239282   1.003   5.795   4.841 -0.1919 -0.2145  1.6572
 5931TIP3   OH239283   4.121   2.892  14.463 -0.0676 -0.0747  0.1652
 5931TIP3    H139284   4.060   2.933  14.524  2.2032  0.4938  2.2059
 5931TIP3    H239285   4.193   2.954  14.455  1.5032 -1.8182 -0.0235
 5932TIP3   OH239286   3.100   6.227  11.354 -0.4174  0.0543 -0.1655
 5932TIP3    H139287   3.067   6.138  11.342 -0.3647 -0.0450  0.3764
 5932TIP3    H239288   3.024   6.278  11.381  0.1167 -0.5692  2.9827
 5933TIP3   OH239289   5.561   0.395   4.455 -0.1642  0.4856  0.1061
 5933TIP3    H139290   5.610   0.313   4.447 -0.5462  0.0456  1.8148
 5933TIP3    H239291   5.615   0.450   4.512 -0.7210  0.7549  0.3800
 5934TIP3   OH239292   4.312   4.756   4.205  0.0934  0.2558  0.0105
 5934TIP3    H139293   4.351   4.698   4.270 -1.1088 -0.5398  0.0474
 5934TIP3    H239294   4.258   4.816   4.256 -0.3589  0.0260 -0.1920
 5935TIP3   OH239295   4.224   5.637  13.407 -0.1160 -0.5339 -0.0304
 5935TIP3    H139296   4.278   5.661  13.482  1.1537  1.0852 -1.3971
 5935TIP3    H239297   4.143   5.686  13.419 -0.2033 -0.8178  0.6081
 5936TIP3   OH239298   5.635   5.353  11.726  0.2564 -0.1133 -0.5634
 5936TIP3    H139299   5.641   5.266  11.766  1.2362 -0.5593 -1.6070
 5936TIP3    H239300   5.671   5.412  11.792  2.0066 -0.8481 -0.7992
 5937TIP3   OH239301   3.943   5.232   2.286  0.4750 -0.0326  0.0345
 5937TIP3    H139302   3.988   5.317   2.283 -1.3705  0.9798 -0.6377
 5937TIP3    H239303   3.952   5.197   2.198 -1.5910  1.0927 -0.7060
 5938TIP3   OH239304   3.186   3.093  14.829 -0.0604 -0.0868 -0.7900
 5938TIP3    H139305   3.212   3.084  14.738  1.3252  1.5333 -0.6072
 5938TIP3    H239306   3.105   3.042  14.837 -1.0713  0.9770 -3.2868
 5939TIP3   OH239307   3.399   5.045   2.079  0.3058 -0.5233 -0.6756
 5939TIP3    H139308   3.334   5.114   2.084  0.0255 -0.8674  1.1951
 5939TIP3    H239309   3.418   5.022   2.170  0.5653 -2.7436 -1.2135
 5940TIP3   OH239310   2.541   4.099  14.663  0.4423  0.0188 -0.2604
 5940TIP3    H139311   2.594   4.023  14.638  0.4759  0.2324 -0.8350
 5940TIP3    H239312   2.510   4.135  14.581  1.2151  1.2053 -0.0493
 5941TIP3   OH239313   1.795   0.090   0.483 -0.2711  0.4721  0.2204
 5941TIP3    H139314   1.877   0.080   0.436 -1.1882  0.8380 -1.5243
 5941TIP3    H239315   1.810   0.047   0.568  1.3191 -0.4892 -0.5167
 5942TIP3   OH239316   4.519   6.593  16.257  0.1267  0.0058 -0.1905
 5942TIP3    H139317   4.527   6.658  16.326  2.5438 -0.0002 -0.3613
 5942TIP3    H239318   4.538   6.642  16.176 -1.0640 -0.3194 -0.6890
 5943TIP3   OH239319   3.670   5.824   2.207 -0.3260  0.0368 -0.2561
 5943TIP3    H139320   3.734   5.778   2.261 -0.5977  0.4925  0.4734
 5943TIP3    H239321   3.720   5.894   2.166 -0.0468 -0.5113 -0.8712
 5944TIP3   OH239322   2.560   6.045   4.408 -0.1510  0.6789 -0.4196
 5944TIP3    H139323   2.516   6.009   4.331  0.2040 -1.9616  0.5254
 5944TIP3    H239324   2.489   6.084   4.459 -0.8608 -0.2425 -0.6671
 5945TIP3   OH239325   0.997   4.900   0.579  0.0356 -0.1721  0.4167
 5945TIP3    H139326   0.919   4.952   0.564 -0.4247 -0.4645  1.6521
 5945TIP3    H239327   1.058   4.926   0.510 -1.2600 -0.1881 -0.7765
 5946TIP3   OH239328   3.369   1.308   0.136  0.2246  0.3639  0.5546
 5946TIP3    H139329   3.397   1.310   0.227  1.7439 -0.1105  0.1298
 5946TIP3    H239330   3.372   1.400   0.108 -0.6889  0.5674  1.0888
 5947TIP3   OH239331   6.150   2.288   5.913  0.1708  0.3345 -0.1337
 5947TIP3    H139332   6.165   2.194   5.918  1.0722  0.5295  1.3036
 5947TIP3    H239333   6.180   2.322   5.998 -1.7163  1.7046  0.0448
 5948TIP3   OH239334   0.888   3.615   2.264  0.1468 -0.1751 -0.4198
 5948TIP3    H139335   0.849   3.609   2.351  0.8158  0.5663 -0.0559
 5948TIP3    H239336   0.939   3.534   2.256  0.8322  0.1693  0.2710
 5949TIP3   OH239337   6.750   3.499   1.430  0.0269  0.3082 -0.2302
 5949TIP3    H139338   6.765   3.438   1.502 -0.1986 -1.0061 -1.2644
 5949TIP3    H239339   6.676   3.553   1.459  0.7916  0.7107  1.0612
 5950TIP3   OH239340   2.928   1.239   6.240  0.0150  0.2026 -0.5125
 5950TIP3    H139341   2.953   1.319   6.286  0.4221 -0.5469  0.6297
 5950TIP3    H239342   3.002   1.179   6.256 -1.8972 -1.7084  2.0049
 5951TIP3   OH239343   3.227   5.119  14.642 -0.4885  0.4256  0.3791
 5951TIP3    H139344   3.209   5.045  14.699 -1.8587  0.8074  0.4820
 5951TIP3    H239345   3.157   5.117  14.577  0.2178  0.8534 -0.4192
 5952TIP3   OH239346   0.376   3.871   0.319  0.1408  0.1688  0.1141
 5952TIP3    H139347   0.343   3.943   0.373  0.1037  0.3540 -0.1548
 5952TIP3    H239348   0.441   3.828   0.374  1.7660  1.7251 -0.4973
 5953TIP3   OH239349   5.026   1.101   3.052  0.0872  0.3412  0.2235
 5953TIP3    H139350   5.085   1.164   3.011 -1.2316  0.3059 -1.8625
 5953TIP3    H239351   4.994   1.146   3.130  0.9490  1.3186  0.0350
 5954TIP3   OH239352   5.769   4.016  16.360 -0.3774  0.2791  0.7652
 5954TIP3    H139353   5.681   4.011  16.321 -0.7206  0.7185  1.4596
 5954TIP3    H239354   5.762   3.964  16.440  0.3842 -0.7979  0.1526
 5955TIP3   OH239355   3.977   3.416   4.216  0.2953  0.2091 -0.2387
 5955TIP3    H139356   4.054   3.458   4.178 -1.5550  2.9709 -1.2597
 5955TIP3    H239357   3.970   3.453   4.304  0.4656 -0.5357  0.0971
 5956TIP3   OH239358   0.642   1.379  14.904  0.3165  0.1413  0.2235
 5956TIP3    H139359   0.666   1.403  14.994 -1.1529 -1.3348  1.0593
 5956TIP3    H239360   0.600   1.457  14.868  0.3870  0.5536  1.0164
 5957TIP3   OH239361   0.438   6.825   4.778  0.1659  0.5027  0.5015
 5957TIP3    H139362   0.368   6.783   4.729  0.2994 -1.9757  2.2148
 5957TIP3    H239363   0.394   6.888   4.835 -0.3662  0.7831 -0.2146
 5958TIP3   OH239364   0.911   0.302   0.997 -0.6229 -0.3327  0.3058
 5958TIP3    H139365   0.877   0.233   0.941  0.0550  1.2074 -2.1669
 5958TIP3    H239366   1.004   0.280   1.008 -0.5192 -0.0718 -0.0577
 5959TIP3   OH239367   0.388   1.992   0.341  0.3857 -0.0642  0.7810
 5959TIP3    H139368   0.387   1.897   0.325  1.6741 -0.1696  1.2728
 5959TIP3    H239369   0.455   2.025   0.282 -0.0679  0.5553  0.6082
 5960TIP3   OH239370   0.555   0.404   2.746  0.3601 -0.3863 -0.4713
 5960TIP3    H139371   0.472   0.403   2.794  0.9782  0.1709  0.6438
 5960TIP3    H239372   0.584   0.495   2.750  1.4207 -0.7331 -0.1608
 5961TIP3   OH239373   5.433   0.580   1.741 -0.4426 -0.6078 -0.1116
 5961TIP3    H139374   5.337   0.575   1.739 -0.5382  0.9706 -1.6088
 5961TIP3    H239375   5.451   0.673   1.755  0.8682 -0.8537 -0.1071
 5962TIP3   OH239376   3.225   6.317  16.592 -0.0570 -0.2737 -0.4744
 5962TIP3    H139377   3.283   6.333  16.518 -0.3399  0.0461 -0.6276
 5962TIP3    H239378   3.155   6.263  16.557 -0.1264 -0.2246 -0.4130
 5963TIP3   OH239379   6.107   6.162  12.356  0.2628  0.5443  0.4662
 5963TIP3    H139380   6.087   6.253  12.378 -0.9391  0.9704 -2.0805
 5963TIP3    H239381   6.039   6.111  12.401 -1.7978  1.3347 -1.5518
 5964TIP3   OH239382   2.698   1.250   5.059 -0.3688  0.2986  0.7654
 5964TIP3    H139383   2.636   1.262   5.130 -1.5522  1.2828 -0.3773
 5964TIP3    H239384   2.668   1.310   4.991  2.2545  1.3288  0.4139
 5965TIP3   OH239385   5.084   5.109   1.721 -0.2682  0.0886  0.2434
 5965TIP3    H139386   5.121   5.021   1.718  1.8319  0.9361 -0.1887
 5965TIP3    H239387   5.088   5.134   1.813  0.2521  0.1827  0.1955
 5966TIP3   OH239388   2.213   0.493   6.442 -0.4718  0.3718  0.8538
 5966TIP3    H139389   2.301   0.454   6.441 -0.9341 -0.7173  1.2834
 5966TIP3    H239390   2.224   0.573   6.494  0.0421 -0.3429  1.8862
 5967TIP3   OH239391   3.780   4.063   2.868  0.1595 -0.5610 -0.6129
 5967TIP3    H139392   3.775   3.983   2.816  2.9469 -0.1733 -1.6424
 5967TIP3    H239393   3.742   4.130   2.812 -1.5565 -0.9766 -0.0158
 5968TIP3   OH239394   0.058   2.902  14.273 -0.0122  0.7284  0.0369
 5968TIP3    H139395   0.124   2.970  14.286  0.7423  0.3311 -1.4656
 5968TIP3    H239396   0.106   2.820  14.281 -0.5782  0.4004  0.1498
 5969TIP3   OH239397   0.161   0.376  15.456 -0.7603 -0.7861  0.4353
 5969TIP3    H139398   0.070   0.390  15.429  0.2973  1.4146 -2.6014
 5969TIP3    H239399   0.207   0.452  15.421  2.2834 -1.8696  1.8156
 5970TIP3   OH239400   6.620   2.722   3.153 -0.1878 -0.2948 -0.2353
 5970TIP3    H139401   6.705   2.740   3.195 -0.0057  0.2969 -0.8415
 5970TIP3    H239402   6.568   2.801   3.169  0.0266  0.1184 -1.4501
 5971TIP3   OH239403   3.544   5.661  16.473  0.1971  0.7827 -0.0181
 5971TIP3    H139404   3.484   5.722  16.516 -2.5327 -0.5257 -1.7054
 5971TIP3    H239405   3.554   5.696  16.384  0.3191 -0.0890 -0.3569
 5972TIP3   OH239406   2.416   5.098  13.006 -0.7724  0.1223 -0.5194
 5972TIP3    H139407   2.360   5.151  13.063  2.6484  1.2099  2.1754
 5972TIP3    H239408   2.381   5.009  13.015 -1.1306  0.4438  2.5015
 5973TIP3   OH239409   2.277   5.589  10.695  0.2050 -0.2555 -0.0432
 5973TIP3    H139410   2.204   5.602  10.755  2.1088  2.5210  1.9753
 5973TIP3    H239411   2.257   5.645  10.620  0.3483  0.7347  0.6413
 5974TIP3   OH239412   0.778   5.570  12.227 -0.0284 -0.4076  0.0247
 5974TIP3    H139413   0.798   5.650  12.178  0.3686 -0.3609  0.2575
 5974TIP3    H239414   0.828   5.578  12.308 -1.6848  0.1324  1.0503
 5975TIP3   OH239415   3.140   6.435   4.482 -0.2817  0.0567  0.3276
 5975TIP3    H139416   3.129   6.503   4.548 -2.7460 -1.4187  1.6223
 5975TIP3    H239417   3.233   6.412   4.484  0.3044  2.2929  0.8987
 5976TIP3   OH239418   6.247   4.873  13.904 -0.2294 -0.3135 -0.2762
 5976TIP3    H139419   6.339   4.845  13.911 -0.4414 -0.9764  0.0213
 5976TIP3    H239420   6.236   4.936  13.975 -0.4150 -1.4621  0.7682
 5977TIP3   OH239421   1.960   1.101  14.591 -0.1426 -0.1096  0.2605
 5977TIP3    H139422   1.886   1.145  14.548 -1.7039 -1.1845  1.7272
 5977TIP3    H239423   2.012   1.067  14.518 -0.4682  1.5990 -0.8337
 5978TIP3   OH239424   1.732   0.762   3.105  0.0943 -0.1444 -0.1082
 5978TIP3    H139425   1.670   0.820   3.149  2.3704  1.4780  1.1305
 5978TIP3    H239426   1.763   0.703   3.173  1.8422  0.7959 -0.0412
 5979TIP3   OH239427   6.814   5.662   1.334  0.3391  0.2017 -0.6795
 5979TIP3    H139428   6.776   5.603   1.399  1.2065  0.0861 -0.2601
 5979TIP3    H239429   6.783   5.749   1.359 -0.5269 -0.0144 -0.9939
 5980TIP3   OH239430   3.599   0.980  13.182 -0.6261  0.2720  0.1342
 5980TIP3    H139431   3.504   0.978  13.187 -0.5458 -0.5324  2.1540
 5980TIP3    H239432   3.621   0.907  13.123 -1.2284 -0.7689  1.1501
 5981TIP3   OH239433   3.047   5.159   5.204  0.1617  0.2024  0.5913
 5981TIP3    H139434   3.103   5.189   5.275  0.7992  1.6450 -0.4737
 5981TIP3    H239435   3.008   5.078   5.237  1.1485  0.3407  2.2088
 5982TIP3   OH239436   3.073   1.003  13.940 -0.0826  0.2514 -0.3277
 5982TIP3    H139437   3.010   1.004  13.869  0.9310 -1.6403 -1.3511
 5982TIP3    H239438   3.119   0.919  13.930  1.0899  0.5785  1.6790
 5983TIP3   OH239439   5.932   0.958   0.677 -0.3056  0.2416 -0.4321
 5983TIP3    H139440   5.926   1.015   0.754  0.4343  0.0896 -0.2453
 5983TIP3    H239441   5.972   0.877   0.711  0.7938  0.4763 -1.1159
 5984TIP3   OH239442   6.174   3.626  16.728 -0.5323  0.2100  0.3571
 5984TIP3    H139443   6.082   3.627  16.701  0.3423 -1.1845 -3.4333
 5984TIP3    H239444   6.209   3.710  16.699 -0.5260  0.5918  1.4589
 5985TIP3   OH239445   0.484   5.898  10.712 -0.0621 -0.2234  0.8037
 5985TIP3    H139446   0.471   5.827  10.776  2.0426 -1.4150  0.0065
 5985TIP3    H239447   0.494   5.977  10.766 -1.4855 -0.6673  1.7618
 5986TIP3   OH239448   1.725   1.902   5.730  0.2153 -0.1740  0.3281
 5986TIP3    H139449   1.812   1.907   5.770  0.0730 -0.7340  0.7320
 5986TIP3    H239450   1.740   1.855   5.647  0.6535  1.7715 -0.7576
 5987TIP3   OH239451   5.125   4.746  12.338  0.6321  0.7005 -0.5775
 5987TIP3    H139452   5.156   4.824  12.292 -0.2983  0.5106 -1.5935
 5987TIP3    H239453   5.038   4.731  12.301  2.0261 -2.7388 -2.8852
 5988TIP3   OH239454   3.954   4.717  14.241  0.1174  0.5564 -0.4350
 5988TIP3    H139455   4.010   4.786  14.205 -0.1781  0.4222 -1.1705
 5988TIP3    H239456   3.904   4.761  14.310  0.2325  0.9887 -0.6201
 5989TIP3   OH239457   6.370   5.993   0.216  0.4785 -0.0544  0.1462
 5989TIP3    H139458   6.295   5.976   0.274  1.5753  0.0297  1.6581
 5989TIP3    H239459   6.390   6.085   0.229  1.7705 -0.4215  0.9463
 5990TIP3   OH239460   5.508   0.469   5.814 -0.9478  0.0386  0.2711
 5990TIP3    H139461   5.603   0.467   5.824 -0.8453 -1.2799 -0.7046
 5990TIP3    H239462   5.476   0.511   5.894  0.2549 -2.5055  2.2263
 5991TIP3   OH239463   1.697   3.644   1.622  0.1891  0.5074 -0.1692
 5991TIP3    H139464   1.783   3.679   1.597  0.3805 -0.1748 -0.4981
 5991TIP3    H239465   1.686   3.669   1.713 -0.1549  2.3570 -0.6799
 5992TIP3   OH239466   0.186   2.789  15.688  0.5582 -0.3889  0.1162
 5992TIP3    H139467   0.218   2.872  15.653 -1.1223  0.0793 -0.4437
 5992TIP3    H239468   0.092   2.805  15.703  0.2614 -2.0998  0.2501
 5993TIP3   OH239469   1.728   1.402  16.353 -0.0512  0.1484 -0.3935
 5993TIP3    H139470   1.820   1.389  16.331 -0.2380  1.0325 -1.8163
 5993TIP3    H239471   1.691   1.313  16.355  0.3886 -0.0977 -1.9328
 5994TIP3   OH239472   1.524   6.017   5.898 -0.4635  1.2204  0.4158
 5994TIP3    H139473   1.523   6.105   5.860  1.2812  0.7620 -0.7790
 5994TIP3    H239474   1.574   5.964   5.836  1.6421  0.1947  2.8192
 5995TIP3   OH239475   3.513   2.851  14.070  0.0709  0.1641  0.2090
 5995TIP3    H139476   3.455   2.867  14.145  0.1053 -1.0658  0.5128
 5995TIP3    H239477   3.571   2.781  14.099  1.2249  0.8679 -0.3696
 5996TIP3   OH239478   1.794   6.180  11.691  0.1248  0.6808  0.1991
 5996TIP3    H139479   1.798   6.132  11.608 -0.5916  0.4233  0.3058
 5996TIP3    H239480   1.702   6.173  11.718  0.2992  0.9861  0.8837
 5997TIP3   OH239481   4.735   1.774   4.764  0.0174  0.4598  0.3685
 5997TIP3    H139482   4.788   1.702   4.729 -1.9849 -1.6465  1.3378
 5997TIP3    H239483   4.722   1.832   4.689  2.7818  0.5602 -0.1219
 5998TIP3   OH239484   6.125   1.077  14.322  0.2206 -0.4012  0.3494
 5998TIP3    H139485   6.151   1.156  14.370  0.5833 -0.5512  0.4083
 5998TIP3    H239486   6.068   1.109  14.252 -2.9569 -0.4552  2.6982
 5999TIP3   OH239487   3.956   4.890  16.406 -0.1666 -0.5397 -0.0236
 5999TIP3    H139488   4.050   4.884  16.426 -0.0861  0.7745  0.1380
 5999TIP3    H239489   3.923   4.957  16.466 -0.9703 -0.1791 -0.8334
 6000TIP3   OH239490   3.458   4.549  14.812  0.0965  0.4046 -0.3857
 6000TIP3    H139491   3.517   4.566  14.885 -0.0121 -0.7658 -0.0158
 6000TIP3    H239492   3.479   4.461  14.782 -3.0748 -1.1432  1.3979
 6001TIP3   OH239493   1.661   0.286  11.728 -0.0694  0.3373  0.0820
 6001TIP3    H139494   1.658   0.337  11.808 -2.0983  1.7798 -0.8099
 6001TIP3    H239495   1.696   0.346  11.662 -1.8175  0.4403 -0.8327
 6002TIP3   OH239496   2.511   5.653  10.582  0.4192 -0.1779 -1.0640
 6002TIP3    H139497   2.571   5.599  10.634  0.1151 -0.9505 -1.5081
 6002TIP3    H239498   2.424   5.634  10.617  0.4558  1.5110  0.0874
 6003TIP3   OH239499   5.452   2.593   1.085 -0.5179  0.3827  0.2093
 6003TIP3    H139500   5.397   2.591   1.007  1.6390  1.9327 -1.4852
 6003TIP3    H239501   5.518   2.525   1.070 -0.5339  0.1588  1.0806
 6004TIP3   OH239502   3.621   0.371   5.325 -0.2892  0.3530  0.3352
 6004TIP3    H139503   3.617   0.305   5.394 -0.5289  0.3032  0.2750
 6004TIP3    H239504   3.531   0.406   5.320 -0.3229  0.2126 -0.0935
 6005TIP3   OH239505   0.088   1.741   6.229 -0.2380 -0.2134 -0.4366
 6005TIP3    H139506   0.004   1.717   6.267  0.7271 -1.3276  1.1000
 6005TIP3    H239507   0.124   1.804   6.291  0.4256 -0.4032 -0.6276
 6006TIP3   OH239508   3.044   0.820  15.612  0.6687  0.4412  0.4935
 6006TIP3    H139509   3.048   0.738  15.662 -1.7751 -0.3801 -0.4756
 6006TIP3    H239510   3.119   0.871  15.642  1.3237 -1.4764  2.3376
 6007TIP3   OH239511   2.467   2.795  16.257  0.0950 -0.1749 -0.1233
 6007TIP3    H139512   2.417   2.735  16.312 -2.3155  1.2774 -0.5988
 6007TIP3    H239513   2.470   2.753  16.171 -0.3697 -0.2314 -0.1110
 6008TIP3   OH239514   2.625   6.128   5.525  0.1504  0.2575  0.0309
 6008TIP3    H139515   2.575   6.166   5.454 -1.0705 -0.3168  0.5603
 6008TIP3    H239516   2.602   6.036   5.525  1.0750  0.0139  0.4034
 6009TIP3   OH239517   4.064   2.006  16.626 -0.0966  0.0315  0.4115
 6009TIP3    H139518   4.121   1.981  16.699 -0.0238 -0.8344  0.0779
 6009TIP3    H239519   4.064   2.101  16.626  0.8633  0.0375  0.7984
 6010TIP3   OH239520   0.735   4.233  14.060  0.4275 -0.0039 -0.2081
 6010TIP3    H139521   0.694   4.307  14.106 -0.3865 -0.7928  0.3916
 6010TIP3    H239522   0.660   4.183  14.026  0.9557  1.5309 -4.1474
 6011TIP3   OH239523   1.495   1.326  12.850  0.1510  0.4711  0.5215
 6011TIP3    H139524   1.454   1.265  12.911  0.8010 -0.3259  0.1834
 6011TIP3    H239525   1.569   1.362  12.899  0.9452 -0.5080  0.0857
 6012TIP3   OH239526   3.829   1.849  13.452  0.0083 -0.0622  0.1415
 6012TIP3    H139527   3.886   1.786  13.408 -1.1463 -0.3866 -0.9207
 6012TIP3    H239528   3.847   1.835  13.545 -0.1042 -1.8690 -0.0649
 6013TIP3   OH239529   1.450   5.116  13.455 -0.2075  0.4057  0.1174
 6013TIP3    H139530   1.448   5.082  13.544  1.9573  0.8047  0.3808
 6013TIP3    H239531   1.397   5.197  13.459  0.9328  1.1302  1.3938
 6014TIP3   OH239532   2.911   0.247   3.987 -0.1153 -0.1696 -0.8818
 6014TIP3    H139533   2.989   0.253   4.042  0.6750  3.3396 -2.0912
 6014TIP3    H239534   2.841   0.221   4.047  0.9154  2.3179  1.6578
 6015TIP3   OH239535   0.506   4.518   1.366  0.3240  0.5852  0.1886
 6015TIP3    H139536   0.507   4.457   1.291 -0.1641 -0.6507  1.1463
 6015TIP3    H239537   0.572   4.483   1.426 -0.6007  0.4487  1.1563
 6016TIP3   OH239538   6.619   4.026   5.756  0.1116 -0.4011  0.3631
 6016TIP3    H139539   6.636   4.110   5.714 -2.1168  0.6373  1.3441
 6016TIP3    H239540   6.677   4.026   5.833  0.4126  0.0396  0.1421
 6017TIP3   OH239541   0.893   0.638  14.542  0.0279  0.0516 -0.4941
 6017TIP3    H139542   0.945   0.714  14.568 -0.2324  0.6537 -1.6792
 6017TIP3    H239543   0.832   0.671  14.476 -1.3632 -0.8063  0.3128
 6018TIP3   OH239544   6.136   5.075   0.794 -0.1397  0.2312  0.2889
 6018TIP3    H139545   6.157   4.981   0.798  0.1737  0.2576 -0.5750
 6018TIP3    H239546   6.197   5.110   0.730 -0.2896  1.0283  0.5698
 6019TIP3   OH239547   5.001   2.187  11.601 -0.2239  0.3582 -0.5297
 6019TIP3    H139548   5.043   2.183  11.515  2.9671 -0.8282  0.9350
 6019TIP3    H239549   5.011   2.279  11.628  1.5358  0.1396 -0.2693
 6020TIP3   OH239550   2.991   4.394  12.490  0.0660  0.1279 -0.2532
 6020TIP3    H139551   2.937   4.365  12.417  1.2532 -1.5705 -0.5177
 6020TIP3    H239552   3.025   4.479  12.462 -1.0926  0.4419 -0.7825
 6021TIP3   OH239553   2.238   1.177   3.833 -0.0727  0.6073 -0.3889
 6021TIP3    H139554   2.303   1.112   3.807 -2.3365 -1.3825 -1.4591
 6021TIP3    H239555   2.258   1.195   3.925  0.1483 -2.2831  0.2242
 6022TIP3   OH239556   4.040   5.721  16.431  0.2279 -0.4976 -0.1975
 6022TIP3    H139557   4.114   5.779  16.409 -0.9037  1.1915  0.2996
 6022TIP3    H239558   3.967   5.780  16.446 -0.3916 -1.8737  2.8728
 6023TIP3   OH239559   0.894   3.531   6.206  0.8124 -0.1518  0.1528
 6023TIP3    H139560   0.978   3.569   6.229  0.3984  1.3511 -0.6882
 6023TIP3    H239561   0.887   3.453   6.260  3.1317 -0.8095 -0.3767
 6024TIP3   OH239562   0.215   3.257  16.596  0.0277 -0.0846  0.2109
 6024TIP3    H139563   0.222   3.167  16.629  0.7750  0.0511  0.4325
 6024TIP3    H239564   0.304   3.280  16.570 -0.2462  0.4304 -0.2849
 6025TIP3   OH239565   2.513   1.951  15.708  0.1329  0.0351 -0.0390
 6025TIP3    H139566   2.442   1.891  15.733  0.5065 -0.0942  0.7575
 6025TIP3    H239567   2.469   2.036  15.698 -0.1249 -0.0063  0.6260
 6026TIP3   OH239568   1.414   4.687  15.972 -0.1968 -0.1893  0.0622
 6026TIP3    H139569   1.408   4.629  15.896 -0.7974 -0.9630  0.6871
 6026TIP3    H239570   1.370   4.767  15.945 -2.0221 -1.1082  0.1817
 6027TIP3   OH239571   5.279   4.946  11.129  0.3623 -0.7481 -0.7267
 6027TIP3    H139572   5.184   4.935  11.132 -0.0203  1.6017 -2.0906
 6027TIP3    H239573   5.299   4.962  11.037  2.0457 -0.7523 -0.4030
 6028TIP3   OH239574   2.893   3.686   4.173  0.0173 -0.3222  0.1270
 6028TIP3    H139575   2.964   3.747   4.154 -0.5052  0.3911  0.4210
 6028TIP3    H239576   2.927   3.630   4.242  1.1061 -1.4712 -1.2739
 6029TIP3   OH239577   2.958   5.149   3.118  0.1528  0.1827 -0.3638
 6029TIP3    H139578   2.967   5.225   3.061  2.0043 -0.4569 -0.9870
 6029TIP3    H239579   3.025   5.163   3.186  0.8773 -1.1089 -0.7841
 6030TIP3   OH239580   1.396   6.390   3.600 -0.4244  0.2466  0.1950
 6030TIP3    H139581   1.377   6.379   3.507 -0.0563  0.7032  0.0575
 6030TIP3    H239582   1.466   6.327   3.618 -0.2327  0.4217  0.0690
 6031TIP3   OH239583   0.529   5.205  15.695  0.4334 -0.4171 -0.7187
 6031TIP3    H139584   0.505   5.170  15.609 -1.1651  0.4659 -0.6596
 6031TIP3    H239585   0.464   5.168  15.754  0.2415  0.6639 -0.2453
 6032TIP3   OH239586   5.127   0.585   3.216  0.3102  0.2995 -0.5126
 6032TIP3    H139587   5.138   0.585   3.121 -1.3838  2.7878 -0.7921
 6032TIP3    H239588   5.174   0.663   3.246 -2.3064  1.7570  0.1344
 6033TIP3   OH239589   4.754   0.250   2.897 -0.3629 -0.4308 -0.0766
 6033TIP3    H139590   4.838   0.270   2.938 -0.7978 -0.4242  0.8225
 6033TIP3    H239591   4.692   0.244   2.969 -0.7881 -2.2924 -0.5560
 6034TIP3   OH239592   2.915   5.782  12.392  0.4457  0.1526  0.4979
 6034TIP3    H139593   2.835   5.731  12.397  0.6280 -0.3480 -1.0787
 6034TIP3    H239594   2.985   5.720  12.412  0.5709  0.1303 -0.0060
 6035TIP3   OH239595   6.505   6.556  16.845  0.2577 -0.3887 -0.1274
 6035TIP3    H139596   6.430   6.597  16.801  0.3849  2.2752  1.8671
 6035TIP3    H239597   6.475   6.540  16.934  1.5425 -0.8433  0.2461
 6036TIP3   OH239598   6.335   4.651   2.506  0.0775 -0.0753  0.0941
 6036TIP3    H139599   6.283   4.625   2.583  2.5143  0.9437  2.2303
 6036TIP3    H239600   6.425   4.628   2.528  1.2690  2.7614 -1.2286
 6037TIP3   OH239601   3.781   4.822   4.931 -0.1153 -0.0595 -0.1590
 6037TIP3    H139602   3.822   4.767   4.864 -1.5412 -1.7807  0.3089
 6037TIP3    H239603   3.773   4.764   5.007 -0.0663  1.3550  0.9602
 6038TIP3   OH239604   5.908   2.182  11.815 -0.2463 -0.2517  0.0925
 6038TIP3    H139605   5.826   2.170  11.768 -0.0318  0.3032 -0.4379
 6038TIP3    H239606   5.976   2.160  11.751  0.0553  0.7274  0.0595
 6039TIP3   OH239607   1.496   2.163   5.989 -0.7483  0.5125 -0.1364
 6039TIP3    H139608   1.409   2.128   5.976  0.4248 -2.8507  0.2054
 6039TIP3    H239609   1.512   2.153   6.083  0.6139 -0.5906 -0.4591
 6040TIP3   OH239610   5.927   0.108   1.914  0.1878  0.0139 -0.4497
 6040TIP3    H139611   6.000   0.104   1.853 -0.7979 -0.1735 -1.6657
 6040TIP3    H239612   5.849   0.100   1.859 -0.8711  2.8009  0.4757
 6041TIP3   OH239613   4.837   5.829   5.627  1.0738 -0.1297  0.2823
 6041TIP3    H139614   4.860   5.910   5.582  0.7777 -1.0399 -1.6015
 6041TIP3    H239615   4.919   5.799   5.665  1.3218  0.7050  0.4314
 6042TIP3   OH239616   5.844   5.974  16.475 -0.3001  0.5820  0.3153
 6042TIP3    H139617   5.913   6.030  16.510 -1.3761  2.5696 -0.5895
 6042TIP3    H239618   5.833   6.002  16.384 -0.1543 -1.8719 -0.5406
 6043TIP3   OH239619   4.738   4.701   2.960 -0.2204 -0.2688  0.2159
 6043TIP3    H139620   4.748   4.764   3.031 -1.0955  1.7375 -1.3512
 6043TIP3    H239621   4.793   4.736   2.890  2.5690 -3.4575  0.5635
 6044TIP3   OH239622   2.271   4.129  16.358  0.6779 -0.4215 -0.5310
 6044TIP3    H139623   2.216   4.171  16.424  1.9017 -1.8229  1.4782
 6044TIP3    H239624   2.353   4.178  16.361  0.5576 -0.1331 -1.4808
 6045TIP3   OH239625   1.342   3.552   1.068  0.1143 -0.1107  0.1738
 6045TIP3    H139626   1.367   3.629   1.119 -2.3474  0.8744  0.0735
 6045TIP3    H239627   1.320   3.486   1.134 -2.2840  0.8975  0.4889
 6046TIP3   OH239628   6.424   3.748   0.604  0.4976 -0.3861  0.0025
 6046TIP3    H139629   6.437   3.819   0.667 -0.4354  0.6652 -0.9588
 6046TIP3    H239630   6.330   3.735   0.601  0.4434  0.1893 -1.8013
 6047TIP3   OH239631   5.099   4.394   0.220  0.3647 -0.0035  0.2565
 6047TIP3    H139632   5.119   4.306   0.188  0.1170  0.4496 -1.1899
 6047TIP3    H239633   5.005   4.392   0.239 -0.1611  0.5893 -2.0281
 6048TIP3   OH239634   6.791   1.810   1.244 -0.0034  0.3586 -0.4444
 6048TIP3    H139635   6.883   1.832   1.228 -0.4309  1.0594 -2.2251
 6048TIP3    H239636   6.745   1.894   1.238 -0.9403 -0.1927 -1.1640
 6049TIP3   OH239637   2.729   3.869  13.723  0.2843 -0.1927 -0.0249
 6049TIP3    H139638   2.707   3.962  13.725 -0.2217 -0.2524 -1.4859
 6049TIP3    H239639   2.649   3.825  13.754  0.2054 -0.1707 -0.1932
 6050TIP3   OH239640   3.399   1.118  15.642 -0.0039 -0.4418 -0.3146
 6050TIP3    H139641   3.482   1.116  15.689 -0.3628  1.1546  0.4519
 6050TIP3    H239642   3.379   1.211  15.632 -1.0085 -0.7783 -1.7481
 6051TIP3   OH239643   5.526   5.750  16.960  0.3446  0.4054  0.3372
 6051TIP3    H139644   5.462   5.692  17.001  0.5488  0.5157  0.8209
 6051TIP3    H239645   5.522   5.728  16.867  0.8431 -0.8102  0.5838
 6052TIP3   OH239646   2.033   6.194   0.810 -0.1484 -0.3829  0.0621
 6052TIP3    H139647   2.051   6.181   0.717  0.9997 -1.9892  0.4439
 6052TIP3    H239648   2.107   6.246   0.841 -0.0064 -0.6775  0.2317
 6053TIP3   OH239649   1.334   0.141   1.846 -0.0794  0.0100 -0.2005
 6053TIP3    H139650   1.324   0.229   1.883  1.6391 -0.2385  0.9678
 6053TIP3    H239651   1.419   0.143   1.801 -0.3117 -0.8810 -0.7171
 6054TIP3   OH239652   4.173   1.986   1.371  0.3892  0.4232  0.1653
 6054TIP3    H139653   4.213   1.926   1.307 -1.4444 -0.7935  0.0720
 6054TIP3    H239654   4.114   2.040   1.319 -0.0248  0.4282  0.6349
 6055TIP3   OH239655   6.217   6.492  15.196 -0.0231 -0.4309 -0.1132
 6055TIP3    H139656   6.245   6.460  15.282 -1.2347 -2.1920 -0.3104
 6055TIP3    H239657   6.256   6.431  15.134 -2.3404 -1.6081 -0.5174
 6056TIP3   OH239658   0.855   5.273   3.294 -0.1086  0.2376  0.1932
 6056TIP3    H139659   0.820   5.358   3.267  0.5530  0.3650 -0.2775
 6056TIP3    H239660   0.897   5.238   3.215 -1.0419 -0.8789  0.1534
 6057TIP3   OH239661   4.328   1.524   2.305 -0.1521  0.2325 -0.0873
 6057TIP3    H139662   4.282   1.444   2.330  2.5952 -0.5120  3.3518
 6057TIP3    H239663   4.377   1.501   2.227 -1.1330 -0.7012 -0.4493
 6058TIP3   OH239664   1.289   2.938  16.595 -0.1396 -0.2018  0.2294
 6058TIP3    H139665   1.343   2.996  16.541 -0.3067  0.2708  0.5606
 6058TIP3    H239666   1.335   2.935  16.679 -0.5824  0.1403  0.4862
 6059TIP3   OH239667   0.615   2.762   0.733 -0.1877 -0.2900  0.9191
 6059TIP3    H139668   0.575   2.834   0.684 -0.4360 -1.2886 -0.3945
 6059TIP3    H239669   0.546   2.733   0.793  0.0193  0.7526  1.6892
 6060TIP3   OH239670   5.015   2.666   3.354 -0.2733 -0.0486  0.0280
 6060TIP3    H139671   4.977   2.684   3.440  0.1210 -1.1103  0.4341
 6060TIP3    H239672   5.027   2.571   3.351  2.0510  0.1896 -0.1895
 6061TIP3   OH239673   3.256   1.336   3.535 -0.3612  0.2293  0.6298
 6061TIP3    H139674   3.217   1.328   3.622  1.6415 -0.1434  1.5628
 6061TIP3    H239675   3.338   1.384   3.550  0.0108  0.1731 -1.0447
 6062TIP3   OH239676   0.298   2.705   5.065 -0.4086 -0.6351 -0.3320
 6062TIP3    H139677   0.375   2.743   5.023 -0.7065 -0.6914 -0.9323
 6062TIP3    H239678   0.224   2.743   5.018 -0.7815  0.1414  0.8481
 6063TIP3   OH239679   5.217   0.891   0.140 -0.7646 -0.3297  0.5904
 6063TIP3    H139680   5.306   0.908   0.111 -0.9775  0.2608  0.2673
 6063TIP3    H239681   5.179   0.978   0.155 -1.3275 -0.5696  0.5895
 6064TIP3   OH239682   4.467   3.767   5.609 -0.1605 -0.7439  0.3442
 6064TIP3    H139683   4.441   3.762   5.517 -2.1456  1.5914  0.6736
 6064TIP3    H239684   4.560   3.788   5.607 -0.6328  1.6063 -1.2908
 6065TIP3   OH239685   2.579   0.874   4.014  0.2535  0.5674 -0.2828
 6065TIP3    H139686   2.652   0.882   3.952 -0.1424 -0.0142 -0.8308
 6065TIP3    H239687   2.618   0.834   4.092  0.2504 -1.0536 -1.0857
 6066TIP3   OH239688   0.685   0.345   4.902 -0.8960 -0.2654  0.1247
 6066TIP3    H139689   0.618   0.357   4.969 -2.6688 -1.7761 -1.2513
 6066TIP3    H239690   0.636   0.340   4.820  0.9796 -0.7645 -1.0351
 6067TIP3   OH239691   0.687   2.657   2.000 -0.8165  0.0764  0.5036
 6067TIP3    H139692   0.647   2.721   2.059 -0.8652 -0.5932  1.2107
 6067TIP3    H239693   0.769   2.698   1.973  0.3206 -0.4934  2.8095
 6068TIP3   OH239694   1.654   1.083   3.960  0.7934 -0.0182  0.2053
 6068TIP3    H139695   1.603   1.157   3.994  0.3898  0.0453 -0.5186
 6068TIP3    H239696   1.745   1.113   3.966  0.6495  0.4499  0.1348
 6069TIP3   OH239697   0.302   4.242  13.667  0.5299 -0.9179 -0.3822
 6069TIP3    H139698   0.348   4.211  13.589  1.6068 -0.1608 -0.0668
 6069TIP3    H239699   0.315   4.337  13.667 -0.5994 -0.7467  0.0090
 6070TIP3   OH239700   5.643   1.423  16.753 -0.5957  0.1014  0.3697
 6070TIP3    H139701   5.556   1.428  16.713 -0.0853 -0.5846 -0.8758
 6070TIP3    H239702   5.703   1.430  16.680  0.4243  0.9423  1.2553
 6071TIP3   OH239703   3.529   6.069   3.227  0.1777 -0.4867  0.2663
 6071TIP3    H139704   3.475   6.145   3.246  0.2924 -0.6621  1.3191
 6071TIP3    H239705   3.618   6.097   3.243  0.4908 -0.0497 -1.9482
 6072TIP3   OH239706   6.687   6.644  12.888  0.4115  0.7290  0.0491
 6072TIP3    H139707   6.691   6.739  12.877 -2.8193  1.0994  0.8599
 6072TIP3    H239708   6.658   6.612  12.803  1.3167  0.4511 -0.1662
 6073TIP3   OH239709   4.696   5.424   5.505  0.3645  0.5169 -0.0636
 6073TIP3    H139710   4.661   5.491   5.447 -0.5083  0.2237  0.0938
 6073TIP3    H239711   4.636   5.350   5.494  0.7388  0.1209  0.4935
 6074TIP3   OH239712   4.416   4.668   2.030 -0.7901 -0.5787 -0.5288
 6074TIP3    H139713   4.383   4.758   2.026 -0.4378 -0.4917 -1.9050
 6074TIP3    H239714   4.433   4.653   2.123  0.3818  1.2248 -0.4084
 6075TIP3   OH239715   5.522   2.319  14.797  0.2239  0.3526 -0.4904
 6075TIP3    H139716   5.461   2.255  14.832  0.1875  1.0149  0.6908
 6075TIP3    H239717   5.587   2.267  14.749 -0.4073 -0.4660 -0.4752
 6076TIP3   OH239718   1.025   2.066   2.039 -0.4241  0.0363 -0.4609
 6076TIP3    H139719   1.073   2.129   1.986 -0.1104  0.1329 -0.0663
 6076TIP3    H239720   1.014   1.990   1.982 -0.8391  0.4579 -0.9537
 6077TIP3   OH239721   0.826   3.283  12.684  0.1539 -0.0089  0.1606
 6077TIP3    H139722   0.758   3.233  12.730  0.0331 -1.2900 -1.2951
 6077TIP3    H239723   0.898   3.220  12.673  1.8593  1.4729  2.1419
 6078TIP3   OH239724   1.895   2.052  11.219 -0.2902  0.1501  0.4759
 6078TIP3    H139725   1.977   2.005  11.200 -0.7678 -1.3940  1.9073
 6078TIP3    H239726   1.901   2.133  11.169  0.9965 -1.0339 -1.4380
 6079TIP3   OH239727   5.746   1.312   4.709  0.0442 -0.1889  0.5540
 6079TIP3    H139728   5.767   1.223   4.684  0.0230  0.0392 -0.2925
 6079TIP3    H239729   5.656   1.307   4.741 -0.3127 -0.3004 -0.4406
 6080TIP3   OH239730   0.762   3.626  14.385  0.1530 -0.2720  0.0491
 6080TIP3    H139731   0.731   3.632  14.475 -0.8919  1.8734 -0.3965
 6080TIP3    H239732   0.711   3.554  14.347 -1.3126  0.4978  0.4864
 6081TIP3   OH239733   0.859   1.875   6.283 -0.3718  0.0377  0.0687
 6081TIP3    H139734   0.817   1.838   6.205  0.7242  0.2394 -0.6355
 6081TIP3    H239735   0.798   1.857   6.354 -0.9345 -1.0322 -0.6688
 6082TIP3   OH239736   0.504   6.766  12.557  0.6713 -0.0231 -0.3828
 6082TIP3    H139737   0.471   6.818  12.483  0.4335  0.9760  0.3985
 6082TIP3    H239738   0.555   6.696  12.516  1.3722  1.0817 -1.4648
 6083TIP3   OH239739   0.965   0.028  16.734  0.5107 -0.4757  0.1887
 6083TIP3    H139740   0.923  -0.007  16.812  1.6337 -1.7129  0.2656
 6083TIP3    H239741   0.944  -0.034  16.665  0.0972  0.2506 -0.3552
 6084TIP3   OH239742   6.456   6.360   4.715  0.4814  0.1594  0.0428
 6084TIP3    H139743   6.400   6.283   4.708 -0.3397  0.6206  1.1810
 6084TIP3    H239744   6.524   6.334   4.778 -1.0760  1.0249  2.2163
 6085TIP3   OH239745   0.605   2.929   3.241 -0.0156 -0.1007  0.8805
 6085TIP3    H139746   0.624   2.912   3.334  1.2652 -1.4690  0.4066
 6085TIP3    H239747   0.685   2.902   3.195 -0.1100  1.8297 -0.5306
 6086TIP3   OH239748   0.752   5.074   0.925  0.1526  0.4472 -0.2528
 6086TIP3    H139749   0.717   5.122   0.851 -0.4546  0.5190  0.0736
 6086TIP3    H239750   0.720   4.984   0.912 -1.8928  0.9055  1.0770
 6087TIP3   OH239751   6.085   4.551   0.809 -0.1229 -0.1387 -0.2359
 6087TIP3    H139752   5.998   4.579   0.839 -0.6675  0.3917 -2.1583
 6087TIP3    H239753   6.088   4.458   0.831 -0.6727  0.1199  0.9866
 6088TIP3   OH239754   6.776   5.906   3.193  0.4031  0.2317 -0.2543
 6088TIP3    H139755   6.681   5.901   3.195  0.4684 -3.5240  0.6709
 6088TIP3    H239756   6.799   5.955   3.271 -0.7859 -1.4438  1.2247
 6089TIP3   OH239757   4.452   5.490   5.259  0.4761 -0.4923  0.6720
 6089TIP3    H139758   4.396   5.414   5.275 -0.7549  0.3762  0.5945
 6089TIP3    H239759   4.527   5.455   5.210 -0.6228 -1.4577 -0.3629
 6090TIP3   OH239760   1.333   4.940  15.915  0.0431  0.1098 -0.0161
 6090TIP3    H139761   1.365   5.027  15.891 -0.7411  0.3632 -0.1906
 6090TIP3    H239762   1.253   4.930  15.863 -1.1360  0.2482  1.7135
 6091TIP3   OH239763   3.486   3.339  14.894  0.2351 -0.0482  0.3152
 6091TIP3    H139764   3.575   3.313  14.869  0.0287 -1.8456  1.2676
 6091TIP3    H239765   3.449   3.261  14.934 -2.2059  0.2765 -1.0995
 6092TIP3   OH239766   1.349   4.051  13.351 -0.2524 -0.1785  0.1355
 6092TIP3    H139767   1.409   4.116  13.313 -0.4132  0.9345  1.6899
 6092TIP3    H239768   1.351   4.069  13.445 -0.6818 -2.1427  0.5562
 6093TIP3   OH239769   3.331   1.144   3.895 -0.3073  0.3240 -0.1326
 6093TIP3    H139770   3.389   1.097   3.955  1.8408  0.2558 -2.1311
 6093TIP3    H239771   3.275   1.075   3.857  0.5893 -0.1524 -0.6184
 6094TIP3   OH239772   3.722   4.462   5.136 -0.1708  0.1117 -0.2393
 6094TIP3    H139773   3.692   4.486   5.049  0.8909  1.4507 -0.2685
 6094TIP3    H239774   3.709   4.367   5.141 -1.3907  0.1941 -1.3831
 6095TIP3   OH239775   6.356   1.760   2.941  0.1034  0.0009  0.0575
 6095TIP3    H139776   6.368   1.844   2.897 -0.2464  0.0291  0.0113
 6095TIP3    H239777   6.323   1.783   3.028  0.2627 -0.0771  0.1388
 6096TIP3   OH239778   6.354   4.011   5.101  0.0738 -0.8074  0.1703
 6096TIP3    H139779   6.414   3.999   5.027 -0.1665  0.5673 -0.2711
 6096TIP3    H239780   6.317   4.098   5.089  0.5334 -0.2465  2.2721
 6097TIP3   OH239781   3.120   4.476  13.487 -0.1119 -0.1413 -0.3494
 6097TIP3    H139782   3.170   4.400  13.514 -0.4072 -1.7043 -3.6611
 6097TIP3    H239783   3.163   4.506  13.407 -1.3030  1.8649 -0.3218
 6098TIP3   OH239784   2.125   3.101  12.220 -0.4225  0.5073  0.1581
 6098TIP3    H139785   2.090   3.012  12.216 -0.1047  0.3477  0.8008
 6098TIP3    H239786   2.098   3.141  12.137 -1.0424 -0.0092  0.1008
 6099TIP3   OH239787   6.188   1.450  16.599 -0.7834 -0.2630  0.5040
 6099TIP3    H139788   6.107   1.484  16.637 -0.8112 -0.8126  0.9494
 6099TIP3    H239789   6.183   1.473  16.506 -0.2334  2.0201  0.9748
 6100TIP3   OH239790   5.196   4.484   3.630  0.1369 -0.0781  0.3112
 6100TIP3    H139791   5.232   4.572   3.617  1.5430 -0.5400  0.8421
 6100TIP3    H239792   5.251   4.428   3.576  0.8186 -0.9351  1.8364
 6101TIP3   OH239793   3.270   4.654  11.527  0.1181 -0.2912 -0.2518
 6101TIP3    H139794   3.319   4.646  11.608  0.9694  0.6765 -0.6607
 6101TIP3    H239795   3.210   4.727  11.541  1.9858  1.5266 -1.3172
 6102TIP3   OH239796   0.954   6.058   1.074 -0.2342  0.0011 -0.5869
 6102TIP3    H139797   0.941   6.110   1.154 -1.6477 -0.9489 -0.1568
 6102TIP3    H239798   0.960   6.123   1.004  0.6896  0.8385  0.2441
 6103TIP3   OH239799   1.462   1.035   3.374 -0.0408 -0.1041 -0.5046
 6103TIP3    H139800   1.543   0.984   3.363  0.5922  0.6704  0.3843
 6103TIP3    H239801   1.455   1.049   3.468  0.0662  1.8390 -0.7459
 6104TIP3   OH239802   6.358   0.807  16.802  0.5793  0.2168 -0.1426
 6104TIP3    H139803   6.333   0.808  16.710 -0.6051 -0.8720  0.1393
 6104TIP3    H239804   6.279   0.833  16.849  0.5307 -1.2133  0.6544
 6105TIP3   OH239805   2.077   2.270   6.417 -0.3791 -0.0343 -0.2343
 6105TIP3    H139806   2.104   2.214   6.490  1.7654 -0.5801 -1.3539
 6105TIP3    H239807   2.088   2.214   6.339  1.6474  1.7793 -1.3786
 6106TIP3   OH239808   3.501   1.705   5.435 -0.2219  0.1805  0.7126
 6106TIP3    H139809   3.514   1.768   5.365  1.0520 -1.5459 -0.7073
 6106TIP3    H239810   3.481   1.623   5.390 -0.5802 -0.7242  2.4224
 6107TIP3   OH239811   0.675   4.584  10.664 -0.3683 -0.0783 -0.3160
 6107TIP3    H139812   0.745   4.548  10.609 -0.1968 -1.4724  0.7648
 6107TIP3    H239813   0.718   4.650  10.718 -0.3380  0.5939 -1.1424
 6108TIP3   OH239814   1.104   2.580  13.981 -0.2071 -0.1760  0.2309
 6108TIP3    H139815   1.099   2.510  13.916 -0.3182 -0.3023  0.3734
 6108TIP3    H239816   1.016   2.618  13.983 -0.0055  0.3292 -0.2397
 6109TIP3   OH239817   2.413   3.906   2.644  0.2710 -0.2574  0.1934
 6109TIP3    H139818   2.419   3.987   2.695 -0.5370 -0.2509  0.2956
 6109TIP3    H239819   2.319   3.893   2.632  0.4374 -0.4339 -1.0280
 6110TIP3   OH239820   4.377   2.019  13.825  0.6211  0.3743 -0.3142
 6110TIP3    H139821   4.413   2.086  13.766  4.0881 -0.1414  0.9334
 6110TIP3    H239822   4.413   1.937  13.791 -2.0975 -0.7106 -0.7602
 6111TIP3   OH239823   4.644   4.660  14.833 -0.1152  0.5687 -0.3585
 6111TIP3    H139824   4.712   4.709  14.786 -0.7646  0.0193 -1.9470
 6111TIP3    H239825   4.569   4.721  14.836  0.2937  1.0312  1.0438
 6112TIP3   OH239826   1.816   2.261  11.832 -0.3930  0.2362  0.1387
 6112TIP3    H139827   1.837   2.255  11.925 -2.5398  2.0649  0.8108
 6112TIP3    H239828   1.760   2.185  11.816  2.7448 -2.1347 -0.6323
 6113TIP3   OH239829   5.751   5.642  16.645 -0.1994  0.4657 -0.3898
 6113TIP3    H139830   5.758   5.624  16.739  0.1189  0.6151 -0.3821
 6113TIP3    H239831   5.780   5.733  16.637 -0.5040  0.5456 -0.5965
 6114TIP3   OH239832   2.659   4.026   3.205  0.4125  0.1271 -0.6676
 6114TIP3    H139833   2.716   3.950   3.216  0.7046  0.5090  0.6584
 6114TIP3    H239834   2.597   4.000   3.138  0.9752 -1.0045 -0.7744
 6115TIP3   OH239835   4.419   4.964  15.435  0.1815  0.0104  0.0661
 6115TIP3    H139836   4.383   5.047  15.405  0.4476 -0.4162 -1.5097
 6115TIP3    H239837   4.508   4.961  15.398  1.0697  0.0582  2.0451
 6116TIP3   OH239838   2.882   3.538  15.286  0.2392 -0.7411  0.3194
 6116TIP3    H139839   2.904   3.478  15.357 -0.7690  0.0722  1.3744
 6116TIP3    H239840   2.815   3.595  15.323 -0.1887 -0.1682 -1.2502
 6117TIP3   OH239841   5.811   2.011  11.158 -0.4888  0.2920 -0.0110
 6117TIP3    H139842   5.805   1.991  11.065  1.9123 -1.7188  0.1584
 6117TIP3    H239843   5.729   1.979  11.195 -0.9105 -0.1052 -1.2278
 6118TIP3   OH239844   4.058   2.889  15.330 -0.2709  0.2181 -0.0746
 6118TIP3    H139845   3.977   2.867  15.375  0.0649 -1.5154 -0.2192
 6118TIP3    H239846   4.070   2.983  15.344 -1.5645  0.2231  1.1314
 6119TIP3   OH239847   2.282   6.641  14.833 -0.2982 -0.1857 -0.4890
 6119TIP3    H139848   2.228   6.600  14.900  0.5514 -1.1805 -0.3856
 6119TIP3    H239849   2.316   6.568  14.781  3.2063  0.0296  1.1781
 6120TIP3   OH239850   3.238   3.473   5.869 -0.7207 -0.2836  0.3810
 6120TIP3    H139851   3.189   3.554   5.880  1.4593  0.9546  1.7013
 6120TIP3    H239852   3.175   3.404   5.887 -2.0244  1.2156  1.8101
 6121TIP3   OH239853   2.775   5.853   3.062  0.1483  0.0337 -0.2560
 6121TIP3    H139854   2.713   5.915   3.023 -0.7678  0.2550  1.4478
 6121TIP3    H239855   2.830   5.907   3.119  0.3012 -0.5137  0.1210
 6122TIP3   OH239856   0.003   2.638  16.502  0.3004  0.7362 -0.3463
 6122TIP3    H139857   0.011   2.660  16.595  0.8544  0.2248 -0.2635
 6122TIP3    H239858   0.052   2.556  16.493  0.2692  0.7934 -1.0954
 6123TIP3   OH239859   3.081   4.809  10.215  0.0267 -0.5503  0.1318
 6123TIP3    H139860   3.032   4.860  10.279 -0.3048 -0.8958  0.1566
 6123TIP3    H239861   3.132   4.875  10.166 -0.4950 -0.1777  0.0758
 6124TIP3   OH239862   3.695   5.747   3.985 -0.0066 -0.3824  0.2396
 6124TIP3    H139863   3.748   5.754   3.906 -1.9007 -2.1424 -1.2945
 6124TIP3    H239864   3.656   5.834   3.996  0.2682 -0.1252 -0.7778
 6125TIP3   OH239865   4.428   3.136   0.715  0.0666  0.3527  0.2225
 6125TIP3    H139866   4.458   3.185   0.638  1.4886 -0.9940 -0.1347
 6125TIP3    H239867   4.372   3.198   0.763  0.8166  1.9019 -0.8199
 6126TIP3   OH239868   0.142   1.430   1.345  0.1825 -0.6581 -0.3420
 6126TIP3    H139869   0.217   1.406   1.398  0.9042  2.8504  0.4484
 6126TIP3    H239870   0.067   1.421   1.404  0.6436  0.6103  0.4638
 6127TIP3   OH239871   2.753   1.252  15.824  0.2293 -0.5173 -0.4425
 6127TIP3    H139872   2.842   1.288  15.821  0.7698 -1.4872  1.6988
 6127TIP3    H239873   2.763   1.169  15.872 -1.7706 -0.8519 -0.5300
 6128TIP3   OH239874   0.387   0.913   0.690 -0.4445  0.2646  0.4928
 6128TIP3    H139875   0.475   0.935   0.659 -0.5044  1.1371  0.9232
 6128TIP3    H239876   0.368   0.829   0.648  0.0482  0.7244 -0.6988
 6129TIP3   OH239877   3.163   5.767   3.840  0.0263 -0.2108  0.0625
 6129TIP3    H139878   3.239   5.777   3.898 -0.2158  0.8536  0.2214
 6129TIP3    H239879   3.092   5.739   3.898 -0.1775  0.7039  0.2654
 6130TIP3   OH239880   2.965   5.238   5.585 -0.2272  0.5221  0.1481
 6130TIP3    H139881   2.902   5.264   5.517  1.3013  1.2649 -1.0576
 6130TIP3    H239882   2.986   5.147   5.564  0.0486  0.6726 -0.2593
 6131TIP3   OH239883   1.760   6.636   4.759  0.3693  0.0030  0.5135
 6131TIP3    H139884   1.797   6.551   4.782  0.9711  0.3551  0.8680
 6131TIP3    H239885   1.785   6.650   4.668  0.9776  0.1670  0.7029
 6132TIP3   OH239886   0.254   4.421   3.453 -0.4682  0.1156 -0.4117
 6132TIP3    H139887   0.308   4.496   3.476  0.9029 -0.6540 -1.0288
 6132TIP3    H239888   0.236   4.377   3.537  0.7850 -0.2182 -0.3023
 6133TIP3   OH239889   6.079   1.461   4.038  0.0567 -0.3807  0.1124
 6133TIP3    H139890   6.126   1.511   4.106  0.0283  1.1414 -0.9303
 6133TIP3    H239891   6.122   1.486   3.956 -1.8611  0.2257 -0.7687
 6134TIP3   OH239892   2.950   1.198   5.135 -0.4398  0.6529  0.7293
 6134TIP3    H139893   2.974   1.279   5.181 -2.6172  1.6549  0.2206
 6134TIP3    H239894   2.858   1.209   5.113 -0.3842 -1.3118 -0.7878
 6135TIP3   OH239895   5.512   5.759  16.087 -0.4121  0.3270 -0.6194
 6135TIP3    H139896   5.517   5.713  16.171  0.2644  1.8671  0.2133
 6135TIP3    H239897   5.423   5.796  16.085 -0.6027 -0.1313 -0.8256
 6136TIP3   OH239898   1.210   5.230   1.309  0.4178 -0.6744  0.3339
 6136TIP3    H139899   1.288   5.184   1.340 -0.1996 -1.4820  0.7439
 6136TIP3    H239900   1.200   5.201   1.219 -0.0457 -1.4781  0.6320
 6137TIP3   OH239901   1.820   2.921   1.318  0.0480 -0.2793 -0.5330
 6137TIP3    H139902   1.914   2.937   1.328 -0.4274  2.3733  0.6609
 6137TIP3    H239903   1.792   2.893   1.405 -0.4546  0.0882 -0.5771
 6138TIP3   OH239904   1.028   1.211   0.490  0.1095 -0.0289  0.3366
 6138TIP3    H139905   1.081   1.288   0.468 -0.5094  0.5226  0.7743
 6138TIP3    H239906   1.039   1.200   0.584  1.1853 -1.2304  0.1040
 6139TIP3   OH239907   6.381   2.570   2.745 -0.0557  0.4255  0.0592
 6139TIP3    H139908   6.441   2.495   2.752  1.0049  1.1509 -0.8394
 6139TIP3    H239909   6.325   2.548   2.670  0.8990  0.9243 -0.8375
 6140TIP3   OH239910   5.341   5.854   0.145  0.2613  0.0145 -0.3011
 6140TIP3    H139911   5.339   5.838   0.240 -0.7884 -0.3582 -0.3722
 6140TIP3    H239912   5.429   5.828   0.118  0.1859 -1.0137  0.3862
 6141TIP3   OH239913   4.416   4.567   2.717  0.1596  0.3880 -0.1165
 6141TIP3    H139914   4.483   4.499   2.710 -0.5518 -0.2283 -1.2574
 6141TIP3    H239915   4.335   4.519   2.734  0.0538  1.1533  1.7289
 6142TIP3   OH239916   5.774   0.506   3.899 -0.0203 -0.6939  0.3917
 6142TIP3    H139917   5.691   0.552   3.886 -0.1747 -1.5479 -2.2734
 6142TIP3    H239918   5.828   0.531   3.824  2.0203 -0.5301  1.8149
 6143TIP3   OH239919   3.039   1.773  15.109  0.5612  0.3394  0.2736
 6143TIP3    H139920   3.023   1.867  15.096 -0.6323  0.0448 -0.6241
 6143TIP3    H239921   2.951   1.734  15.107  1.0449 -0.8054  0.6226
 6144TIP3   OH239922   4.700   0.993   3.527 -0.1707 -0.2808  0.1311
 6144TIP3    H139923   4.761   1.067   3.520 -0.2725 -0.3734 -3.7992
 6144TIP3    H239924   4.613   1.033   3.527 -0.1904 -0.3133 -0.3575
 6145TIP3   OH239925   5.393   3.031   3.355 -0.2556 -0.5636 -0.2713
 6145TIP3    H139926   5.402   3.038   3.450 -2.0287 -0.9398 -0.0354
 6145TIP3    H239927   5.468   2.978   3.328  0.5305 -0.0693  0.8508
 6146TIP3   OH239928   4.851   6.136   0.598 -0.3282  0.2133  0.0543
 6146TIP3    H139929   4.833   6.163   0.688  0.1562 -0.1166  0.2577
 6146TIP3    H239930   4.840   6.215   0.546  1.9635  1.0802  0.7460
 6147TIP3   OH239931   0.772   1.200   1.432 -0.3633 -0.6029  0.0596
 6147TIP3    H139932   0.788   1.196   1.526  4.0740  0.2363 -0.4386
 6147TIP3    H239933   0.783   1.293   1.410 -1.3117 -0.7869 -1.3124
 6148TIP3   OH239934   0.191   0.800  14.775 -0.2157  0.0774  0.4865
 6148TIP3    H139935   0.173   0.796  14.681  0.4680  0.0757  0.3522
 6148TIP3    H239936   0.175   0.712  14.807  0.2736 -0.1055  0.2343
 6149TIP3   OH239937   1.202   6.698   5.266  0.0838 -0.0464  0.4471
 6149TIP3    H139938   1.283   6.651   5.246 -0.0688 -0.2141  0.2077
 6149TIP3    H239939   1.191   6.759   5.193 -1.2051 -1.6282 -0.7719
 6150TIP3   OH239940   3.861   0.625  12.300  0.7458 -0.1133 -0.1200
 6150TIP3    H139941   3.855   0.706  12.251  1.0906 -0.3505 -0.5615
 6150TIP3    H239942   3.771   0.606  12.325  0.5454 -0.0499 -0.7676
 6151TIP3   OH239943   1.456   5.694   2.430 -0.2636  0.1035 -0.3766
 6151TIP3    H139944   1.424   5.624   2.487  0.1703 -1.0572 -1.4954
 6151TIP3    H239945   1.378   5.722   2.381 -0.5404  0.7798  0.4284
 6152TIP3   OH239946   6.220   0.286   2.513  0.1735 -0.3411 -0.5774
 6152TIP3    H139947   6.206   0.245   2.598 -1.4704  1.7345  0.2547
 6152TIP3    H239948   6.215   0.380   2.531  2.4817  0.2846 -2.5600
 6153TIP3   OH239949   0.386   4.394  15.497  0.0965  0.4465 -0.5702
 6153TIP3    H139950   0.443   4.394  15.574  1.0700  1.1193 -1.2676
 6153TIP3    H239951   0.439   4.434  15.428 -1.1408  0.8510 -1.3132
 6154TIP3   OH239952   2.459   1.208   2.406 -0.1015  0.5654 -0.3602
 6154TIP3    H139953   2.518   1.138   2.437 -0.3012  0.4776 -0.1761
 6154TIP3    H239954   2.405   1.229   2.482 -0.0788  0.8848 -0.4315
 6155TIP3   OH239955   3.101   3.773   5.029  0.1921  0.1967  0.0368
 6155TIP3    H139956   3.162   3.716   4.984  0.1052 -0.6870  0.9943
 6155TIP3    H239957   3.137   3.782   5.117 -1.1690 -0.5678  0.7137
 6156TIP3   OH239958   3.051   6.476  17.036  0.0065  0.9757 -0.0609
 6156TIP3    H139959   3.050   6.381  17.028 -1.5534  0.9388  0.2420
 6156TIP3    H239960   3.050   6.493  17.130 -2.0039  1.2366 -0.0813
 6157TIP3   OH239961   3.981   3.467  14.961  0.6528 -0.0488  0.6365
 6157TIP3    H139962   3.922   3.542  14.961 -0.0079 -0.4235 -2.3431
 6157TIP3    H239963   4.069   3.505  14.969  0.3310  1.0856 -0.8506
 6158TIP3   OH239964   5.720   3.403  14.833  0.1379 -0.0081  0.5176
 6158TIP3    H139965   5.804   3.448  14.844  0.2278  0.6339 -2.1424
 6158TIP3    H239966   5.737   3.313  14.859  1.6101  0.1683  0.2376
 6159TIP3   OH239967   5.050   5.722   5.809  0.2233  0.2807  0.3073
 6159TIP3    H139968   4.974   5.751   5.858  1.1548  1.4334  1.1228
 6159TIP3    H239969   5.080   5.644   5.856 -0.4279 -0.1725 -0.0139
 6160TIP3   OH239970   3.308   5.173   0.606 -0.3150 -0.3352 -0.5101
 6160TIP3    H139971   3.222   5.208   0.584 -0.1213  0.5261  0.0597
 6160TIP3    H239972   3.293   5.117   0.682 -0.6388 -1.6058 -1.4743
 6161TIP3   OH239973   6.524   0.354  12.586 -0.0404 -0.5669  1.0020
 6161TIP3    H139974   6.469   0.312  12.652 -2.2085  0.5200 -0.0498
 6161TIP3    H239975   6.514   0.299  12.508  1.2082 -0.9197  1.0654
 6162TIP3   OH239976   5.648   2.766   1.315 -0.1670  0.0542  0.0271
 6162TIP3    H139977   5.564   2.722   1.302 -0.0829  0.0087 -0.3803
 6162TIP3    H239978   5.633   2.827   1.387 -0.5523  0.0549 -0.0558
 6163TIP3   OH239979   6.422   3.827  13.049  0.1816  0.0064 -0.3047
 6163TIP3    H139980   6.374   3.755  13.008 -0.3365 -0.7765  1.5349
 6163TIP3    H239981   6.505   3.788  13.076  1.0029  0.8077 -1.5943
 6164TIP3   OH239982   6.063   3.068   1.899  0.3482  0.5397 -0.1836
 6164TIP3    H139983   6.083   3.009   1.972  0.6548  2.5495  1.4474
 6164TIP3    H239984   6.146   3.111   1.880 -0.1006  1.2217 -0.6349
 6165TIP3   OH239985   2.512   1.392  12.262  0.4403 -0.3430 -0.3229
 6165TIP3    H139986   2.555   1.360  12.182  1.6267 -0.2319  0.2417
 6165TIP3    H239987   2.433   1.339  12.270  0.8875 -1.1279 -0.9677
 6166TIP3   OH239988   3.556   1.928   5.878  0.6724  0.7017 -0.1814
 6166TIP3    H139989   3.475   1.877   5.885  0.4933  0.6783 -1.9002
 6166TIP3    H239990   3.621   1.876   5.925 -0.4291  1.0815  1.8581
 6167TIP3   OH239991   2.245   6.482  14.195 -0.0722  0.1481  0.6439
 6167TIP3    H139992   2.269   6.464  14.286  1.5141  1.8252  0.6156
 6167TIP3    H239993   2.161   6.528  14.201  0.8196  1.7496  1.4265
 6168TIP3   OH239994   2.356   0.984   4.923  0.5989  0.2454 -0.0955
 6168TIP3    H139995   2.414   0.988   4.999 -0.2408 -0.1854  0.5755
 6168TIP3    H239996   2.354   1.075   4.891  0.4526  0.5610  0.7767
 6169TIP3   OH239997   3.106   1.729  12.126  0.3081  0.0077 -0.3374
 6169TIP3    H139998   3.015   1.700  12.122  0.0747 -0.5340  3.8946
 6169TIP3    H239999   3.104   1.820  12.097 -1.8707  0.3690  0.7554
 6170TIP3   OH240000   4.179   6.832  11.683  0.3349 -0.0875  0.3633
 6170TIP3    H140001   4.189   6.754  11.628 -3.6666 -0.1941 -0.5644
 6170TIP3    H240002   4.222   6.902  11.634  1.4418 -1.1664 -0.2535
 6171TIP3   OH240003   0.032   3.994   4.956 -0.4249 -0.0799 -0.2561
 6171TIP3    H140004  -0.014   4.000   5.041 -1.1426 -2.0561 -0.4323
 6171TIP3    H240005   0.029   4.083   4.921 -2.7652  0.2231  0.4769
 6172TIP3   OH240006   6.429   6.765  11.121  0.0640 -0.0731 -0.3032
 6172TIP3    H140007   6.378   6.825  11.176 -1.3329 -2.2213  0.9182
 6172TIP3    H240008   6.488   6.822  11.072 -2.0006  2.3849 -0.1661
 6173TIP3   OH240009   0.208   6.778   5.124 -0.2575 -0.0033  0.1367
 6173TIP3    H140010   0.283   6.720   5.135 -0.0901  0.2910  0.5594
 6173TIP3    H240011   0.136   6.719   5.098  0.0176 -0.3378  0.1278
 6174TIP3   OH240012   3.734   1.178   3.364 -0.0383 -0.3690 -0.0856
 6174TIP3    H140013   3.720   1.255   3.420 -0.6616 -0.1510 -0.5276
 6174TIP3    H240014   3.658   1.122   3.381  1.3402 -1.8362  1.6939
 6175TIP3   OH240015   0.436   5.995  16.777 -0.0751 -0.5441  0.3826
 6175TIP3    H140016   0.462   6.078  16.818 -0.3951 -0.0226 -0.4444
 6175TIP3    H240017   0.516   5.942  16.779 -0.0572 -0.5033  1.5800
 6176TIP3   OH240018   0.789   5.049  12.919  0.6356  0.2888  0.7159
 6176TIP3    H140019   0.776   5.132  12.964  0.5174  1.1105 -0.7714
 6176TIP3    H240020   0.738   4.986  12.970  0.9361  1.0495  2.0136
 6177TIP3   OH240021   0.214   4.027   4.431  0.1417 -0.5912 -0.6397
 6177TIP3    H140022   0.235   3.934   4.441 -0.2698 -0.7338 -1.0740
 6177TIP3    H240023   0.281   4.061   4.372  0.4319 -0.5568 -0.2935
 6178TIP3   OH240024   0.138   3.298   4.092 -0.0146 -0.0829  0.7539
 6178TIP3    H140025   0.116   3.205   4.082 -0.5129  0.0968  0.1010
 6178TIP3    H240026   0.068   3.334   4.145 -1.4102  0.5003 -1.3675
 6179TIP3   OH240027   4.605   6.699  16.030 -1.0743  0.6464 -0.1111
 6179TIP3    H140028   4.586   6.673  15.940 -0.1491  1.2781 -0.4940
 6179TIP3    H240029   4.638   6.789  16.024 -2.7228  1.4012  1.0368
 6180TIP3   OH240030   6.474   3.025   4.040  0.2305  0.0787  0.2846
 6180TIP3    H140031   6.479   3.120   4.030 -3.5836  1.4781  6.3776
 6180TIP3    H240032   6.399   2.999   3.987 -1.2125  1.3793  1.5843
 6181TIP3   OH240033   0.051   6.419   2.039  0.4247  0.4317  0.5402
 6181TIP3    H140034   0.102   6.484   2.086  0.4508  0.6457  0.2216
 6181TIP3    H240035   0.116   6.354   2.011  0.4404  0.4125  0.6237
 6182TIP3   OH240036   0.821   2.505  15.867  0.4737 -0.2994  0.1549
 6182TIP3    H140037   0.878   2.430  15.880  1.7306  0.6029  0.0986
 6182TIP3    H240038   0.872   2.565  15.812  0.0367  1.1313  1.2322
 6183TIP3   OH240039   6.285   3.571  12.911 -0.1102 -0.3305 -0.5209
 6183TIP3    H140040   6.300   3.546  12.820  1.0117 -1.0971 -0.1529
 6183TIP3    H240041   6.195   3.602  12.913 -0.7062 -1.8711 -1.5669
 6184TIP3   OH240042   4.582   5.829   3.159  0.0707 -0.1364  0.0839
 6184TIP3    H140043   4.671   5.864   3.154 -0.2097  0.8168  1.2666
 6184TIP3    H240044   4.593   5.743   3.200  0.4795 -0.1484 -0.0427
 6185TIP3   OH240045   0.333   2.400  13.038  0.0318 -0.2332  0.6928
 6185TIP3    H140046   0.379   2.459  12.978 -2.6255  1.6302  0.2760
 6185TIP3    H240047   0.251   2.380  12.993 -1.0575 -0.6448  2.7254
 6186TIP3   OH240048   0.175   5.924   5.432 -0.4649 -0.0680  0.1067
 6186TIP3    H140049   0.239   5.926   5.502  0.0594 -0.2459 -0.3573
 6186TIP3    H240050   0.156   6.016   5.414 -0.5957 -0.0236  0.4774
 6187TIP3   OH240051   4.358   0.250  13.245  0.2364 -0.1531 -0.1123
 6187TIP3    H140052   4.394   0.199  13.317  1.1860 -0.3771 -0.7303
 6187TIP3    H240053   4.266   0.222  13.239  0.3544 -0.6880  0.5053
 6188TIP3   OH240054   5.410   4.837   4.424 -0.0752  0.1528 -0.3602
 6188TIP3    H140055   5.345   4.840   4.495  0.8137  0.8309  0.4591
 6188TIP3    H240056   5.374   4.776   4.361 -0.7007 -0.8069  0.8761
 6189TIP3   OH240057   2.838   1.655   6.262  0.3523  0.1526 -0.3899
 6189TIP3    H140058   2.747   1.625   6.265  0.3016  0.1259 -1.6559
 6189TIP3    H240059   2.832   1.750   6.255  0.4282  0.1770 -0.1163
 6190TIP3   OH240060   4.123   2.963   4.183  0.2229  0.0420 -0.1522
 6190TIP3    H140061   4.057   2.989   4.246 -0.4210 -1.5635 -0.1147
 6190TIP3    H240062   4.157   3.045   4.147 -0.0717  0.9522  1.5683
 6191TIP3   OH240063   3.211   6.535  16.242  0.0503  0.2293  0.0453
 6191TIP3    H140064   3.133   6.518  16.189  0.7844 -1.1377 -0.6586
 6191TIP3    H240065   3.178   6.541  16.332 -0.9958  0.8550 -0.3537
 6192TIP3   OH240066   0.918   4.648   4.083  0.0693  0.3205 -0.3817
 6192TIP3    H140067   0.905   4.644   3.988 -1.9551  0.6987 -0.1600
 6192TIP3    H240068   1.013   4.654   4.093  0.5512 -2.2909 -2.2746
 6193TIP3   OH240069   1.753   5.502   1.660  0.3583 -0.0643 -0.5313
 6193TIP3    H140070   1.743   5.514   1.755 -0.3047 -1.7811 -0.3450
 6193TIP3    H240071   1.664   5.498   1.627  0.5530 -1.0499 -0.9769
 6194TIP3   OH240072   4.270   3.356  15.473 -0.1844  0.5288  0.1247
 6194TIP3    H140073   4.202   3.354  15.405 -0.4002 -1.5518  0.3491
 6194TIP3    H240074   4.341   3.302  15.438  1.2274  2.3169  0.0789
 6195TIP3   OH240075   5.510   6.334  15.267 -0.3890 -0.2887 -0.4344
 6195TIP3    H140076   5.536   6.303  15.180  1.3220 -0.8081  0.2320
 6195TIP3    H240077   5.539   6.425  15.270  0.5465 -0.5893 -0.0341
 6196TIP3   OH240078   3.314   3.184   2.081  0.4809  0.1540 -1.0109
 6196TIP3    H140079   3.263   3.244   2.026 -0.6368 -0.8913 -1.1618
 6196TIP3    H240080   3.248   3.136   2.131  1.4272  0.1993  0.3260
 6197TIP3   OH240081   4.657   1.000  11.263  0.3500  0.0669  0.2529
 6197TIP3    H140082   4.664   0.960  11.176  0.2152 -1.6356  0.9753
 6197TIP3    H240083   4.634   0.927  11.320 -3.3169  1.7370  1.1736
 6198TIP3   OH240084   2.757   2.512  10.615  0.0529  0.0256  0.1643
 6198TIP3    H140085   2.842   2.540  10.647  0.1723  0.1299 -0.2419
 6198TIP3    H240086   2.737   2.571  10.542  0.8704 -1.6763 -1.5336
 6199TIP3   OH240087   2.506   0.595   6.275  0.5569  0.0814  0.1043
 6199TIP3    H140088   2.582   0.553   6.317  0.2816 -0.1158  0.4158
 6199TIP3    H240089   2.490   0.673   6.328  0.5154  0.0994  0.0649
 6200TIP3   OH240090   5.962   2.269  14.398  0.1723 -0.2719  0.2939
 6200TIP3    H140091   5.968   2.174  14.403 -0.6081 -0.2935  1.3730
 6200TIP3    H240092   5.976   2.290  14.306  0.8243 -1.3871  0.1273
 6201TIP3   OH240093   2.236   4.451   5.930  0.4116 -0.5468  0.5827
 6201TIP3    H140094   2.172   4.510   5.968 -0.5874 -0.3476 -1.3085
 6201TIP3    H240095   2.232   4.372   5.986 -2.0932 -0.8698  0.0587
 6202TIP3   OH240096   6.634   0.751  13.173 -0.7363  0.1817  0.3375
 6202TIP3    H140097   6.593   0.681  13.123  0.2595  0.9740 -1.6822
 6202TIP3    H240098   6.728   0.742  13.156 -0.4800  1.2635  1.0376
 6203TIP3   OH240099   1.669   5.856  11.424  0.0787 -0.0458 -0.3511
 6203TIP3    H140100   1.639   5.945  11.401 -0.8180 -0.1044  0.5438
 6203TIP3    H240101   1.676   5.857  11.519  0.3159 -0.8745 -0.3568
 6204TIP3   OH240102   2.306   3.112   5.321  0.1225  0.2372 -0.1369
 6204TIP3    H140103   2.389   3.156   5.336 -0.3152  1.3704 -0.8890
 6204TIP3    H240104   2.267   3.103   5.408  1.8844 -2.1548  0.4953
 6205TIP3   OH240105   6.362   6.175  15.657 -0.2037 -0.5631  0.2450
 6205TIP3    H140106   6.429   6.198  15.722  0.3199  3.3300 -1.3728
 6205TIP3    H240107   6.412   6.160  15.577 -1.1067 -0.2208 -0.3961
 6206TIP3   OH240108   1.160   5.412  12.723 -0.0445  0.3309  0.0099
 6206TIP3    H140109   1.168   5.390  12.630 -3.1465  1.4986 -0.6590
 6206TIP3    H240110   1.084   5.362  12.753  1.8724 -1.3430  2.4646
 6207TIP3   OH240111   5.856   0.091  14.166 -0.1028  0.3692 -0.0888
 6207TIP3    H140112   5.878   0.134  14.084  1.2758  0.4173  0.2844
 6207TIP3    H240113   5.932   0.038  14.187  0.1473  1.3991  1.8303
 6208TIP3   OH240114   2.632   3.581   3.432  0.3533  0.1821 -0.1880
 6208TIP3    H140115   2.644   3.644   3.503  0.7645  0.2865 -0.3476
 6208TIP3    H240116   2.718   3.539   3.423  0.5534  0.7985 -1.2331
 6209TIP3   OH240117   0.287   3.642  15.145 -0.5705  0.1220  0.3462
 6209TIP3    H140118   0.218   3.691  15.191 -0.4289  0.4576  0.2050
 6209TIP3    H240119   0.319   3.703  15.079  1.7557  0.9855  2.1546
 6210TIP3   OH240120   0.589   2.072   3.545 -0.3947 -0.0584  0.4525
 6210TIP3    H140121   0.600   2.060   3.451  0.6095  1.8814  0.2652
 6210TIP3    H240122   0.502   2.112   3.554 -0.7008 -0.7076  0.4069
 6211TIP3   OH240123   6.062   1.481   0.936  0.3404 -0.1687 -0.2331
 6211TIP3    H140124   6.066   1.502   1.030  0.2102  2.1443 -0.6765
 6211TIP3    H240125   6.062   1.386   0.933 -0.1712 -0.3227  2.1440
 6212TIP3   OH240126   6.491   4.891  12.445 -0.2181 -0.1102 -0.1393
 6212TIP3    H140127   6.430   4.954  12.483 -1.5585 -2.0453  1.1249
 6212TIP3    H240128   6.464   4.883  12.353  1.6216  2.9372 -1.1016
 6213TIP3   OH240129   6.016   5.626  12.820  0.4700 -0.2204 -0.1529
 6213TIP3    H140130   6.084   5.665  12.766  0.5054 -0.5135 -0.3247
 6213TIP3    H240131   6.059   5.605  12.903  0.0458  1.6902  0.6150
 6214TIP3   OH240132   1.334   4.545  12.370 -0.2407 -0.2439 -0.4190
 6214TIP3    H140133   1.255   4.534  12.318  0.9152 -2.3361 -1.8669
 6214TIP3    H240134   1.371   4.628  12.341 -1.2022  0.1004 -0.6878
 6215TIP3   OH240135   1.411   2.127  13.666 -0.2884  0.4757 -0.1978
 6215TIP3    H140136   1.326   2.165  13.687 -0.2523  0.7400 -0.5359
 6215TIP3    H240137   1.474   2.179  13.716 -0.4603 -0.8061  1.4499
 6216TIP3   OH240138   6.317   6.234  16.095  0.2645 -0.0353  0.3696
 6216TIP3    H140139   6.264   6.299  16.141 -0.3743 -0.1143 -0.2416
 6216TIP3    H240140   6.385   6.210  16.158  1.6319  2.5273  0.0306
 6217TIP3   OH240141   4.661   4.397  16.381 -0.0410 -0.0560  0.1502
 6217TIP3    H140142   4.714   4.427  16.306 -1.5973 -1.8083 -1.7837
 6217TIP3    H240143   4.707   4.320  16.414 -0.2982 -0.3675 -0.2090
 6218TIP3   OH240144   2.369   1.646   1.608 -0.3491 -0.3359 -0.2701
 6218TIP3    H140145   2.330   1.733   1.599 -0.3231 -0.2655  0.3164
 6218TIP3    H240146   2.444   1.658   1.666  1.2974 -0.2409 -2.2927
 6219TIP3   OH240147   3.974   4.967  12.146  0.1153  0.1277  0.0206
 6219TIP3    H140148   3.976   5.017  12.227 -1.4669  0.7802 -0.3012
 6219TIP3    H240149   3.917   4.893  12.165  1.8682 -1.2023  0.2734
 6220TIP3   OH240150   6.201   0.939  15.759  0.3174 -0.3872 -0.1966
 6220TIP3    H140151   6.233   1.028  15.776  0.3114 -0.2268 -0.9714
 6220TIP3    H240152   6.228   0.921  15.669 -2.1189 -0.0616 -1.0639
 6221TIP3   OH240153   5.062   5.252   1.458  0.0174  0.5338  0.4615
 6221TIP3    H140154   5.048   5.219   1.547 -0.5754 -0.6710 -0.0548
 6221TIP3    H240155   5.109   5.335   1.470  1.0010 -0.1885  1.8399
 6222TIP3   OH240156   2.902   6.381  16.345  0.3482  0.2041 -0.4784
 6222TIP3    H140157   2.969   6.438  16.383  1.3492 -0.4184 -1.2615
 6222TIP3    H240158   2.836   6.442  16.311  0.7121  0.8477 -0.0553
 6223TIP3   OH240159   5.103   5.271   0.791 -0.7263 -0.1601  0.4067
 6223TIP3    H140160   5.100   5.243   0.699  0.0153  0.1044  0.2924
 6223TIP3    H240161   5.192   5.305   0.802 -0.7361 -0.4103  1.2891
 6224TIP3   OH240162   0.227   5.147  10.678  0.5640 -0.6537 -0.1136
 6224TIP3    H140163   0.248   5.236  10.706 -1.5067 -0.2323  0.2635
 6224TIP3    H240164   0.274   5.136  10.595  0.2941  1.0477 -0.5324
 6225TIP3   OH240165   6.335   5.032  10.917  0.1690  0.8425 -0.2287
 6225TIP3    H140166   6.383   5.030  10.834  0.7856 -0.7075  0.1360
 6225TIP3    H240167   6.273   4.959  10.910 -1.0290  1.8140 -0.0263
 6226TIP3   OH240168   3.045   1.769   2.430 -0.1097 -0.0634  0.5650
 6226TIP3    H140169   3.125   1.720   2.450  0.2689  0.5587  0.6038
 6226TIP3    H240170   2.998   1.713   2.369  0.7315 -0.0928 -0.0742
 6227TIP3   OH240171   0.953   5.702   3.440 -0.2730  0.2283 -0.1490
 6227TIP3    H140172   0.896   5.766   3.398  2.3393  1.6484 -1.7496
 6227TIP3    H240173   0.926   5.618   3.401 -1.6740  0.7365 -0.3442
 6228TIP3   OH240174   3.716   3.307   4.842 -0.5642  0.7771 -0.5885
 6228TIP3    H140175   3.644   3.295   4.904  0.3611  2.1503  0.8275
 6228TIP3    H240176   3.777   3.235   4.862  0.4718  2.0738  1.2762
 6229TIP3   OH240177   1.441   4.125   2.713  0.1701  0.4249 -0.0628
 6229TIP3    H140178   1.454   4.219   2.724  0.8968  0.3937 -0.5993
 6229TIP3    H240179   1.523   4.094   2.675 -1.4988  0.2418 -3.9624
 6230TIP3   OH240180   5.969   6.817  13.213  0.2868 -0.4110  0.8640
 6230TIP3    H140181   5.883   6.801  13.252 -0.0506  0.0542  0.3347
 6230TIP3    H240182   6.031   6.811  13.286 -0.1498 -1.1227  1.1834
 6231TIP3   OH240183   4.696   6.561  15.792 -0.1729 -0.6540 -0.2884
 6231TIP3    H140184   4.747   6.556  15.711  0.4202 -1.1728  0.1117
 6231TIP3    H240185   4.760   6.548  15.862 -0.2425  2.2405  0.4305
 6232TIP3   OH240186   4.542   4.666  12.772 -0.2194  0.0648 -0.1384
 6232TIP3    H140187   4.585   4.712  12.845  0.0412  0.0994 -0.3122
 6232TIP3    H240188   4.450   4.693  12.777 -0.0229  0.8007 -0.3837
 6233TIP3   OH240189   4.248   0.181   5.217  0.4412 -0.2840  0.0982
 6233TIP3    H140190   4.316   0.217   5.161 -0.0171  1.0105  0.3338
 6233TIP3    H240191   4.166   0.198   5.169  0.1976 -0.8417  0.3091
 6234TIP3   OH240192   4.816   6.304   3.570  0.6233  0.2340  1.0378
 6234TIP3    H140193   4.856   6.368   3.629 -1.7101  2.0456  0.8000
 6234TIP3    H240194   4.801   6.353   3.489 -1.7623 -0.3754  1.0390
 6235TIP3   OH240195   3.757   0.275  11.954 -0.1300 -0.1666 -0.2428
 6235TIP3    H140196   3.812   0.215  11.904  1.1105 -0.9399  1.9236
 6235TIP3    H240197   3.808   0.296  12.032 -2.3513  0.1655  1.2259
 6236TIP3   OH240198   0.893   5.421  12.933 -0.6308  0.5748 -0.2162
 6236TIP3    H140199   0.864   5.493  12.990 -1.5616  0.9260 -1.0890
 6236TIP3    H240200   0.813   5.392  12.889 -0.3051 -1.1593  0.2729
 6237TIP3   OH240201   4.133   2.705   0.816 -0.3403 -0.3535  0.0684
 6237TIP3    H140202   4.129   2.657   0.733  0.6115 -2.0660  0.9415
 6237TIP3    H240203   4.218   2.749   0.815 -0.7200  0.3779 -0.2449
 6238TIP3   OH240204   1.549   0.670  14.475  0.1880  0.2630 -0.5662
 6238TIP3    H140205   1.495   0.712  14.543 -0.9822 -0.2278 -1.1754
 6238TIP3    H240206   1.513   0.582  14.466  1.8979 -0.5261 -0.1231
 6239TIP3   OH240207   2.828   5.008   0.337 -0.0956  0.6478 -0.0970
 6239TIP3    H140208   2.754   5.033   0.393 -0.6418 -1.0853  0.0126
 6239TIP3    H240209   2.905   5.027   0.391 -0.4506  2.1074 -0.0612
 6240TIP3   OH240210   6.560   2.242   3.707 -0.3199 -0.0919  0.6198
 6240TIP3    H140211   6.497   2.302   3.746  0.1266  0.5165  0.4209
 6240TIP3    H240212   6.582   2.180   3.777 -1.4843 -0.6033  0.5516
 6241TIP3   OH240213   3.898   4.514   3.089  0.4808  0.6472 -0.0573
 6241TIP3    H140214   3.858   4.430   3.064 -2.2887  2.6938 -3.5701
 6241TIP3    H240215   3.914   4.506   3.183 -2.3255 -2.8266  0.3561
 6242TIP3   OH240216   2.855   1.694   2.700 -0.4708  0.2542  0.2022
 6242TIP3    H140217   2.818   1.620   2.749 -1.6382  0.5239 -0.2405
 6242TIP3    H240218   2.884   1.655   2.617 -0.1628  0.1249  0.3672
 6243TIP3   OH240219   1.635   1.927  11.978  0.8168 -0.1001 -0.0312
 6243TIP3    H140220   1.711   1.943  12.033  3.0487 -0.6757 -2.7093
 6243TIP3    H240221   1.662   1.955  11.891 -2.0418 -0.4346 -1.1433
 6244TIP3   OH240222   1.204   0.304   1.081  0.0548 -0.1322  0.0101
 6244TIP3    H140223   1.280   0.362   1.087 -1.0508  1.2532  2.2487
 6244TIP3    H240224   1.229   0.226   1.130  1.2023 -1.2424 -2.2013
 6245TIP3   OH240225   1.091   0.660   3.498  0.3703  0.1338 -0.3802
 6245TIP3    H140226   1.150   0.710   3.443 -0.1919  1.2282 -0.0117
 6245TIP3    H240227   1.092   0.705   3.582 -0.3327 -0.3353 -0.1071
 6246TIP3   OH240228   5.364   3.912   3.335 -0.0998  0.1906 -0.9977
 6246TIP3    H140229   5.409   3.959   3.265 -0.1340 -1.0859 -1.9053
 6246TIP3    H240230   5.384   3.820   3.320 -1.5157 -0.2552 -0.3450
 6247TIP3   OH240231   1.239   4.408   4.791 -0.0112 -0.4544 -0.1632
 6247TIP3    H140232   1.308   4.465   4.758  0.8998 -1.5915 -0.2948
 6247TIP3    H240233   1.279   4.364   4.867 -1.0542 -0.1308  0.5978
 6248TIP3   OH240234   4.188   0.316  15.822  0.2022  0.8430  0.3081
 6248TIP3    H140235   4.246   0.246  15.791  0.0181 -1.0113  3.6114
 6248TIP3    H240236   4.243   0.394  15.825  1.3997  0.0460 -0.3434
 6249TIP3   OH240237   5.652   0.457  12.677 -0.0622 -0.9849 -0.5638
 6249TIP3    H140238   5.605   0.440  12.596 -0.1941 -0.4024 -0.6194
 6249TIP3    H240239   5.708   0.532  12.656  0.5674 -1.3988 -0.3749
 6250TIP3   OH240240   1.604   0.819   0.721 -0.2248  0.2879 -0.0295
 6250TIP3    H140241   1.609   0.837   0.627 -1.2216  0.6117 -0.0292
 6250TIP3    H240242   1.525   0.865   0.750  0.0820  0.1951  0.9678
 6251TIP3   OH240243   0.648   1.957   4.296  0.2344 -0.1216  0.1460
 6251TIP3    H140244   0.628   2.045   4.327  0.5161  1.1222 -2.8803
 6251TIP3    H240245   0.617   1.900   4.367 -2.6277  2.2371  1.0338
 6252TIP3   OH240246   3.069   3.003  13.423  0.7652 -0.7291 -0.3427
 6252TIP3    H140247   3.143   2.984  13.481 -0.8992 -1.7271  1.6212
 6252TIP3    H240248   2.996   3.019  13.483 -0.5714  0.5086 -2.1828
 6253TIP3   OH240249   0.780   5.109  11.875  0.1399  0.2056 -0.1486
 6253TIP3    H140250   0.702   5.106  11.931 -1.3082 -1.9557 -2.0801
 6253TIP3    H240251   0.753   5.158  11.798  1.0540  0.3744 -0.3722
 6254TIP3   OH240252   4.606   3.881  14.275  0.2459 -0.2668  0.0131
 6254TIP3    H140253   4.591   3.975  14.267  2.1725  0.1021  0.3254
 6254TIP3    H240254   4.519   3.845  14.291 -0.7542  1.2738 -1.5107
 6255TIP3   OH240255   3.417   2.488  14.697  0.5763  0.7038 -0.0637
 6255TIP3    H140256   3.442   2.420  14.635  1.2161 -1.1693  2.1084
 6255TIP3    H240257   3.321   2.488  14.695  0.5773 -0.0202 -0.3602
 6256TIP3   OH240258   5.966   6.734   4.674  0.4028  0.1480  0.7255
 6256TIP3    H140259   5.916   6.799   4.723  0.4951 -0.3102  1.4489
 6256TIP3    H240260   5.901   6.686   4.623  0.4009  1.1980 -0.3053
 6257TIP3   OH240261   2.628   0.394  12.816 -0.6662 -0.2295 -0.0213
 6257TIP3    H140262   2.678   0.371  12.894 -0.7491 -0.5058 -0.0450
 6257TIP3    H240263   2.682   0.365  12.743 -0.4253  0.3598 -0.0799
 6258TIP3   OH240264   6.026   5.598   0.659  0.3885  0.6914  0.0200
 6258TIP3    H140265   6.117   5.581   0.681 -0.3731 -1.0989  2.2751
 6258TIP3    H240266   5.994   5.654   0.730 -0.4690  0.5401 -0.2310
 6259TIP3   OH240267   2.421   1.763  15.032  0.2166  0.1674 -0.4207
 6259TIP3    H140268   2.439   1.838  14.974 -1.2627 -0.2637 -1.4936
 6259TIP3    H240269   2.480   1.776  15.106  0.8203  1.7708 -1.1263
 6260TIP3   OH240270   4.575   0.162   3.886 -0.1225  0.3484 -0.5232
 6260TIP3    H140271   4.644   0.209   3.839  0.5997 -0.9193 -0.7750
 6260TIP3    H240272   4.593   0.069   3.869 -0.0037 -0.1597  2.0463
 6261TIP3   OH240273   1.627   5.676   3.780 -0.2057  0.2372 -0.0079
 6261TIP3    H140274   1.586   5.672   3.694 -1.0704  0.5562  0.3758
 6261TIP3    H240275   1.701   5.615   3.774  0.2171  0.8412 -1.2056
 6262TIP3   OH240276   3.564   5.736  13.551 -0.2448 -0.1844 -0.1424
 6262TIP3    H140277   3.655   5.716  13.573 -0.0565  1.1913  0.4456
 6262TIP3    H240278   3.524   5.651  13.534  1.4210 -0.7635 -1.5221
 6263TIP3   OH240279   2.451   3.134  12.897 -0.2844  0.0825 -0.1335
 6263TIP3    H140280   2.421   3.166  12.812  2.8441  2.1710 -0.6303
 6263TIP3    H240281   2.469   3.040  12.883 -0.9612  0.1300 -1.4154
 6264TIP3   OH240282   5.459   2.659   1.592 -0.1911 -0.5618  0.2833
 6264TIP3    H140283   5.453   2.659   1.497  0.8317 -0.3032  0.2043
 6264TIP3    H240284   5.377   2.620   1.622 -0.9033  0.1544 -0.6742
 6265TIP3   OH240285   3.781   2.122  13.553  0.2918 -0.2618 -0.0837
 6265TIP3    H140286   3.770   2.040  13.602  0.2790  0.7926  1.7795
 6265TIP3    H240287   3.852   2.168  13.599 -0.6763  1.4009 -0.1557
 6266TIP3   OH240288   1.903   5.005   3.354  0.5100 -0.0257  0.5189
 6266TIP3    H140289   1.991   4.979   3.381  0.3939  0.2754  1.2010
 6266TIP3    H240290   1.845   4.967   3.420  0.2235  0.6982  0.6909
 6267TIP3   OH240291   5.095   4.357   0.615 -0.2739 -0.1331 -0.1152
 6267TIP3    H140292   5.165   4.359   0.681 -0.4880  0.9410  0.1004
 6267TIP3    H240293   5.098   4.444   0.576 -0.7485 -0.4685 -0.9047
 6268TIP3   OH240294   4.774   4.187  12.665  0.3956 -0.0957  0.3804
 6268TIP3    H140295   4.801   4.276  12.642  0.3835 -0.3601 -0.6868
 6268TIP3    H240296   4.806   4.132  12.594  1.5175 -1.1476  1.6380
 6269TIP3   OH240297   6.583   6.230   3.940  0.0772  0.2186 -0.3264
 6269TIP3    H140298   6.609   6.173   4.012  0.1202 -0.7490 -1.0943
 6269TIP3    H240299   6.544   6.306   3.984 -2.3356 -1.4807  0.7301
 6270TIP3   OH240300   4.189   1.508  12.247  0.4532  0.1239 -0.5374
 6270TIP3    H140301   4.162   1.416  12.251  0.7721  0.0099 -0.9104
 6270TIP3    H240302   4.129   1.548  12.185 -0.7044  0.5404  0.7950
 6271TIP3   OH240303   1.302   0.577   1.656 -0.0938 -0.8430  0.2210
 6271TIP3    H140304   1.396   0.559   1.647  0.4360 -0.2824  3.4762
 6271TIP3    H240305   1.259   0.504   1.611  1.8072 -0.5668 -2.2939
 6272TIP3   OH240306   3.295   5.995   4.106  1.1836 -0.0897 -0.7871
 6272TIP3    H140307   3.288   6.068   4.168  0.5812 -1.2333  0.5487
 6272TIP3    H240308   3.365   5.940   4.141  2.0625  0.1359 -2.1246
 6273TIP3   OH240309   4.035   6.202   6.187  0.3104  0.5549 -0.2041
 6273TIP3    H140310   4.100   6.214   6.256 -1.4199 -0.4634  1.6954
 6273TIP3    H240311   4.010   6.292   6.163 -0.1427  0.9776  1.6329
 6274TIP3   OH240312   0.414   5.288  12.107  0.4030  0.6004  0.3231
 6274TIP3    H140313   0.476   5.329  12.166  0.1176  1.0249  0.3287
 6274TIP3    H240314   0.328   5.318  12.136 -0.2675 -3.2411  3.0431
 6275TIP3   OH240315   1.877   2.199   6.169  0.5526 -0.3969  0.7509
 6275TIP3    H140316   1.856   2.106   6.165 -0.4941 -0.1345 -1.5617
 6275TIP3    H240317   1.972   2.202   6.159  0.7482 -1.2421  2.1346
 6276TIP3   OH240318   6.821   2.386   0.540  0.6725 -0.3626  0.8460
 6276TIP3    H140319   6.902   2.340   0.516  0.5347  0.5317 -1.5524
 6276TIP3    H240320   6.852   2.465   0.584  1.0213 -0.8852  1.5691
 6277TIP3   OH240321   5.488   2.722  13.712 -0.3920 -0.1733  0.5118
 6277TIP3    H140322   5.463   2.663  13.783 -0.4312  0.5246  1.0921
 6277TIP3    H240323   5.408   2.770  13.691 -0.1860  0.1891  0.5499
 6278TIP3   OH240324   2.677   5.215   0.076 -0.0201  0.1609  0.3760
 6278TIP3    H140325   2.625   5.135   0.077  1.7276 -1.0837 -0.9494
 6278TIP3    H240326   2.713   5.219  -0.012  3.0132  0.2631  1.4736
 6279TIP3   OH240327   5.938   2.129  15.913 -0.4551 -0.0896 -0.3609
 6279TIP3    H140328   5.867   2.089  15.962 -1.5865  1.7609 -0.4035
 6279TIP3    H240329   5.936   2.222  15.939  2.2483 -0.0309  0.0007
 6280TIP3   OH240330   5.914   2.180  12.694 -0.0558  0.1472 -0.1120
 6280TIP3    H140331   5.826   2.142  12.689 -0.2558  0.1681  2.3426
 6280TIP3    H240332   5.964   2.118  12.747  1.2143  0.5447 -0.7972
 6281TIP3   OH240333   6.091   0.932   4.744  0.1393 -0.0061 -0.3711
 6281TIP3    H140334   6.169   0.968   4.787 -2.0288  0.4599  3.7345
 6281TIP3    H240335   6.034   1.009   4.731 -0.5451 -0.6207 -1.0524
 6282TIP3   OH240336   2.665   4.676   4.188  0.1884 -0.6579  0.1738
 6282TIP3    H140337   2.684   4.674   4.094  0.3644  2.1623  0.0537
 6282TIP3    H240338   2.605   4.603   4.202 -0.3763 -0.7442 -2.2557
 6283TIP3   OH240339   4.314   1.459  12.986 -0.4093 -0.0697  0.3045
 6283TIP3    H140340   4.389   1.407  12.956 -1.6549 -0.8469 -1.6859
 6283TIP3    H240341   4.290   1.420  13.071 -0.9840 -2.5479 -0.8767
 6284TIP3   OH240342   1.284   4.337   2.271  0.4653  0.0134 -0.1486
 6284TIP3    H140343   1.362   4.379   2.236 -0.0658 -0.2193 -1.7417
 6284TIP3    H240344   1.301   4.243   2.261  0.6449 -0.0871  1.0557
 6285TIP3   OH240345   1.473   5.861   0.047 -0.8488 -0.2430 -0.0467
 6285TIP3    H140346   1.473   5.799   0.120  0.0302 -0.8258 -0.5360
 6285TIP3    H240347   1.550   5.916   0.062 -1.0878  0.1212 -0.1362
 6286TIP3   OH240348   2.477   0.687  16.532  0.2824  0.7891 -0.2773
 6286TIP3    H140349   2.500   0.604  16.491 -0.7776  1.1091 -1.5999
 6286TIP3    H240350   2.474   0.668  16.626  1.5899 -0.2643 -0.4194
 6287TIP3   OH240351   0.008   5.746   2.467 -0.4905 -0.2017  0.6167
 6287TIP3    H140352  -0.029   5.663   2.498 -1.7581 -1.1900 -2.9891
 6287TIP3    H240353   0.094   5.750   2.507 -1.2463 -2.1044  2.6820
 6288TIP3   OH240354   4.346   3.703  11.873 -0.0125  0.2175 -0.6114
 6288TIP3    H140355   4.348   3.630  11.811 -0.7513  0.0533 -0.4477
 6288TIP3    H240356   4.419   3.686  11.932  0.0418 -0.1966 -0.7957
 6289TIP3   OH240357   2.354   1.435   2.274  0.3112 -0.4414 -0.1795
 6289TIP3    H140358   2.275   1.468   2.316  1.1157  3.1244 -1.1340
 6289TIP3    H240359   2.425   1.457   2.334  0.9455  0.0178 -1.0744
 6290TIP3   OH240360   4.536   2.989  12.765 -0.1861  0.4381  0.9008
 6290TIP3    H140361   4.455   3.008  12.812 -0.7212  2.7328 -0.7667
 6290TIP3    H240362   4.507   2.943  12.686  0.2188  0.5510  0.6855
 6291TIP3   OH240363   1.712   0.711  15.840  0.3357 -0.3209  0.3576
 6291TIP3    H140364   1.623   0.701  15.872 -1.7717  1.4272 -4.0917
 6291TIP3    H240365   1.738   0.623  15.814 -0.1811 -0.8003  1.4203
 6292TIP3   OH240366   3.265   3.162   0.817 -0.7072  0.1303 -0.0877
 6292TIP3    H140367   3.334   3.226   0.799 -1.0183  0.6224  0.4291
 6292TIP3    H240368   3.309   3.077   0.813 -0.0188  0.4554  0.4748
 6293TIP3   OH240369   2.867   6.622  15.579  0.2703 -0.1387 -0.0766
 6293TIP3    H140370   2.820   6.672  15.512 -1.3095 -0.7934  0.4907
 6293TIP3    H240371   2.936   6.576  15.531 -0.0919  0.3318 -1.0610
 6294TIP3   OH240372   1.156   2.455  16.880 -0.1395 -0.6476  0.1862
 6294TIP3    H140373   1.215   2.446  16.805 -0.8690  0.7799 -0.5891
 6294TIP3    H240374   1.215   2.461  16.956  0.7618  1.2152 -0.6067
 6295TIP3   OH240375   1.458   1.249   0.976 -0.1420  0.2915 -0.0653
 6295TIP3    H140376   1.388   1.311   0.992  0.2256  0.2139  2.2066
 6295TIP3    H240377   1.414   1.164   0.972 -0.5557  0.5346 -2.4611
 6296TIP3   OH240378   0.985   1.750  13.442  0.0900  0.2757  0.1538
 6296TIP3    H140379   0.957   1.669  13.399 -0.7901  1.1579 -1.0312
 6296TIP3    H240380   1.080   1.745  13.443  0.0612 -0.6010 -0.2520
 6297TIP3   OH240381   0.986   1.651   0.814 -0.2359 -0.0009  0.2863
 6297TIP3    H140382   1.080   1.647   0.796 -0.5293  0.2290 -1.5499
 6297TIP3    H240383   0.979   1.676   0.905  1.4850 -0.8094  0.6713
 6298TIP3   OH240384   1.440   0.356  14.991  0.7293  0.6423 -0.5519
 6298TIP3    H140385   1.437   0.348  14.895 -1.2948  1.0013 -0.5575
 6298TIP3    H240386   1.383   0.430  15.010 -0.4517 -0.6054  1.0444
 6299TIP3   OH240387   0.654   4.828  14.966  0.7177  0.4267  0.1175
 6299TIP3    H140388   0.602   4.908  14.961  1.8078  1.1922  0.6511
 6299TIP3    H240389   0.598   4.760  14.929  0.1262  1.6067 -1.2339
 6300TIP3   OH240390   1.549   4.677   3.130  0.1135 -0.2192  0.0893
 6300TIP3    H140391   1.500   4.599   3.106  2.5502 -1.7125 -0.3408
 6300TIP3    H240392   1.537   4.737   3.057 -0.5933 -0.7508 -0.2418
 6301TIP3   OH240393   5.838   2.817   5.161 -0.2210  0.3005  0.1566
 6301TIP3    H140394   5.907   2.753   5.181  0.9592  1.6126  0.4188
 6301TIP3    H240395   5.803   2.841   5.247 -0.8954 -0.2276  0.0350
 6302TIP3   OH240396   5.491   1.732   5.626  0.2792  0.1286 -0.4329
 6302TIP3    H140397   5.401   1.757   5.606 -0.0789 -1.2034 -0.5807
 6302TIP3    H240398   5.484   1.672   5.700  0.9538 -0.7125 -1.0260
 6303TIP3   OH240399   0.170   3.688   1.677 -0.0348  0.2965  0.0609
 6303TIP3    H140400   0.171   3.783   1.669 -1.2698  0.2667 -0.8295
 6303TIP3    H240401   0.164   3.656   1.587 -1.6172 -0.5320  0.4142
 6304TIP3   OH240402   4.061   2.567  15.239  0.3029  0.3190  0.1866
 6304TIP3    H140403   4.067   2.482  15.283 -0.4312 -0.0533 -0.4049
 6304TIP3    H240404   4.152   2.598  15.233  0.6258 -0.6253  0.0230
 6305TIP3   OH240405   3.759   1.245  15.616 -0.1602  0.0547  0.5777
 6305TIP3    H140406   3.779   1.338  15.604 -2.6497  0.4332 -1.7595
 6305TIP3    H240407   3.839   1.200  15.590  0.7574  1.5363  0.7372
 6306TIP3   OH240408   3.489   4.639   2.890  0.4804 -0.8397 -0.0866
 6306TIP3    H140409   3.574   4.680   2.907 -0.3072  0.6114  0.4154
 6306TIP3    H240410   3.425   4.709   2.898 -0.5156 -1.0887 -3.8982
 6307TIP3   OH240411   2.640   0.497  13.691 -0.1925 -0.5198 -0.2715
 6307TIP3    H140412   2.583   0.523  13.764 -0.5360 -0.4002 -0.5825
 6307TIP3    H240413   2.692   0.575  13.672 -1.3949  0.0458 -1.3675
 6308TIP3   OH240414   2.744   2.744  15.870 -0.0163  0.3049  0.2815
 6308TIP3    H140415   2.838   2.751  15.886  0.3068  0.0298 -1.3037
 6308TIP3    H240416   2.717   2.664  15.915  0.5992  0.1632  0.4060
 6309TIP3   OH240417   1.471   4.612   2.645  0.3696  0.4680  0.0476
 6309TIP3    H140418   1.476   4.690   2.700 -1.6162  0.5425  0.1872
 6309TIP3    H240419   1.488   4.540   2.705  0.1485  0.6641  0.3483
 6310TIP3   OH240420   0.729   6.611   3.873  0.0174 -0.1577  0.4314
 6310TIP3    H140421   0.640   6.636   3.850 -0.0691  1.5720  2.3341
 6310TIP3    H240422   0.728   6.515   3.873 -2.5488 -0.2604  2.6236
 6311TIP3   OH240423   1.264   4.865  12.721  0.1804  0.2127 -0.7655
 6311TIP3    H140424   1.305   4.951  12.712 -1.8280  1.2594 -0.3987
 6311TIP3    H240425   1.330   4.811  12.765  0.6123  2.2714  1.2639
 6312TIP3   OH240426   4.340   2.728  14.126  0.5775  0.0119  0.1581
 6312TIP3    H140427   4.270   2.706  14.188  0.0825  0.8068 -0.0967
 6312TIP3    H240428   4.296   2.731  14.041  0.7917  1.0690  0.0719
 6313TIP3   OH240429   2.700   4.814  12.008 -0.1238  0.2479 -0.4024
 6313TIP3    H140430   2.712   4.889  11.949  1.1714 -0.3642 -0.9598
 6313TIP3    H240431   2.716   4.737  11.952 -0.2253 -0.3995  0.4406
 6314TIP3   OH240432   5.933   1.234  10.435  0.5833  0.0811 -0.1058
 6314TIP3    H140433   5.960   1.325  10.423  2.6742 -0.5801 -0.8559
 6314TIP3    H240434   5.977   1.206  10.515  0.2669 -0.3736 -0.0859
 6315TIP3   OH240435   0.182   4.972   3.121 -0.7700  0.0615  0.1365
 6315TIP3    H140436   0.146   5.052   3.158 -0.1989 -0.0155  0.9057
 6315TIP3    H240437   0.144   4.965   3.034 -0.3851  1.4731 -0.1643
 6316TIP3   OH240438   5.510   3.703   3.705 -0.0101  0.2232  0.0845
 6316TIP3    H140439   5.437   3.746   3.660  0.4931 -1.0699 -2.1581
 6316TIP3    H240440   5.482   3.698   3.796 -2.6331  0.0173 -0.6365
 6317TIP3   OH240441   5.958   3.701  15.172 -0.0462 -0.0434  0.1986
 6317TIP3    H140442   6.049   3.692  15.143 -0.0140 -2.1764  0.8170
 6317TIP3    H240443   5.962   3.766  15.242  0.5632  1.7646 -1.4276
 6318TIP3   OH240444   3.842   6.263   5.908  0.1948  0.3589  0.1486
 6318TIP3    H140445   3.748   6.245   5.905  0.0161  1.1267  0.8271
 6318TIP3    H240446   3.853   6.318   5.986  1.5043 -1.4489  1.3101
 6319TIP3   OH240447   1.552   6.297   3.376  0.7769  0.1585  0.1852
 6319TIP3    H140448   1.594   6.306   3.461  0.9632  0.1095  0.0973
 6319TIP3    H240449   1.605   6.349   3.316  0.9053 -0.1690  0.0080
 6320TIP3   OH240450   4.475   5.159   0.616  0.2598  0.4981 -0.4766
 6320TIP3    H140451   4.495   5.069   0.590 -1.1288 -0.1885  0.7029
 6320TIP3    H240452   4.488   5.210   0.537  0.4922 -0.8397 -1.3308
 6321TIP3   OH240453   2.230   5.194  16.265  0.5450  0.4059 -0.3374
 6321TIP3    H140454   2.146   5.213  16.223  0.1114  0.7463  0.6587
 6321TIP3    H240455   2.216   5.217  16.357  1.2757 -0.9133  0.1252
 6322TIP3   OH240456   3.047   3.878  14.498  0.2529  0.3769 -0.3223
 6322TIP3    H140457   3.016   3.966  14.479  1.8609  0.9913 -0.2212
 6322TIP3    H240458   3.054   3.875  14.594  0.6174  0.2886 -0.3511
 6323TIP3   OH240459   3.309   3.565   2.622 -0.1423 -0.2401  0.5829
 6323TIP3    H140460   3.272   3.484   2.586 -0.1246  0.5993 -1.4933
 6323TIP3    H240461   3.279   3.633   2.562  2.7418  0.8142  0.1772
 6324TIP3   OH240462   5.186   5.690  15.644 -0.4426  0.2213  0.4959
 6324TIP3    H140463   5.158   5.703  15.553  1.8140 -1.1361 -0.4816
 6324TIP3    H240464   5.207   5.778  15.675 -3.9899  1.1238  0.8104
 6325TIP3   OH240465   6.142   2.979  15.354  0.0220  0.0008  0.2744
 6325TIP3    H140466   6.055   3.017  15.361  1.0227  2.9613 -1.6552
 6325TIP3    H240467   6.169   2.964  15.444 -1.6956  0.9927  0.9934
 6326TIP3   OH240468   1.155   3.370   0.490 -0.5055 -0.1229  1.1510
 6326TIP3    H140469   1.209   3.443   0.459 -0.3938 -0.7177 -0.1077
 6326TIP3    H240470   1.088   3.412   0.545 -2.2910  1.3760 -1.9096
 6327TIP3   OH240471   6.184   2.430   5.653  0.4480  0.2085  0.0360
 6327TIP3    H140472   6.167   2.399   5.743 -1.5528 -0.7754 -0.6178
 6327TIP3    H240473   6.244   2.504   5.664  1.1736 -0.6103  2.0880
 6328TIP3   OH240474   1.479   1.444  12.449  0.2712  0.0279  0.2708
 6328TIP3    H140475   1.402   1.412  12.496  0.3937 -2.8978 -1.2947
 6328TIP3    H240476   1.553   1.413  12.501  0.3864 -2.4313 -1.1789
 6329TIP3   OH240477   0.322   3.798   3.685 -0.1909  0.8246 -0.3021
 6329TIP3    H140478   0.381   3.766   3.754 -0.6975 -2.4852 -1.2279
 6329TIP3    H240479   0.371   3.786   3.604 -1.8119 -1.4535 -1.0407
 6330TIP3   OH240480   0.233   5.546   4.620  0.1034  0.3627 -0.4540
 6330TIP3    H140481   0.219   5.539   4.526 -2.0465  1.5321 -0.2952
 6330TIP3    H240482   0.189   5.627   4.645  1.2006  0.4310  1.4773
 6331TIP3   OH240483   4.444   2.658  17.029  0.1548  0.1738 -0.3752
 6331TIP3    H140484   4.419   2.747  17.054 -2.9237 -0.3870 -1.0091
 6331TIP3    H240485   4.464   2.664  16.936 -1.2193  0.0767 -0.7081
 6332TIP3   OH240486   5.557   0.131   4.199  0.0314 -0.2640  0.6799
 6332TIP3    H140487   5.569   0.104   4.108  1.6750 -2.2303  1.4032
 6332TIP3    H240488   5.602   0.215   4.205  0.1791 -0.2637 -0.2529
 6333TIP3   OH240489   6.505   0.216  16.489 -0.0371  0.1059 -0.0675
 6333TIP3    H140490   6.472   0.187  16.574  0.0985 -1.2223 -0.4448
 6333TIP3    H240491   6.600   0.205  16.494 -0.0539 -0.2449 -0.4881
 6334TIP3   OH240492   1.864   3.041   1.025  0.1845  0.5228  0.5738
 6334TIP3    H140493   1.907   3.126   1.035  0.3166  0.3773  1.2283
 6334TIP3    H240494   1.785   3.048   1.078  0.6245 -0.0576  1.3296
 6335TIP3   OH240495   2.655   2.204  13.449  0.0299  0.3815 -0.5189
 6335TIP3    H140496   2.732   2.246  13.488  0.2493  0.5599 -1.1341
 6335TIP3    H240497   2.689   2.158  13.372 -0.7290  1.8879 -1.8115
 6336TIP3   OH240498   2.053   3.833   3.560  0.2562 -0.1725  0.2819
 6336TIP3    H140499   2.135   3.795   3.590  1.1139  2.0437  0.9590
 6336TIP3    H240500   2.080   3.903   3.500 -1.1074  0.8332  0.7918
 6337TIP3   OH240501   6.715   2.089   3.070 -0.0216  0.0047  0.1818
 6337TIP3    H140502   6.658   2.163   3.050  1.3242  0.9266 -0.4100
 6337TIP3    H240503   6.776   2.122   3.136  1.7088  0.0262 -1.3545
 6338TIP3   OH240504   6.816   0.180   0.246  0.0794  0.0931 -0.6650
 6338TIP3    H140505   6.776   0.267   0.237 -2.2912 -1.0671 -2.3842
 6338TIP3    H240506   6.743   0.121   0.264  1.3774 -1.7963 -1.2565
 6339TIP3   OH240507   2.725   3.889  14.872 -0.3761 -0.2393 -0.1138
 6339TIP3    H140508   2.639   3.890  14.828 -0.6559 -0.8403  0.4168
 6339TIP3    H240509   2.705   3.871  14.963  0.3025 -0.0994  0.0662
 6340TIP3   OH240510   1.854   1.207   0.172  0.3194  0.0866 -0.3000
 6340TIP3    H140511   1.942   1.171   0.172  0.8641  1.3413 -0.0061
 6340TIP3    H240512   1.810   1.166   0.098  0.1948 -2.6953  1.1781
 6341TIP3   OH240513   4.457   3.336  14.190 -0.0893 -0.6998  0.4109
 6341TIP3    H140514   4.495   3.307  14.273 -0.5331  0.4734  1.0529
 6341TIP3    H240515   4.374   3.376  14.214 -0.6322 -1.1083 -0.7133
 6342TIP3   OH240516   3.739   4.857  12.839  0.3095  0.1002 -0.5246
 6342TIP3    H140517   3.650   4.891  12.848  0.3645 -0.1463  1.4334
 6342TIP3    H240518   3.727   4.765  12.815  0.1137  0.6550 -2.7150
 6343TIP3   OH240519   3.167   2.441   4.779  0.0393 -0.1083 -0.2262
 6343TIP3    H140520   3.100   2.425   4.713 -2.0707 -1.8544  2.1501
 6343TIP3    H240521   3.141   2.524   4.821  0.6874  0.3775 -0.7670
 6344TIP3   OH240522   6.310   2.624  13.901 -0.5665  0.3330  0.3086
 6344TIP3    H140523   6.265   2.706  13.881 -1.2292 -0.0936  0.0201
 6344TIP3    H240524   6.250   2.556  13.872  0.4489 -0.2555 -0.4668
 6345TIP3   OH240525   2.230   0.458   2.227  0.1971 -0.5820 -0.0679
 6345TIP3    H140526   2.187   0.400   2.290  0.3072 -1.8113 -1.0968
 6345TIP3    H240527   2.316   0.419   2.213  1.3101  1.2716  1.1667
 6346TIP3   OH240528   0.302   0.338   3.052 -0.0397  0.1645  0.2817
 6346TIP3    H140529   0.299   0.365   2.960 -0.7732 -1.6998 -0.3011
 6346TIP3    H240530   0.266   0.411   3.101  0.0625  1.0596 -0.9476
 6347TIP3   OH240531   5.143   1.211  16.512 -0.3560  0.1358  0.0388
 6347TIP3    H140532   5.232   1.230  16.481 -0.3431  1.1503  0.6582
 6347TIP3    H240533   5.150   1.215  16.607 -1.0860  0.2905  0.0867
 6348TIP3   OH240534   4.286   4.828   0.503 -0.3529 -0.3748 -0.6188
 6348TIP3    H140535   4.377   4.858   0.498 -0.9307  1.4904 -0.6974
 6348TIP3    H240536   4.270   4.817   0.597 -0.1158 -0.4803 -0.5896
 6349TIP3   OH240537   4.202   5.428  16.881 -0.3323 -0.4979 -0.3871
 6349TIP3    H140538   4.295   5.423  16.859  0.3259  0.3396  1.9011
 6349TIP3    H240539   4.159   5.449  16.798  1.7976  1.4535 -1.1233
 6350TIP3   OH240540   2.528   4.899   1.934  0.3283 -0.3848 -0.3288
 6350TIP3    H140541   2.462   4.860   1.992 -0.1394 -0.9860 -1.2427
 6350TIP3    H240542   2.610   4.892   1.983 -0.0672 -0.8550  0.2769
 6351TIP3   OH240543   5.013   4.319  16.368  0.2619  0.0754  0.1688
 6351TIP3    H140544   5.043   4.404  16.401  0.3668  1.0869 -2.2676
 6351TIP3    H240545   4.925   4.336  16.335 -0.9616 -1.5724  2.4022
 6352TIP3   OH240546   3.902   0.021  16.465 -0.3907  0.3658  0.0625
 6352TIP3    H140547   3.950  -0.011  16.389  0.8687  0.9035  0.6054
 6352TIP3    H240548   3.812   0.033  16.434 -0.6542 -2.4442 -0.4699
 6353TIP3   OH240549   3.464   4.304  13.112 -0.5274 -0.4124 -0.5005
 6353TIP3    H140550   3.486   4.214  13.091 -0.2574 -0.8904  1.6202
 6353TIP3    H240551   3.518   4.357  13.053 -0.6061 -1.6064 -1.6868
 6354TIP3   OH240552   6.229   4.180  14.685 -0.1250 -0.8530 -0.1041
 6354TIP3    H140553   6.239   4.098  14.637  1.6529 -0.5073 -0.4114
 6354TIP3    H240554   6.238   4.248  14.618 -0.7660 -0.4012  0.2676
 6355TIP3   OH240555   4.958   5.351  15.946 -0.2200  0.0007  0.1892
 6355TIP3    H140556   4.892   5.420  15.936 -2.0842 -2.0237 -3.0277
 6355TIP3    H240557   4.914   5.282  15.995 -0.4109 -1.1779 -1.5698
 6356TIP3   OH240558   5.274   5.016   2.663  0.5026  0.6369  0.5923
 6356TIP3    H140559   5.187   5.051   2.642  1.1488  1.7497 -0.3828
 6356TIP3    H240560   5.268   4.991   2.755 -0.8585  0.6529  0.5371
 6357TIP3   OH240561   5.903   0.140  14.840 -0.0743  0.2447 -0.1837
 6357TIP3    H140562   5.904   0.090  14.758 -0.2073  1.3491 -0.8727
 6357TIP3    H240563   5.979   0.197  14.834 -1.0622  1.5728 -0.3280
 6358TIP3   OH240564   4.342   3.533   6.095  0.0372  0.4241  0.5700
 6358TIP3    H140565   4.292   3.592   6.152 -0.7633 -1.1168  1.5229
 6358TIP3    H240566   4.433   3.562   6.105 -0.1618  0.5985  2.1491
 6359TIP3   OH240567   5.358   6.798  14.125 -0.1638 -0.1704 -0.4337
 6359TIP3    H140568   5.277   6.765  14.164  1.3480 -1.5414  1.8385
 6359TIP3    H240569   5.330   6.869  14.068 -2.9465 -0.5750  0.2654
 6360TIP3   OH240570   0.063   4.258   4.995  0.0723  0.1351  0.2174
 6360TIP3    H140571   0.099   4.258   5.084 -0.9359 -0.1804  0.6422
 6360TIP3    H240572   0.106   4.332   4.952  0.5259  0.3328  0.9850
 6361TIP3   OH240573   3.972   6.308   0.253 -0.5467 -0.2640 -0.0015
 6361TIP3    H140574   4.045   6.364   0.280 -0.1071 -1.2522  0.9509
 6361TIP3    H240575   4.010   6.221   0.246 -1.3055 -0.5253 -1.0821
 6362TIP3   OH240576   6.452   2.848  15.230  0.2243  0.1822 -0.0740
 6362TIP3    H140577   6.517   2.864  15.299  0.6007  1.3432 -0.6629
 6362TIP3    H240578   6.370   2.832  15.277  0.3483  1.5417  0.6634
 6363TIP3   OH240579   6.151   5.617   5.818 -0.4775  0.8484 -0.0551
 6363TIP3    H140580   6.161   5.584   5.907  0.8599  1.4039  0.0306
 6363TIP3    H240581   6.175   5.710   5.825 -0.8953  1.0275 -0.8978
 6364TIP3   OH240582   3.327   4.996  11.857  0.3085 -0.4313 -0.6472
 6364TIP3    H140583   3.332   5.076  11.909  0.6075  0.5710 -2.1648
 6364TIP3    H240584   3.254   4.947  11.895 -0.9096  1.2862 -0.6648
 6365TIP3   OH240585   3.892   3.023  11.487 -0.4977  0.6041 -0.6792
 6365TIP3    H140586   3.932   2.990  11.407 -0.8024 -0.9290 -0.2200
 6365TIP3    H240587   3.948   3.097  11.513  1.9220 -1.2801 -0.2148
 6366TIP3   OH240588   5.436   1.288  14.668 -0.2187  0.5128 -0.5994
 6366TIP3    H140589   5.403   1.334  14.591 -0.7814  0.2568 -0.5214
 6366TIP3    H240590   5.489   1.216  14.632  1.3394  1.6781 -0.7092
 6367TIP3   OH240591   1.046   2.822   5.406 -0.1872 -0.3042  0.2626
 6367TIP3    H140592   1.032   2.740   5.453  1.2689 -1.0345 -0.5141
 6367TIP3    H240593   0.969   2.831   5.351  0.0610 -1.6667 -0.3507
 6368TIP3   OH240594   0.671   1.755   0.939 -0.1408  0.7010  0.2427
 6368TIP3    H140595   0.608   1.767   1.010  1.3958 -2.0777  2.2615
 6368TIP3    H240596   0.625   1.701   0.875 -0.6226  0.8193  0.4857
 6369TIP3   OH240597   0.170   4.694  15.109  0.5648 -0.2538 -0.2834
 6369TIP3    H140598   0.139   4.780  15.138  1.0716 -0.0070 -0.4605
 6369TIP3    H240599   0.149   4.635  15.181  3.5255  0.6713  1.5090
 6370TIP3   OH240600   3.670   6.785   1.386  0.1604  0.3075 -0.3187
 6370TIP3    H140601   3.641   6.694   1.396 -0.3907  0.4963 -0.1444
 6370TIP3    H240602   3.621   6.833   1.452  1.2930  0.5650  0.3481
 6371TIP3   OH240603   1.045   6.099  10.852 -0.1009  0.4410  0.0440
 6371TIP3    H140604   1.054   6.178  10.800  0.2069  1.0619  1.0014
 6371TIP3    H240605   1.067   6.028  10.793 -1.5410  0.9606 -1.1664
 6372TIP3   OH240606   6.632   2.509   6.636  0.0378 -0.4385 -0.5291
 6372TIP3    H140607   6.699   2.462   6.585 -0.9396 -0.0841 -2.2150
 6372TIP3    H240608   6.649   2.601   6.617 -0.8646 -0.3437 -0.9094
 6373TIP3   OH240609   3.438   2.884   2.682  0.2228 -0.0059  0.5736
 6373TIP3    H140610   3.455   2.942   2.755 -1.0063 -0.0036  0.8801
 6373TIP3    H240611   3.414   2.942   2.610 -1.9351 -0.1207  1.1384
 6374TIP3   OH240612   5.462   3.673   4.319  0.1142  0.5286 -0.5365
 6374TIP3    H140613   5.391   3.706   4.264  0.1046  2.7077  0.6756
 6374TIP3    H240614   5.420   3.653   4.403  0.7989  1.1864 -0.0254
 6375TIP3   OH240615   3.886   5.993   5.982 -0.1655 -0.0536 -0.1886
 6375TIP3    H140616   3.908   5.987   6.075 -0.7716 -0.4048 -0.0684
 6375TIP3    H240617   3.861   6.085   5.969  1.1736  0.3220 -0.2921
 6376TIP3   OH240618   6.131   6.338   5.752  0.5708 -0.4798 -0.2643
 6376TIP3    H140619   6.181   6.369   5.827  1.1905 -0.7078 -0.5774
 6376TIP3    H240620   6.108   6.248   5.774  1.9054 -1.0048 -0.9005
 6377TIP3   OH240621   6.097   2.245   4.297 -0.2562  0.1483  0.4049
 6377TIP3    H140622   6.063   2.314   4.355 -1.6970 -0.8641  0.8468
 6377TIP3    H240623   6.049   2.166   4.325 -0.1949 -0.5863 -1.4668
 6378TIP3   OH240624   0.379   5.982  15.699 -0.0351  0.2511  0.5705
 6378TIP3    H140625   0.455   5.951  15.650 -2.2370 -1.0794 -2.2633
 6378TIP3    H240626   0.334   5.903  15.727 -0.5638  1.0177  2.0474
 6379TIP3   OH240627   0.553   1.602   5.755 -0.0881  0.0430  0.0689
 6379TIP3    H140628   0.482   1.638   5.808 -0.6597 -0.1133 -0.5608
 6379TIP3    H240629   0.623   1.584   5.817 -0.2573  1.0617  0.5721
 6380TIP3   OH240630   2.745   1.664   5.576 -0.2428 -0.4634 -0.2027
 6380TIP3    H140631   2.708   1.746   5.611 -0.8478 -1.6380  2.0973
 6380TIP3    H240632   2.674   1.601   5.585  0.4502 -1.4227 -1.2988
 6381TIP3   OH240633   4.812   0.154  11.408  0.2438  0.6995  0.2478
 6381TIP3    H140634   4.811   0.124  11.317  0.9918  0.2465  0.3813
 6381TIP3    H240635   4.724   0.135  11.441 -0.0778  1.0071 -0.4176
 6382TIP3   OH240636   1.129   5.072  10.101 -0.3337  0.3884  0.2020
 6382TIP3    H140637   1.161   5.154  10.140 -0.1726  0.2532  0.3528
 6382TIP3    H240638   1.154   5.079  10.008  2.0844 -0.6547  0.7130
 6383TIP3   OH240639   1.116   3.824   3.223  0.2155  0.1741 -0.2711
 6383TIP3    H140640   1.086   3.829   3.314 -0.4288  0.2261 -0.4867
 6383TIP3    H240641   1.097   3.734   3.197 -1.2693  0.6417 -0.9217
 6384TIP3   OH240642   3.012   2.661   0.833 -0.3822  0.1324  0.2208
 6384TIP3    H140643   2.953   2.596   0.873 -0.2947  0.4754  0.9285
 6384TIP3    H240644   2.954   2.732   0.805 -0.4460 -0.1172 -0.2729
 6385TIP3   OH240645   4.876   4.137   4.584  0.4126 -0.3514 -0.6410
 6385TIP3    H140646   4.814   4.078   4.540 -1.1586  2.3229 -2.2658
 6385TIP3    H240647   4.847   4.139   4.675  0.9368 -2.5332 -0.3719
 6386TIP3   OH240648   6.751   0.030   4.860  0.0997  0.9461  0.0979
 6386TIP3    H140649   6.725   0.071   4.778 -0.9746  1.2232  0.5550
 6386TIP3    H240650   6.782   0.103   4.914 -0.9869  1.0652  0.5968
 6387TIP3   OH240651   6.359   4.235   6.243  0.7213 -0.1671  0.2545
 6387TIP3    H140652   6.275   4.280   6.256  1.5231  1.1952  0.9335
 6387TIP3    H240653   6.339   4.143   6.255 -0.4344  0.2393  1.7809
 6388TIP3   OH240654   5.918   3.672  13.268 -0.2615 -0.1494  0.1194
 6388TIP3    H140655   5.849   3.668  13.334  0.0925 -1.3800  0.4504
 6388TIP3    H240656   5.884   3.622  13.194  0.1699 -0.5823  0.2037
 6389TIP3   OH240657   3.066   4.676  12.676 -0.6006  0.5662 -0.0667
 6389TIP3    H140658   3.087   4.725  12.755 -0.7749 -1.4744  1.3214
 6389TIP3    H240659   3.151   4.647  12.642 -0.4959  1.7912 -0.9005
 6390TIP3   OH240660   1.402   4.718  13.338 -0.4571 -0.3431 -0.2668
 6390TIP3    H140661   1.381   4.737  13.247 -1.2295 -1.0251 -0.2418
 6390TIP3    H240662   1.318   4.713  13.382 -0.0579  0.7610  0.6641
 6391TIP3   OH240663   2.268   0.677  10.257 -0.1109 -0.1572  0.2000
 6391TIP3    H140664   2.277   0.605  10.320 -1.9953 -1.5926 -1.0625
 6391TIP3    H240665   2.352   0.678  10.211 -0.6719 -2.9718 -1.0977
 6392TIP3   OH240666   4.728   6.422   3.904  1.0614 -0.4519 -0.1051
 6392TIP3    H140667   4.637   6.439   3.928  0.4280 -2.7836 -0.6087
 6392TIP3    H240668   4.754   6.349   3.959  1.8677 -1.3004 -1.5516
 6393TIP3   OH240669   2.866   5.205  13.695 -0.4673  0.4146  0.0435
 6393TIP3    H140670   2.852   5.209  13.600 -2.6795  0.5005  0.3159
 6393TIP3    H240671   2.873   5.111  13.714 -2.2701  0.2230  0.0031
 6394TIP3   OH240672   6.214   2.965   2.766  0.6839  0.2303  0.7825
 6394TIP3    H140673   6.246   2.939   2.680 -0.7816 -0.0330  0.2835
 6394TIP3    H240674   6.167   2.887   2.799 -1.2166  1.2179  0.5484
 6395TIP3   OH240675   0.302   4.601   5.249  0.1061  0.3158  0.0687
 6395TIP3    H140676   0.339   4.686   5.274  0.0132  0.8111 -1.3757
 6395TIP3    H240677   0.373   4.538   5.262  0.0316  0.5095  1.6096
 6396TIP3   OH240678   0.347   2.138   1.191  0.5949  0.0800  0.3033
 6396TIP3    H140679   0.308   2.139   1.103 -1.0177  3.3324  0.9133
 6396TIP3    H240680   0.284   2.090   1.244 -0.4926  1.5574  0.4099
 6397TIP3   OH240681   1.894   5.240   0.753 -0.0237  0.5904 -0.4666
 6397TIP3    H140682   1.966   5.241   0.817  0.8624 -0.7167 -1.4017
 6397TIP3    H240683   1.857   5.328   0.759  2.6542  1.8869 -1.0330
 6398TIP3   OH240684   5.444   3.245   2.055  0.3547 -0.1003  0.3914
 6398TIP3    H140685   5.477   3.156   2.040  3.7347  1.3059 -1.5896
 6398TIP3    H240686   5.383   3.261   1.983 -1.5013 -1.2202  1.6181
 6399TIP3   OH240687   5.892   6.624   5.932 -0.1429  0.3002 -0.8894
 6399TIP3    H140688   5.876   6.641   6.025 -0.7889  0.2956 -0.9928
 6399TIP3    H240689   5.986   6.639   5.921  0.0133 -0.0531 -0.1639
 6400TIP3   OH240690   2.727   1.179  13.130 -0.0265 -0.1235  1.0605
 6400TIP3    H140691   2.720   1.244  13.199  1.0226  2.5998 -1.2108
 6400TIP3    H240692   2.643   1.183  13.084 -0.0955 -0.6649  1.1353
 6401TIP3   OH240693   3.004   4.411   1.396 -0.1859 -0.2488 -0.4428
 6401TIP3    H140694   3.078   4.365   1.356  0.9102  0.6100  0.4987
 6401TIP3    H240695   3.018   4.503   1.372  0.0163  0.1586  1.1272
 6402TIP3   OH240696   1.918   3.860   0.819 -0.1299 -0.7649 -0.6492
 6402TIP3    H140697   1.948   3.932   0.763 -0.5868 -0.2144 -0.2015
 6402TIP3    H240698   1.824   3.873   0.826 -0.0863 -0.8675  0.1951
 6403TIP3   OH240699   2.319   5.568  12.550 -0.7535  0.3547  0.1743
 6403TIP3    H140700   2.408   5.603  12.553 -0.9450  0.8888 -0.2395
 6403TIP3    H240701   2.331   5.473  12.551 -0.1859  0.4221  0.2460
 6404TIP3   OH240702   4.886   6.051   0.901  0.5037 -0.1215  0.3026
 6404TIP3    H140703   4.853   5.966   0.929  1.9798 -0.7090  0.3420
 6404TIP3    H240704   4.811   6.093   0.860 -1.1844 -0.0863  3.1453
 6405TIP3   OH240705   2.084   1.850   3.156 -0.4669  0.1990  0.2451
 6405TIP3    H140706   2.118   1.888   3.074  0.4923 -1.2053 -0.0444
 6405TIP3    H240707   2.034   1.921   3.196 -0.5555  1.0732 -1.3256
 6406TIP3   OH240708   0.142   5.714  12.254 -0.2758  0.5419  0.5542
 6406TIP3    H140709   0.153   5.715  12.349  2.6749  0.6866  0.2973
 6406TIP3    H240710   0.188   5.793  12.224  2.6304 -1.6131 -1.2136
 6407TIP3   OH240711   3.822   3.842   5.440 -0.0808  0.1437 -0.1707
 6407TIP3    H140712   3.876   3.771   5.476  0.0732  0.6828  0.6846
 6407TIP3    H240713   3.739   3.799   5.420 -0.1839 -0.1879  0.8680
 6408TIP3   OH240714   1.961   0.756   5.350  0.9346 -0.1338 -0.2527
 6408TIP3    H140715   2.010   0.677   5.373  0.6955 -0.4775 -0.8802
 6408TIP3    H240716   1.933   0.793   5.433  0.0444 -1.3594  0.0204
 6409TIP3   OH240717   3.443   2.064   1.055 -0.2870  0.5680 -0.4794
 6409TIP3    H140718   3.481   1.989   1.011 -0.0346  0.6690 -0.4344
 6409TIP3    H240719   3.403   2.116   0.985 -1.8639 -0.4029 -0.3469
 6410TIP3   OH240720   6.365   5.547  11.805  0.3969 -0.0101 -0.2604
 6410TIP3    H140721   6.292   5.596  11.767  0.2715  0.7917  0.9680
 6410TIP3    H240722   6.339   5.455  11.795 -0.3229  0.2370 -0.7297
 6411TIP3   OH240723   3.516   4.851  15.567 -0.0195 -0.0230  0.2826
 6411TIP3    H140724   3.438   4.876  15.518  0.2259 -0.2456 -0.2375
 6411TIP3    H240725   3.556   4.934  15.594  0.6659  0.1862 -1.2223
 6412TIP3   OH240726   6.799   1.498  12.839  1.1610  0.5258 -0.4071
 6412TIP3    H140727   6.860   1.489  12.766  0.2333  0.1795 -1.1723
 6412TIP3    H240728   6.722   1.540  12.799  0.3106 -0.4464  0.1776
 6413TIP3   OH240729   5.380   3.887  13.652 -0.7983  0.1274  0.0690
 6413TIP3    H140730   5.431   3.969  13.643 -2.5130  1.3175  0.7304
 6413TIP3    H240731   5.407   3.852  13.737  1.1914 -0.9580 -0.9255
 6414TIP3   OH240732   6.263   0.626   2.604  0.1275 -0.3688 -0.2889
 6414TIP3    H140733   6.180   0.664   2.574 -0.1904 -0.1943  0.7565
 6414TIP3    H240734   6.304   0.592   2.525 -1.4226 -1.4030 -0.6859
 6415TIP3   OH240735   6.661   1.327  11.971  0.1237 -0.1078 -0.1821
 6415TIP3    H140736   6.712   1.363  12.044 -0.5005  1.4554 -0.4643
 6415TIP3    H240737   6.577   1.373  11.976 -1.1661 -2.3597  0.0584
 6416TIP3   OH240738   0.737   5.459  15.586  0.1090  0.2078 -0.4182
 6416TIP3    H140739   0.820   5.502  15.606  0.4054 -0.8112  0.6410
 6416TIP3    H240740   0.671   5.516  15.625  0.2797  1.0203 -1.2636
 6417TIP3   OH240741   3.290   3.678   4.307  0.3294  0.0616 -0.0509
 6417TIP3    H140742   3.281   3.684   4.212  1.3296 -0.4013 -0.1844
 6417TIP3    H240743   3.325   3.763   4.334  0.7463 -0.0622 -0.1920
 6418TIP3   OH240744   2.763   1.799  12.646 -0.3222 -0.3024 -0.0603
 6418TIP3    H140745   2.690   1.850  12.609  0.1237  0.4802  0.1143
 6418TIP3    H240746   2.795   1.747  12.572 -0.0313  0.5626 -0.5582
 6419TIP3   OH240747   4.102   2.571   4.664  1.0856  0.0913  0.1192
 6419TIP3    H140748   4.110   2.512   4.739 -0.7379 -0.3127  0.0538
 6419TIP3    H240749   4.077   2.514   4.591 -0.9523  0.9143  0.1050
 6420TIP3   OH240750   3.465   1.760   0.553  1.0271  0.2260 -0.1103
 6420TIP3    H140751   3.522   1.788   0.481  1.3129 -0.0412  0.0109
 6420TIP3    H240752   3.449   1.840   0.603 -0.6556  0.8093 -1.4751
 6421TIP3   OH240753   2.102   1.057   0.863  0.1532 -1.0916 -0.1740
 6421TIP3    H140754   2.088   0.962   0.856 -1.4391 -0.9384  0.3659
 6421TIP3    H240755   2.107   1.087   0.772 -0.3845 -1.5786 -0.3745
 6422TIP3   OH240756   6.480   0.702   5.285 -0.2042  0.2360 -0.4060
 6422TIP3    H140757   6.551   0.640   5.300  0.5595  1.0728 -0.4202
 6422TIP3    H240758   6.418   0.655   5.230  1.0991 -0.0242 -1.7319
 6423TIP3   OH240759   5.481   4.267  15.257  0.7495 -0.6656  0.6575
 6423TIP3    H140760   5.567   4.298  15.287 -0.8658  3.7066  1.4483
 6423TIP3    H240761   5.444   4.223  15.332  1.5589 -0.8996  0.9343
 6424TIP3   OH240762   2.469   0.405   2.928 -0.4006 -0.5935  0.5877
 6424TIP3    H140763   2.510   0.416   3.014 -1.0872  1.1826  0.7176
 6424TIP3    H240764   2.537   0.430   2.866 -0.8274  1.1181  0.7598
 6425TIP3   OH240765   2.121   2.108  15.425  0.3561  0.2870  0.1706
 6425TIP3    H140766   2.203   2.152  15.449  0.4920  0.0797  0.0849
 6425TIP3    H240767   2.123   2.104  15.330  0.3174  0.1427  0.1755
 6426TIP3   OH240768   4.861   0.324   2.277  0.3024  0.0702  0.3177
 6426TIP3    H140769   4.923   0.306   2.207 -1.0174  0.6052 -1.0413
 6426TIP3    H240770   4.914   0.325   2.357  1.6805 -1.5892 -0.5179
 6427TIP3   OH240771   4.373   0.180   2.054 -1.3880  0.0788 -0.5909
 6427TIP3    H140772   4.462   0.148   2.061 -1.6566 -0.8688 -1.3632
 6427TIP3    H240773   4.336   0.133   1.980 -3.4722 -1.7721  1.4697
 6428TIP3   OH240774   4.808   4.765  12.312  0.5174  0.1809 -0.0982
 6428TIP3    H140775   4.813   4.859  12.291 -0.0907  0.4108  0.7574
 6428TIP3    H240776   4.782   4.762  12.404 -2.8691 -0.8327 -0.9658
 6429TIP3   OH240777   0.292   5.310  13.589  0.5285 -0.7833 -0.0346
 6429TIP3    H140778   0.303   5.263  13.671 -0.6293 -0.8630  0.0891
 6429TIP3    H240779   0.212   5.275  13.550  0.7056 -0.2968 -0.8895
 6430TIP3   OH240780   5.827   2.380  16.372  0.2995 -0.1740  0.3812
 6430TIP3    H140781   5.884   2.345  16.441 -1.0577 -2.1401  0.5909
 6430TIP3    H240782   5.753   2.418  16.419  0.6617  0.9441  0.0659
 6431TIP3   OH240783   1.704   3.717   1.215 -0.1592 -0.2479  0.5669
 6431TIP3    H140784   1.768   3.729   1.145  1.8345 -1.6260  2.0666
 6431TIP3    H240785   1.727   3.781   1.281 -0.8601 -0.2122  0.7905
 6432TIP3   OH240786   5.949   5.320   3.626 -0.0010  0.3102 -0.1788
 6432TIP3    H140787   5.877   5.383   3.625 -1.0372 -0.8225 -0.7749
 6432TIP3    H240788   5.980   5.318   3.535 -0.7460 -0.8401 -0.4287
 6433TIP3   OH240789   4.377   2.299  12.664 -0.1176 -0.0779 -0.3982
 6433TIP3    H140790   4.325   2.379  12.671 -1.6340 -1.1620  2.2259
 6433TIP3    H240791   4.335   2.250  12.593 -0.6760  0.4321 -0.4336
 6434TIP3   OH240792   3.737   3.307  14.683  0.1321  0.5457 -0.0823
 6434TIP3    H140793   3.766   3.267  14.764 -1.7867 -1.2518 -0.2101
 6434TIP3    H240794   3.806   3.370  14.662  1.1993  0.3052  2.3447
 6435TIP3   OH240795   3.646   6.563   1.644 -0.0580 -0.1832 -0.0628
 6435TIP3    H140796   3.703   6.520   1.581  0.6368  0.7973 -0.1208
 6435TIP3    H240797   3.569   6.507   1.649  1.0369 -1.7332  0.2743
 6436TIP3   OH240798   5.137   2.497   5.627 -0.4769  0.2329 -0.3289
 6436TIP3    H140799   5.222   2.525   5.662 -0.4995  0.2641 -0.2986
 6436TIP3    H240800   5.075   2.561   5.663 -0.7429 -0.6925  0.9330
 6437TIP3   OH240801   4.361   2.162   6.639 -0.0066 -0.0847  0.3723
 6437TIP3    H140802   4.313   2.245   6.646 -1.3568 -0.7317 -0.7549
 6437TIP3    H240803   4.304   2.106   6.586  0.8743 -1.7423  1.1158
 6438TIP3   OH240804   0.927   6.062   2.165 -0.1947  0.3583  0.2563
 6438TIP3    H140805   0.835   6.086   2.178 -0.1075  0.7045  0.2407
 6438TIP3    H240806   0.972   6.146   2.154 -0.1759  0.1268 -1.8275
 6439TIP3   OH240807   5.353   5.364   5.503  0.0261 -0.2548  0.0658
 6439TIP3    H140808   5.423   5.428   5.517  1.5226 -2.2378  2.8377
 6439TIP3    H240809   5.373   5.324   5.419  1.6103  0.0067  0.2858
 6440TIP3   OH240810   3.809   6.113  16.471 -0.2260 -0.0649  0.1956
 6440TIP3    H140811   3.792   6.122  16.564 -0.8825  0.5337  0.0253
 6440TIP3    H240812   3.835   6.021  16.459 -0.5616 -0.2484  0.8921
 6441TIP3   OH240813   0.558   4.644  15.598  0.5213 -0.7378 -0.7808
 6441TIP3    H140814   0.545   4.660  15.691  1.0222 -0.0803 -0.8197
 6441TIP3    H240815   0.652   4.629  15.589  0.3593 -1.6247 -1.0618
 6442TIP3   OH240816   6.521   4.893  13.986  0.1150 -0.3254 -0.8220
 6442TIP3    H140817   6.607   4.910  13.946 -0.2325 -0.2388 -1.5402
 6442TIP3    H240818   6.482   4.979  13.997 -0.3534 -0.4366 -1.5677
 6443TIP3   OH240819   1.916   3.043  11.462 -0.3959 -0.5774  0.6061
 6443TIP3    H140820   1.850   3.085  11.407  0.2955  0.5797  0.6270
 6443TIP3    H240821   1.866   3.005  11.534 -1.1136 -0.3822  0.2247
 6444TIP3   OH240822   2.785   6.778   6.264 -0.1628 -0.2251  0.0442
 6444TIP3    H140823   2.743   6.693   6.272 -0.6664  0.0855  0.8011
 6444TIP3    H240824   2.833   6.789   6.346  0.0056  0.1670 -0.1018
 6445TIP3   OH240825   6.453   4.359  16.416 -0.2256 -0.5719 -0.2690
 6445TIP3    H140826   6.490   4.440  16.379  0.9578 -0.7504  0.4765
 6445TIP3    H240827   6.445   4.301  16.340 -1.8028  0.4581 -0.9560
 6446TIP3   OH240828   2.421   3.125  14.478  0.5969  0.5677  0.0738
 6446TIP3    H140829   2.420   3.067  14.402  1.1137  0.9439 -0.2325
 6446TIP3    H240830   2.329   3.142  14.498  0.4161 -0.8041  0.5277
 6447TIP3   OH240831   0.862   0.402  11.980  0.0099  0.2220  0.0859
 6447TIP3    H140832   0.787   0.450  11.945  0.8307  1.7513  0.3558
 6447TIP3    H240833   0.868   0.429  12.071  1.1717  0.5108 -0.0608
 6448TIP3   OH240834   1.799   2.461  16.606 -0.1851 -0.3717  0.1106
 6448TIP3    H140835   1.852   2.420  16.538  0.6790 -0.9065  1.0836
 6448TIP3    H240836   1.817   2.410  16.685 -0.8874  0.4522  0.8241
 6449TIP3   OH240837   3.335   6.683  11.144 -0.3425  0.1079  0.0055
 6449TIP3    H140838   3.247   6.718  11.161 -0.3415 -0.1863  0.6469
 6449TIP3    H240839   3.322   6.588  11.137 -0.2078  0.1411 -0.8139
 6450TIP3   OH240840   3.281   1.064   3.155  0.4882  0.2351 -0.2268
 6450TIP3    H140841   3.244   0.997   3.098  1.2296  0.4605 -0.9979
 6450TIP3    H240842   3.348   1.107   3.101  0.6942  0.9459  0.5738
 6451TIP3   OH240843   4.588   2.897   2.308  0.2836  0.5244 -0.3517
 6451TIP3    H140844   4.613   2.989   2.320  1.0851  0.1475  1.1041
 6451TIP3    H240845   4.560   2.892   2.217 -0.2843  2.3281 -0.3178
 6452TIP3   OH240846   4.141   1.354  10.517 -0.1482  0.1412 -1.0668
 6452TIP3    H140847   4.084   1.383  10.446 -1.1525 -0.2921 -0.4531
 6452TIP3    H240848   4.132   1.423  10.584 -1.0797 -0.6166 -0.3850
 6453TIP3   OH240849   5.333   1.913  11.927  0.1179 -0.2495 -0.4878
 6453TIP3    H140850   5.309   1.820  11.932 -1.4304  0.1826  0.5608
 6453TIP3    H240851   5.382   1.929  12.007  2.3136 -0.6279 -1.6693
 6454TIP3   OH240852   1.478   5.225   1.347  0.2029 -0.0502 -0.2034
 6454TIP3    H140853   1.551   5.263   1.299  0.9825  0.0831  1.0265
 6454TIP3    H240854   1.457   5.289   1.415  0.4507 -1.0356  0.8594
 6455TIP3   OH240855   6.468   5.286  13.096 -0.5132 -0.7044 -0.4188
 6455TIP3    H140856   6.553   5.248  13.075  0.5809  1.4279 -0.0999
 6455TIP3    H240857   6.414   5.211  13.120  1.3076 -2.1093 -0.4879
 6456TIP3   OH240858   2.030   1.448  15.138 -0.3207  0.1355 -0.0792
 6456TIP3    H140859   1.952   1.394  15.132 -0.3991 -0.1314  2.2350
 6456TIP3    H240860   2.078   1.431  15.057 -1.0606 -2.2624 -0.0863
 6457TIP3   OH240861   1.049   1.246  14.453  0.8005 -0.2123  0.0981
 6457TIP3    H140862   0.962   1.279  14.430  0.9152 -0.4986 -0.8133
 6457TIP3    H240863   1.070   1.183  14.383  0.9142 -1.6316  1.3462
 6458TIP3   OH240864   4.935   2.443   2.657  0.1250 -0.2606 -0.6321
 6458TIP3    H140865   4.917   2.427   2.750  0.9669  0.7818 -0.2731
 6458TIP3    H240866   4.990   2.369   2.630  0.7755 -0.0180 -0.0058
 6459TIP3   OH240867   1.856   1.894   3.428  0.2712 -0.0371  0.0605
 6459TIP3    H140868   1.838   1.983   3.397 -0.3477 -0.3910 -0.6182
 6459TIP3    H240869   1.886   1.906   3.518  0.7614  0.9016 -0.2134
 6460TIP3   OH240870   0.063   5.872  16.066 -0.2988  0.3568  0.3605
 6460TIP3    H140871   0.112   5.952  16.086 -1.1953  1.7765 -2.5197
 6460TIP3    H240872  -0.027   5.893  16.089 -0.4905  0.0512 -0.1080
 6461TIP3   OH240873   5.542   1.799  14.323 -0.1204 -0.3164  0.3604
 6461TIP3    H140874   5.501   1.751  14.395 -2.1553 -2.2511 -1.9273
 6461TIP3    H240875   5.615   1.846  14.364 -3.1126  1.4160  4.2676
 6462TIP3   OH240876   1.884   1.571   1.340  0.1605 -0.4388  0.6646
 6462TIP3    H140877   1.865   1.609   1.254  0.6827 -0.3125  0.6025
 6462TIP3    H240878   1.802   1.580   1.388 -0.1835 -0.6429  0.1320
 6463TIP3   OH240879   6.105   3.159  15.828 -0.3669 -0.0872 -0.4387
 6463TIP3    H140880   6.011   3.150  15.842 -0.2229 -1.4976 -0.2243
 6463TIP3    H240881   6.144   3.120  15.906  0.4138  1.7753  0.1643
 6464TIP3   OH240882   6.029   4.287  10.855  0.4056  0.2584 -0.0576
 6464TIP3    H140883   5.941   4.283  10.816  0.8000 -0.7249 -0.9125
 6464TIP3    H240884   6.075   4.353  10.803  0.6281 -0.3470 -0.6569
 6465TIP3   OH240885   4.874   3.825   1.211  0.5650  0.1954 -1.0729
 6465TIP3    H140886   4.967   3.814   1.190  0.2029 -0.4012 -2.4612
 6465TIP3    H240887   4.835   3.741   1.188 -0.3557  0.5122 -0.6872
 6466TIP3   OH240888   4.677   5.046  12.935 -0.0316  0.0548  0.4369
 6466TIP3    H140889   4.673   5.009  13.023  1.8499 -0.6814  0.2402
 6466TIP3    H240890   4.657   5.139  12.948 -0.1970 -0.1224  1.5623
 6467TIP3   OH240891   3.522   0.125  12.000  0.3888  0.4894 -0.0567
 6467TIP3    H140892   3.616   0.138  11.990  0.5281  0.3201  0.9021
 6467TIP3    H240893   3.511   0.030  12.004  0.2723  0.5228  0.5669
 6468TIP3   OH240894   1.756   0.050  11.302  0.3833  0.5430  0.0436
 6468TIP3    H140895   1.769   0.014  11.389  1.6534  0.4203 -0.1742
 6468TIP3    H240896   1.729  -0.025  11.248  0.0928  0.5194  0.2226
 6469TIP3   OH240897   5.643   0.833  12.794 -0.0249  0.1793 -0.2371
 6469TIP3    H140898   5.723   0.860  12.840  0.0800 -0.2642 -0.1508
 6469TIP3    H240899   5.607   0.914  12.759 -0.5590  0.6636  1.3196
 6470TIP3   OH240900   0.796   3.273   5.791 -0.2553  0.1671 -0.0139
 6470TIP3    H140901   0.833   3.186   5.779  0.9737  0.6646  0.0114
 6470TIP3    H240902   0.851   3.330   5.737 -0.2179  1.1072  0.9735
 6471TIP3   OH240903   5.504   0.380  12.454  0.2107 -0.1400 -0.7682
 6471TIP3    H140904   5.501   0.456  12.396 -1.5052  0.0103 -0.5209
 6471TIP3    H240905   5.413   0.353  12.463  0.5861 -0.9997  0.7787
 6472TIP3   OH240906   6.764   6.712  16.548 -0.0666  0.1780 -0.0523
 6472TIP3    H140907   6.760   6.688  16.456 -1.2577  0.0533  0.0057
 6472TIP3    H240908   6.834   6.659  16.585  1.3622  1.2311 -1.1503
 6473TIP3   OH240909   2.208   5.677  15.173 -0.1052  0.1904  0.3190
 6473TIP3    H140910   2.293   5.675  15.219 -0.0437 -1.1500  0.1987
 6473TIP3    H240911   2.231   5.690  15.081 -0.1041  0.9215  0.4193
 6474TIP3   OH240912   4.285   3.693  13.441 -0.4805 -0.1033  0.2870
 6474TIP3    H140913   4.256   3.732  13.524 -1.3763 -0.1524  0.0083
 6474TIP3    H240914   4.294   3.767  13.382  3.8473  0.4911  1.3570
 6475TIP3   OH240915   6.639   5.682   5.098  0.0135  0.4266 -0.0712
 6475TIP3    H140916   6.691   5.757   5.128 -0.3240  0.4799  0.3847
 6475TIP3    H240917   6.704   5.619   5.067  0.2831  1.0804 -0.8769
 6476TIP3   OH240918   4.863   2.112  16.517  0.1303  0.4758 -1.1007
 6476TIP3    H140919   4.844   2.090  16.608 -0.6158  2.5905 -0.7017
 6476TIP3    H240920   4.879   2.206  16.518  0.7221  0.4337 -3.0803
 6477TIP3   OH240921   1.681   4.857  15.190 -0.0617 -0.3050  0.1969
 6477TIP3    H140922   1.629   4.934  15.168 -0.9077 -0.7291  0.6606
 6477TIP3    H240923   1.724   4.881  15.273  1.1635  0.3540 -0.5944
 6478TIP3   OH240924   4.033   6.143  13.380 -0.2002 -0.5175  0.5639
 6478TIP3    H140925   3.939   6.158  13.371 -0.2797 -1.8286 -1.3449
 6478TIP3    H240926   4.062   6.118  13.293  1.5492 -2.1389  1.5348
 6479TIP3   OH240927   5.394   0.917  15.342 -0.0639  0.3252  0.3248
 6479TIP3    H140928   5.368   0.902  15.251  1.2255 -0.0833  0.0074
 6479TIP3    H240929   5.488   0.936  15.338 -0.4946  3.1041  1.2903
 6480TIP3   OH240930   5.254   1.902  13.936 -0.0416  0.0696 -0.2033
 6480TIP3    H140931   5.298   1.823  13.905  0.1594  0.4926 -1.0130
 6480TIP3    H240932   5.233   1.883  14.027  0.0537 -0.8986 -0.3711
 6481TIP3   OH240933   3.955   0.126  11.779  0.0254 -0.2911 -0.1799
 6481TIP3    H140934   3.939   0.181  11.703 -0.7489  1.9966  1.5401
 6481TIP3    H240935   4.038   0.081  11.759  1.0223  1.9389 -1.4387
 6482TIP3   OH240936   6.517   3.543   5.916 -0.3459  0.2281 -0.0261
 6482TIP3    H140937   6.532   3.590   5.998 -1.5648  0.0840  0.2971
 6482TIP3    H240938   6.602   3.543   5.872 -0.5729  4.2293 -0.8371
 6483TIP3   OH240939   4.263   3.605   4.610 -0.4789 -0.3454 -0.1315
 6483TIP3    H140940   4.310   3.583   4.530 -1.3502 -0.9398 -0.4894
 6483TIP3    H240941   4.330   3.642   4.668  0.1307  0.2489 -1.1847
 6484TIP3   OH240942   1.967   3.096  16.496 -0.4356  0.5577  0.2236
 6484TIP3    H140943   1.997   3.148  16.420  0.3040 -2.7602 -1.9609
 6484TIP3    H240944   1.880   3.065  16.471 -0.2463 -0.4565  0.7793
 6485TIP3   OH240945   6.470   4.588   3.612 -0.0939  0.0030 -0.3184
 6485TIP3    H140946   6.535   4.630   3.668 -0.7391 -0.3959  0.7531
 6485TIP3    H240947   6.520   4.555   3.537  0.8564  0.1146  0.2582
 6486TIP3   OH240948   3.364   4.456  15.128  0.2365 -0.5158  0.3614
 6486TIP3    H140949   3.345   4.397  15.054 -0.4442  0.2123 -0.0551
 6486TIP3    H240950   3.452   4.489  15.109 -0.3032  0.4205 -0.6690
 6487TIP3   OH240951   2.447   3.878  14.287 -0.0205 -0.3018  0.6761
 6487TIP3    H140952   2.441   3.971  14.311 -0.1522  0.6467 -2.5656
 6487TIP3    H240953   2.528   3.872  14.236 -1.5567 -1.2316 -1.8015
 6488TIP3   OH240954   5.769   4.135   4.043 -0.8220  0.7442  0.4596
 6488TIP3    H140955   5.684   4.139   4.087 -1.8055 -0.9106 -1.1362
 6488TIP3    H240956   5.798   4.226   4.039 -3.7699  1.7432 -1.1989
 6489TIP3   OH240957   1.340   0.635   0.287  0.1420 -0.0646 -0.1580
 6489TIP3    H140958   1.313   0.714   0.241 -0.5070  0.1475  0.5806
 6489TIP3    H240959   1.282   0.567   0.253  1.4646 -0.5029 -1.6678
 6490TIP3   OH240960   2.466   3.120  16.650  0.1913  0.4679  0.0642
 6490TIP3    H140961   2.525   3.194  16.664  1.2805 -0.5390  1.0922
 6490TIP3    H240962   2.524   3.050  16.620 -0.7280 -0.1482 -0.2980
 6491TIP3   OH240963   6.070   5.658  12.262  0.1586  0.0142 -0.1892
 6491TIP3    H140964   6.158   5.679  12.294 -0.2429  0.1128  0.9002
 6491TIP3    H240965   6.031   5.743  12.242 -0.0836  0.0621  0.4474
 6492TIP3   OH240966   6.054   1.808   4.495 -0.5120 -0.0451  0.1543
 6492TIP3    H140967   5.980   1.772   4.446  0.0597  1.9020 -2.3077
 6492TIP3    H240968   6.036   1.901   4.502  0.9201  0.2066  0.9907
 6493TIP3   OH240969   5.823   6.559   5.630 -0.1604 -0.1772 -0.0836
 6493TIP3    H140970   5.794   6.645   5.600  1.1133  0.0194 -0.8045
 6493TIP3    H240971   5.864   6.576   5.715  2.0190  0.3156 -1.1676
 6494TIP3   OH240972   3.226   0.760  13.904  0.7044 -0.1151  0.3337
 6494TIP3    H140973   3.315   0.773  13.938  0.6584  1.8181 -0.1321
 6494TIP3    H240974   3.200   0.674  13.936  3.8089 -2.0939 -1.9494
 6495TIP3   OH240975   0.968   5.029   1.076 -0.5324  0.1449 -0.1359
 6495TIP3    H140976   0.905   5.032   1.004 -1.9955 -0.2230  1.0769
 6495TIP3    H240977   1.021   4.952   1.058 -1.6894 -0.6654 -0.2217
 6496TIP3   OH240978   6.841   0.179   4.397  0.2216 -0.0460 -0.4444
 6496TIP3    H140979   6.805   0.237   4.330  3.1488 -1.1887 -3.2521
 6496TIP3    H240980   6.885   0.237   4.458  1.0808  0.8751 -1.8903
 6497TIP3   OH240981   1.317   2.401   5.393  0.1453  0.0057 -0.2310
 6497TIP3    H140982   1.246   2.401   5.329 -0.9321  0.8987  0.9186
 6497TIP3    H240983   1.321   2.491   5.425  3.1342  0.5268 -1.6415
 6498TIP3   OH240984   1.164   3.343   4.988 -0.5561 -0.3872  0.7412
 6498TIP3    H140985   1.129   3.292   4.914  0.0002  0.4442 -0.1114
 6498TIP3    H240986   1.088   3.358   5.044 -1.3048  0.2467 -0.4142
 6499TIP3   OH240987   5.322   1.187   1.107  0.6614 -0.5152  0.3258
 6499TIP3    H140988   5.313   1.147   1.193  0.6625 -1.1820  0.0280
 6499TIP3    H240989   5.416   1.190   1.092  0.6552 -0.5875  0.2687
 6500TIP3   OH240990   4.891   3.962   5.857  0.3890 -0.5927 -0.4976
 6500TIP3    H140991   4.964   3.901   5.867 -1.0673 -2.5132 -0.9913
 6500TIP3    H240992   4.813   3.911   5.881 -1.1380  0.4197 -2.8849
 6501TIP3   OH240993   5.750   3.913   0.972  0.6503  0.1067  0.0177
 6501TIP3    H140994   5.702   3.978   1.023 -1.1120 -1.5894  0.6552
 6501TIP3    H240995   5.682   3.861   0.929  2.0311 -0.3643 -1.7204
 6502TIP3   OH240996   4.621   2.340  16.334  0.4444 -0.3012  0.2276
 6502TIP3    H140997   4.689   2.272  16.328 -0.3399 -0.9684 -1.8964
 6502TIP3    H240998   4.669   2.422  16.322  0.9042 -0.7757 -1.4458
 6503TIP3   OH240999   4.316   4.465  11.631 -0.1239 -0.2517  0.4461
 6503TIP3    H141000   4.308   4.537  11.694  1.1789  0.4543 -0.1431
 6503TIP3    H241001   4.269   4.496  11.554 -1.8750 -1.1912  1.0910
 6504TIP3   OH241002   0.761   6.662   5.113 -0.2975  0.3847  0.0000
 6504TIP3    H141003   0.766   6.757   5.099  3.0102  0.3802  0.3698
 6504TIP3    H241004   0.767   6.624   5.025 -3.5025  0.3991 -0.3532
 6505TIP3   OH241005   0.869   6.595  15.608  0.2680  0.0228 -0.2831
 6505TIP3    H141006   0.948   6.574  15.559  0.7485  0.0402  0.4649
 6505TIP3    H241007   0.901   6.628  15.692 -0.5247  0.5269 -0.1672
 6506TIP3   OH241008   2.040   1.813  13.602 -0.2660  0.3299 -1.0300
 6506TIP3    H141009   2.054   1.827  13.695 -0.4322 -0.2780 -0.9131
 6506TIP3    H241010   2.127   1.822  13.563  0.0580 -0.8692 -0.6246
 6507TIP3   OH241011   5.424   1.888  15.932  0.0512 -0.1266 -0.6785
 6507TIP3    H141012   5.415   1.799  15.900  2.0732 -0.6379  0.0497
 6507TIP3    H241013   5.504   1.887  15.985 -0.8032  1.6991  0.7789
 6508TIP3   OH241014   6.370   5.880  17.059  0.3043  0.2511  0.6387
 6508TIP3    H141015   6.321   5.928  17.126  0.0375  1.6066 -0.4755
 6508TIP3    H241016   6.424   5.947  17.017 -0.9303 -0.1503 -1.7465
 6509TIP3   OH241017   6.441   3.827  12.620 -0.0475  0.2914  0.2949
 6509TIP3    H141018   6.434   3.733  12.636  1.4914  0.3723  1.6203
 6509TIP3    H241019   6.384   3.866  12.686  3.0040  0.4288  3.0762
 6510TIP3   OH241020   0.984   6.700   0.076 -0.0905  0.7892  0.0403
 6510TIP3    H141021   1.045   6.628   0.058 -1.6334 -0.2727 -1.3199
 6510TIP3    H241022   0.988   6.712   0.170  3.0035  1.5460 -0.0577
 6511TIP3   OH241023   6.613   2.510  12.014  0.4853  0.2987  0.0384
 6511TIP3    H141024   6.649   2.544  11.931 -0.6158 -0.7155 -0.8918
 6511TIP3    H241025   6.539   2.568  12.033 -0.1096 -0.2935 -0.4366
 6512TIP3   OH241026   4.239   3.553   2.826 -0.4509 -0.1202  0.3701
 6512TIP3    H141027   4.271   3.615   2.891 -0.3568 -0.7770  0.9637
 6512TIP3    H241028   4.316   3.501   2.802 -0.5071  0.0406 -0.1937
 6513TIP3   OH241029   4.629   1.342  12.419  0.2815 -0.2864  0.4153
 6513TIP3    H141030   4.629   1.359  12.325  0.4935 -0.8882  0.3051
 6513TIP3    H241031   4.566   1.405  12.455 -1.1290 -1.2080 -0.3469
 6514TIP3   OH241032   4.402   1.328  11.510 -0.0857 -0.1469 -0.0903
 6514TIP3    H141033   4.443   1.242  11.502 -0.1083 -0.2563  0.8949
 6514TIP3    H241034   4.439   1.379  11.438 -0.6037 -1.1822 -1.1404
 6515TIP3   OH241035   4.881   0.630  13.515  0.3185 -0.2933  0.7116
 6515TIP3    H141036   4.809   0.568  13.505 -0.3101  0.4950  0.2774
 6515TIP3    H241037   4.929   0.623  13.432 -1.0342  1.3723 -0.2859
 6516TIP3   OH241038   0.692   1.231  13.154  0.5527 -0.4342  0.7617
 6516TIP3    H141039   0.758   1.177  13.197  1.3419  0.3957  0.6204
 6516TIP3    H241040   0.694   1.313  13.201 -0.0379 -0.2292  0.4407
 6517TIP3   OH241041   3.059   5.350  14.582 -0.4026 -0.6902  0.7452
 6517TIP3    H141042   3.092   5.303  14.658 -2.5961 -2.3880  0.7434
 6517TIP3    H241043   3.049   5.440  14.613  0.1650 -1.0310  1.9822
 6518TIP3   OH241044   0.375   5.856   6.079 -0.3196  0.6125  0.2240
 6518TIP3    H141045   0.445   5.846   6.144 -2.5287  1.7216  2.9837
 6518TIP3    H241046   0.337   5.768   6.071  1.1683  0.0315 -1.1945
 6519TIP3   OH241047   3.756   1.215  13.008  0.4463 -0.6421 -0.3948
 6519TIP3    H141048   3.684   1.255  13.057 -0.9340 -1.5457 -1.5961
 6519TIP3    H241049   3.797   1.155  13.070  1.4909  1.3034  0.9144
 6520TIP3   OH241050   6.842   6.162   2.195 -0.0026 -0.4591 -0.1547
 6520TIP3    H141051   6.815   6.252   2.212 -0.8852 -0.5785 -0.8527
 6520TIP3    H241052   6.774   6.108   2.234  1.8956 -0.9680  2.7704
 6521TIP3   OH241053   6.770   1.147   0.217  0.3090 -0.2933 -0.1889
 6521TIP3    H141054   6.841   1.205   0.247 -0.2724 -0.9213  2.7858
 6521TIP3    H241055   6.803   1.059   0.234 -0.7766 -0.6255  0.2584
 6522TIP3   OH241056   5.882   4.593  15.136  0.4071 -0.7919 -0.7538
 6522TIP3    H141057   5.943   4.666  15.122 -0.8772  0.6448  0.7139
 6522TIP3    H241058   5.934   4.515  15.119  1.6516  0.4431 -3.1249
 6523TIP3   OH241059   2.750   4.822   2.395  0.0908  0.5746 -0.1478
 6523TIP3    H141060   2.702   4.816   2.477  0.2744  0.3179 -0.0543
 6523TIP3    H241061   2.809   4.896   2.407  2.3163 -1.2404  1.1654
 6524TIP3   OH241062   1.383   3.177   3.694  0.1508  0.2098  0.0755
 6524TIP3    H141063   1.475   3.195   3.678 -0.1035  2.1265  0.5124
 6524TIP3    H241064   1.367   3.209   3.783 -0.5372 -1.8111  0.7487
 6525TIP3   OH241065   5.634   3.342   0.823  0.2426  0.3797 -0.2586
 6525TIP3    H141066   5.674   3.320   0.739 -0.6068  0.0244 -0.5782
 6525TIP3    H241067   5.620   3.258   0.866 -1.1326  0.3898 -0.6162
 6526TIP3   OH241068   6.351   6.193   1.531  0.2956 -0.0302  0.6755
 6526TIP3    H141069   6.442   6.209   1.559  1.2455 -1.7049 -1.1762
 6526TIP3    H241070   6.360   6.159   1.442 -2.2330  0.3945  0.2004
 6527TIP3   OH241071   0.490   1.517   2.802 -0.1319  0.5870 -0.3058
 6527TIP3    H141072   0.520   1.607   2.805  1.3411  0.1101 -0.1887
 6527TIP3    H241073   0.519   1.483   2.718  0.2605 -0.0857  0.0884
 6528TIP3   OH241074   4.621   0.500   3.934  0.4802  0.3304 -0.5285
 6528TIP3    H141075   4.629   0.584   3.978 -0.3369  1.0568 -1.7223
 6528TIP3    H241076   4.701   0.492   3.882  1.5665 -0.6418  1.1751
 6529TIP3   OH241077   4.954   3.553   0.740 -0.0042 -0.5563  0.0110
 6529TIP3    H141078   5.021   3.575   0.675  1.9962  0.9733  2.4137
 6529TIP3    H241079   4.967   3.460   0.757  0.6422 -0.5692 -0.5001
 6530TIP3   OH241080   0.025   2.895   5.950 -0.0645  0.3830 -1.1855
 6530TIP3    H141081   0.097   2.935   5.901 -0.1497  1.0992 -0.7450
 6530TIP3    H241082   0.068   2.837   6.013  0.0358 -0.7449 -2.2565
 6531TIP3   OH241083   3.277   0.258   1.125 -0.1766  0.0654 -0.5348
 6531TIP3    H141084   3.207   0.235   1.064 -0.1315 -0.2526 -0.4716
 6531TIP3    H241085   3.334   0.180   1.126  0.3077  0.4100 -0.7703
 6532TIP3   OH241086   0.985   1.121  16.690  0.8401  0.1731  0.5182
 6532TIP3    H141087   0.952   1.161  16.770  0.9791 -0.8116  1.0880
 6532TIP3    H241088   0.970   1.187  16.622 -0.3381  0.5727  1.1386
 6533TIP3   OH241089   5.625   4.562   1.681  0.7060 -0.0779 -0.5824
 6533TIP3    H141090   5.567   4.510   1.737  1.6166 -1.4047 -0.8248
 6533TIP3    H241091   5.684   4.607   1.742  0.3553  0.1250 -0.3935
 6534TIP3   OH241092   4.873   0.060  11.153  0.1845  0.2685  0.6457
 6534TIP3    H141093   4.808   0.049  11.083  0.9912  1.2765 -0.2972
 6534TIP3    H241094   4.903  -0.029  11.171  2.0221  0.1514 -2.3408
 6535TIP3   OH241095   5.030   6.834  11.458 -0.0528  0.1032 -0.2897
 6535TIP3    H141096   5.002   6.745  11.437  0.3331 -0.4554  1.4014
 6535TIP3    H241097   4.954   6.889  11.437 -0.0786 -0.4990 -1.9668
 6536TIP3   OH241098   6.324   0.958  12.429  0.1421  0.4499 -0.0066
 6536TIP3    H141099   6.354   0.893  12.492  0.9315  0.6423 -0.1711
 6536TIP3    H241100   6.304   0.908  12.350  1.9169  0.4953 -0.5464
 6537TIP3   OH241101   3.436   4.640  16.338 -0.0752 -0.0421  0.0865
 6537TIP3    H141102   3.435   4.610  16.247  0.1810 -1.8243  0.6497
 6537TIP3    H241103   3.525   4.673  16.351  0.1434 -0.5704 -0.0592
 6538TIP3   OH241104   4.712   4.538  13.435 -0.1782  0.3854  0.0583
 6538TIP3    H141105   4.708   4.549  13.530 -0.8425 -0.4109  0.1292
 6538TIP3    H241106   4.631   4.492  13.412  0.3798 -0.2141 -0.7782
 6539TIP3   OH241107   1.933   2.736   3.658 -0.7542 -0.7312  0.4211
 6539TIP3    H141108   1.923   2.819   3.611  0.3667 -0.7788  0.0585
 6539TIP3    H241109   1.956   2.762   3.747  1.7853 -0.5904 -0.1922
 6540TIP3   OH241110   0.468   3.261   1.813 -0.0235  0.0580  0.4300
 6540TIP3    H141111   0.520   3.204   1.757 -1.1070 -0.9078  0.3556
 6540TIP3    H241112   0.384   3.215   1.823 -1.7512  2.5417 -1.2996
 6541TIP3   OH241113   3.248   6.276  13.030  0.1811  0.2302 -0.3753
 6541TIP3    H141114   3.268   6.348  12.970 -2.0317  0.7557 -0.5471
 6541TIP3    H241115   3.334   6.238  13.051  1.2722  2.0242 -1.3636
 6542TIP3   OH241116   1.578   3.165  10.534 -0.1988 -0.0718  0.4249
 6542TIP3    H141117   1.668   3.193  10.551 -0.2135  1.6686 -1.9347
 6542TIP3    H241118   1.585   3.102  10.462 -0.8263 -0.6965  0.8870
 6543TIP3   OH241119   6.292   5.132  15.039 -0.5108  0.1440  0.5032
 6543TIP3    H141120   6.266   5.213  14.995 -0.1067  0.2717  0.4871
 6543TIP3    H241121   6.303   5.157  15.131  1.1920  0.5143  0.2451
 6544TIP3   OH241122   4.245   6.174  12.352  0.0205  0.1071 -0.5297
 6544TIP3    H141123   4.327   6.158  12.399  0.0686  1.8570  0.0424
 6544TIP3    H241124   4.177   6.146  12.413  0.0934  2.0989  0.5663
 6545TIP3   OH241125   5.617   1.102   4.340  0.4122 -0.1244  0.3384
 6545TIP3    H141126   5.684   1.170   4.351 -0.3333  0.7873 -0.5734
 6545TIP3    H241127   5.542   1.135   4.388  0.0942 -0.3889  0.0252
 6546TIP3   OH241128   1.327   3.662   4.378  0.6588  0.3271  0.1089
 6546TIP3    H141129   1.277   3.714   4.315  0.4361 -0.2922 -0.2336
 6546TIP3    H241130   1.292   3.574   4.369  1.0656  0.1072  0.6520
 6547TIP3   OH241131   4.207   2.160  12.965 -0.3906  0.3873  0.0584
 6547TIP3    H141132   4.128   2.210  12.982 -0.5475 -0.0014  0.4886
 6547TIP3    H241133   4.228   2.178  12.873 -0.4736  1.1868  0.1943
 6548TIP3   OH241134   0.428   3.674   3.476 -0.1915 -0.0375  0.0762
 6548TIP3    H141135   0.384   3.651   3.394  0.3887 -1.8582  0.2235
 6548TIP3    H241136   0.515   3.702   3.449  0.0822 -0.8694  0.0523
 6549TIP3   OH241137   0.828   2.084  12.838  0.3821  0.0399  0.0555
 6549TIP3    H141138   0.746   2.134  12.831  0.3335 -0.1953 -1.6297
 6549TIP3    H241139   0.884   2.122  12.770  0.2698 -2.2591 -1.4291
 6550TIP3   OH241140   0.333   3.687  11.368  0.4084 -0.2150  0.3674
 6550TIP3    H141141   0.239   3.677  11.383  0.4211 -2.5468 -0.7171
 6550TIP3    H241142   0.373   3.612  11.412  1.5582 -0.3696 -0.8710
 6551TIP3   OH241143   2.435   2.660  13.117 -0.2255 -0.3075  0.4880
 6551TIP3    H141144   2.423   2.723  13.187 -0.3845  0.7633 -0.4830
 6551TIP3    H241145   2.528   2.665  13.096 -0.0877 -0.9561  0.9118
 6552TIP3   OH241146   1.611   4.246   5.202 -0.3908 -0.2790 -0.4695
 6552TIP3    H141147   1.604   4.241   5.107  2.4369  3.1936 -1.0731
 6552TIP3    H241148   1.547   4.313   5.228  0.7696  0.8210 -0.3646
 6553TIP3   OH241149   4.165   0.701   2.847 -0.9152  0.7811  0.0897
 6553TIP3    H141150   4.227   0.758   2.892 -0.5607  1.0045 -0.6633
 6553TIP3    H241151   4.218   0.627   2.816 -1.3774  0.0148  1.0827
 6554TIP3   OH241152   5.756   6.523   2.857  0.2301 -0.1410  0.0408
 6554TIP3    H141153   5.707   6.581   2.915 -1.5975 -0.8500 -0.7336
 6554TIP3    H241154   5.775   6.446   2.911 -1.0396 -0.5931 -0.1412
 6555TIP3   OH241155   4.992   5.056  16.496 -0.1594 -0.8218 -0.1036
 6555TIP3    H141156   4.995   4.969  16.535 -1.3747 -0.6285  0.4781
 6555TIP3    H241157   4.977   5.115  16.570  0.0961 -0.1762 -0.5528
 6556TIP3   OH241158   4.485   1.465   0.109  0.0538 -0.5645  0.1261
 6556TIP3    H141159   4.412   1.444   0.051  0.3663  0.8958 -0.8610
 6556TIP3    H241160   4.455   1.439   0.196 -0.9820 -1.4961 -0.4835
 6557TIP3   OH241161   1.417   0.639  16.817  0.1183  0.6360  0.5458
 6557TIP3    H141162   1.402   0.655  16.910 -0.7422  1.5270  0.2644
 6557TIP3    H241163   1.374   0.711  16.772  0.0898 -0.0493 -0.5747
 6558TIP3   OH241164   4.501   2.508  15.014  0.3188 -0.0222 -0.2034
 6558TIP3    H141165   4.482   2.416  14.999  0.7879 -0.0677 -0.5253
 6558TIP3    H241166   4.431   2.555  14.968  0.5113 -0.2015 -0.6793
 6559TIP3   OH241167   0.986   2.934  16.231  0.3940 -0.1552  0.1431
 6559TIP3    H141168   0.976   2.914  16.324 -0.1871 -1.9986 -0.2567
 6559TIP3    H241169   1.077   2.963  16.222  1.3227 -2.5035  0.9484
 6560TIP3   OH241170   0.759   0.948   1.869  0.6046  0.2307  0.1063
 6560TIP3    H141171   0.832   1.007   1.891 -0.5173  1.3750  0.9078
 6560TIP3    H241172   0.757   0.885   1.942 -0.2429  1.2429  0.9975
 6561TIP3   OH241173   3.082   4.871  11.874 -0.0143 -0.0893  0.2780
 6561TIP3    H141174   3.037   4.867  11.789  1.5738 -0.5546 -0.5714
 6561TIP3    H241175   3.051   4.794  11.921 -0.7338  0.0486  0.0460
 6562TIP3   OH241176   6.410   0.131  13.314 -0.2674  0.3512 -0.0789
 6562TIP3    H141177   6.377   0.211  13.356 -2.0368 -0.7351  0.6883
 6562TIP3    H241178   6.505   0.133  13.329 -0.6873  0.5407  3.0861
 6563TIP3   OH241179   2.354   0.834   0.842  0.1150  0.4469 -0.4180
 6563TIP3    H141180   2.304   0.757   0.813 -0.1773  0.6230 -0.3858
 6563TIP3    H241181   2.382   0.812   0.931  1.3764 -0.2698 -0.9629
 6564TIP3   OH241182   5.826   3.226   6.050 -0.5245 -0.0982  0.2040
 6564TIP3    H141183   5.756   3.283   6.081 -1.7736 -0.6479 -1.4598
 6564TIP3    H241184   5.860   3.184   6.129 -2.5572 -0.3576  0.9845
 6565TIP3   OH241185   6.741   5.533   2.936  0.1550 -0.2001 -0.4413
 6565TIP3    H141186   6.750   5.443   2.905  0.6452  0.7141 -3.2326
 6565TIP3    H241187   6.831   5.566   2.938 -0.1860  0.8623 -1.6552
 6566TIP3   OH241188   0.032   5.827   0.014 -1.1468  0.3343  0.2194
 6566TIP3    H141189  -0.048   5.845   0.064 -0.2465  1.5846  1.2811
 6566TIP3    H241190   0.004   5.825  -0.077 -2.2868  1.4506  0.5219
 6567TIP3   OH241191   5.946   2.653   0.072  0.3479  0.3146  0.3795
 6567TIP3    H141192   5.927   2.623  -0.016  0.6700  4.1240 -1.1861
 6567TIP3    H241193   5.862   2.654   0.117  0.3489 -2.7309  0.6179
 6568TIP3   OH241194   0.416   1.852   6.153 -0.3782  0.6504 -0.1406
 6568TIP3    H141195   0.332   1.806   6.153 -0.7786  1.3453  0.8150
 6568TIP3    H241196   0.481   1.784   6.168 -0.6356 -0.0681 -1.9714
 6569TIP3   OH241197   1.665   0.126  14.815  0.1590 -0.3555  0.3570
 6569TIP3    H141198   1.706   0.143  14.899 -1.4192  0.1495  1.0653
 6569TIP3    H241199   1.574   0.155  14.826 -0.3259 -1.1343 -1.2208
 6570TIP3   OH241200   4.392   5.920  13.436  0.0266  0.3039  0.4210
 6570TIP3    H141201   4.359   5.988  13.495  0.4834 -0.6999  1.8986
 6570TIP3    H241202   4.385   5.839  13.486  1.4391 -0.4389 -0.5062
 6571TIP3   OH241203   1.314   5.114  14.774  0.5616 -0.1106  0.3523
 6571TIP3    H141204   1.363   5.145  14.698  1.2558  0.0784  0.8735
 6571TIP3    H241205   1.238   5.172  14.778  0.2888 -0.3989 -0.4509
 6572TIP3   OH241206   1.875   1.386  11.410 -0.8796 -0.6354  0.5580
 6572TIP3    H141207   1.822   1.455  11.370  2.8133  0.8652 -2.4475
 6572TIP3    H241208   1.919   1.430  11.483 -0.2960 -0.4393  0.0998
 6573TIP3   OH241209   1.764   3.015   1.836  0.4653 -0.5038  0.0970
 6573TIP3    H141210   1.719   2.939   1.873 -1.8170  0.2354 -0.9894
 6573TIP3    H241211   1.789   2.988   1.748  3.2806 -1.2570  0.9874
 6574TIP3   OH241212   1.149   0.952  16.932  0.3460 -0.4880 -0.2429
 6574TIP3    H141213   1.060   0.948  16.896  0.2976  0.3391 -0.2146
 6574TIP3    H241214   1.176   0.860  16.936 -0.1910 -0.6941 -1.0362
 6575TIP3   OH241215   0.068   2.505   1.711  0.5203 -0.3454 -0.2645
 6575TIP3    H141216   0.060   2.581   1.653  1.0270 -0.4372 -0.4670
 6575TIP3    H241217   0.050   2.539   1.798  2.5190  0.4413 -0.0907
 6576TIP3   OH241218   1.308   5.985   3.147 -0.2420 -0.1133  0.5707
 6576TIP3    H141219   1.301   5.889   3.152  2.6014 -0.4303 -0.1765
 6576TIP3    H241220   1.314   6.013   3.239  0.7690 -0.8576  0.7498
 6577TIP3   OH241221   3.939   1.038  13.263  0.1811 -0.4189  0.4105
 6577TIP3    H141222   3.899   0.974  13.203 -0.3160 -0.1467  0.4531
 6577TIP3    H241223   4.030   1.009  13.271  0.3846 -0.1792 -0.8596
 6578TIP3   OH241224   2.080   4.560   3.419 -0.3718 -0.2376 -0.3106
 6578TIP3    H141225   2.093   4.472   3.456  0.5815  0.0973  0.1687
 6578TIP3    H241226   2.099   4.620   3.490  1.1905  0.4104 -1.2277
 6579TIP3   OH241227   2.462   0.657  14.232 -0.4159 -0.0086  0.3288
 6579TIP3    H141228   2.474   0.717  14.158 -0.6793 -0.5913 -0.1952
 6579TIP3    H241229   2.497   0.704  14.307 -2.3154  1.6035  0.2913
 6580TIP3   OH241230   4.064   1.839   3.609 -0.1806  0.1211 -0.1461
 6580TIP3    H141231   3.980   1.870   3.644 -0.4998  1.0285 -1.6104
 6580TIP3    H241232   4.048   1.747   3.588 -0.6059  0.1122  0.1819
 6581TIP3   OH241233   3.973   5.000   4.644 -0.0552 -0.5215 -0.4493
 6581TIP3    H141234   3.990   5.081   4.597  2.6415  0.2202  1.5628
 6581TIP3    H241235   3.890   5.015   4.690  0.4509  1.2005 -0.0176
 6582TIP3   OH241236   4.647   6.721   2.306 -0.4938 -0.6414 -0.0008
 6582TIP3    H141237   4.589   6.645   2.313  0.1465 -1.0491  1.1416
 6582TIP3    H241238   4.594   6.794   2.338 -0.4488 -0.9720  0.8429
 6583TIP3   OH241239   2.277   2.997  16.244 -0.0808  0.1745 -0.3448
 6583TIP3    H141240   2.357   2.951  16.269  0.1196  0.0581 -1.1622
 6583TIP3    H241241   2.263   2.973  16.152 -1.0423  0.2161 -0.2223
 6584TIP3   OH241242   1.354   5.539  12.497 -0.8144  0.5708  0.4516
 6584TIP3    H141243   1.298   5.461  12.494 -0.2873  0.0637  2.4637
 6584TIP3    H241244   1.443   5.506  12.488 -0.5569  0.8645  1.6912
 6585TIP3   OH241245   4.096   0.827   2.019  0.6582  0.1643 -0.5443
 6585TIP3    H141246   4.080   0.812   2.112  0.8578  0.2508 -0.4953
 6585TIP3    H241247   4.016   0.868   1.987  0.4570 -0.1790 -0.4863
 6586TIP3   OH241248   0.710   4.739  16.613 -0.0751 -0.5283  0.4794
 6586TIP3    H141249   0.784   4.764  16.668 -0.9836 -0.4129  1.6941
 6586TIP3    H241250   0.713   4.801  16.540  0.5090  0.0616  0.9799
 6587TIP3   OH241251   4.563   3.506  10.816  0.2480 -0.4241 -0.9429
 6587TIP3    H141252   4.547   3.412  10.819 -0.4189 -0.2982  1.0175
 6587TIP3    H241253   4.488   3.544  10.862 -0.3938  1.2207 -3.2042
 6588TIP3   OH241254   3.013   3.877  15.475  0.2060  0.0552  0.3322
 6588TIP3    H141255   3.108   3.875  15.470  0.3263  1.6736  1.2730
 6588TIP3    H241256   2.991   3.820  15.549  0.5888  1.1418  1.3003
 6589TIP3   OH241257   6.832   1.849  14.483 -0.0829  0.0180 -0.3745
 6589TIP3    H141258   6.843   1.804  14.400 -1.5158 -0.7827 -0.1717
 6589TIP3    H241259   6.866   1.937  14.467  2.0145 -0.8511 -1.0195
 6590TIP3   OH241260   3.964   0.482  16.884  0.3230  0.2780  0.0725
 6590TIP3    H141261   3.990   0.468  16.975  0.0105  0.5990  0.2138
 6590TIP3    H241262   3.870   0.463  16.882  0.7510 -2.0351 -0.6849
 6591TIP3   OH241263   0.809   1.542  13.844 -0.2948 -0.3137 -0.3314
 6591TIP3    H141264   0.892   1.543  13.797  1.8452 -1.4844  3.0392
 6591TIP3    H241265   0.804   1.628  13.885 -1.1983  0.0418 -1.1623
 6592TIP3   OH241266   1.142   4.888  11.285  0.2590  0.2395 -0.4534
 6592TIP3    H141267   1.124   4.922  11.197  1.1697  1.2991 -0.2504
 6592TIP3    H241268   1.199   4.813  11.270  1.1478  0.9514 -0.7473
 6593TIP3   OH241269   4.341   0.155   4.812  0.1578  0.3095  0.3150
 6593TIP3    H141270   4.353   0.155   4.717 -1.6769  3.0291 -0.0446
 6593TIP3    H241271   4.283   0.081   4.829  0.8472 -0.4646 -0.5942
 6594TIP3   OH241272   2.929   4.542  12.968 -0.8571  0.3207 -0.2618
 6594TIP3    H141273   2.926   4.478  12.896 -1.6693  2.2210 -2.0397
 6594TIP3    H241274   2.999   4.512  13.024 -0.1377 -1.2487 -1.8977
 6595TIP3   OH241275   3.763   6.635  13.709  0.3965 -0.0585  0.3714
 6595TIP3    H141276   3.685   6.589  13.741  0.2293  0.4706  0.7381
 6595TIP3    H241277   3.836   6.580  13.738  0.2792  0.6325  2.1397
 6596TIP3   OH241278   4.196   5.191  14.102  0.0252  0.5570 -0.2805
 6596TIP3    H141279   4.211   5.250  14.176 -0.4446 -1.3900  1.4567
 6596TIP3    H241280   4.284   5.168  14.072  0.2890 -0.0755  0.9103
 6597TIP3   OH241281   3.113   0.213   4.837  0.2661  0.0015  0.3806
 6597TIP3    H141282   3.130   0.185   4.927  2.8173  1.6586  0.5119
 6597TIP3    H241283   3.038   0.273   4.845 -0.2808 -0.7656  1.1939
 6598TIP3   OH241284   3.146   1.995  11.994  0.2265  0.4078  0.2774
 6598TIP3    H141285   3.134   2.067  12.056  0.4615 -0.0696  0.8763
 6598TIP3    H241286   3.057   1.967  11.973  0.1091 -1.5453  2.8800
 6599TIP3   OH241287   1.841   5.087  12.274  0.2790 -0.3610  0.4444
 6599TIP3    H141288   1.909   5.024  12.250 -0.8168 -0.9581 -1.2591
 6599TIP3    H241289   1.856   5.162  12.217 -0.2139 -0.3075  0.3792
 6600TIP3   OH241290   2.546   4.798  14.714 -0.2301  0.3740  0.2660
 6600TIP3    H141291   2.576   4.854  14.643  3.0506 -1.4084  0.0247
 6600TIP3    H241292   2.608   4.724  14.714 -3.0968 -2.2578  1.7926
 6601TIP3   OH241293   3.458   6.291  15.869  0.0691  0.0049 -0.0772
 6601TIP3    H141294   3.493   6.224  15.810  1.0524  1.4241 -1.2247
 6601TIP3    H241295   3.502   6.276  15.952  2.3471  0.7486 -1.0519
 6602TIP3   OH241296   5.744   4.742  15.951 -0.3413 -0.4780  0.4333
 6602TIP3    H141297   5.817   4.688  15.920 -0.1983  0.0232 -0.1256
 6602TIP3    H241298   5.666   4.693  15.926 -0.2036 -0.8440  0.7115
 6603TIP3   OH241299   2.285   5.852   4.697  0.1945 -0.3793  0.1741
 6603TIP3    H141300   2.193   5.860   4.720  0.2676 -0.9274  0.7029
 6603TIP3    H241301   2.330   5.910   4.758  0.2331 -0.4484  0.2118
 6604TIP3   OH241302   0.213   1.250  12.633  0.1883 -0.0030 -0.4982
 6604TIP3    H141303   0.145   1.204  12.682 -0.8836  0.7427 -1.2517
 6604TIP3    H241304   0.268   1.289  12.701  0.8257 -1.8918  0.1482
 6605TIP3   OH241305   6.325   2.693  15.451  0.0700  0.3175  0.4405
 6605TIP3    H141306   6.270   2.759  15.494 -2.5283 -0.2771 -1.7075
 6605TIP3    H241307   6.291   2.609  15.482  0.5736 -0.0466  0.0198
 6606TIP3   OH241308   1.766   3.978   3.285  0.0121  0.9857 -0.1201
 6606TIP3    H141309   1.741   4.070   3.293 -1.3318  0.7651 -1.2681
 6606TIP3    H241310   1.731   3.951   3.200  0.9144 -0.4302 -0.0837
 6607TIP3   OH241311   4.787   4.209   4.933 -0.1327  0.0071  0.4195
 6607TIP3    H141312   4.692   4.212   4.943 -0.2233  2.4430 -0.5435
 6607TIP3    H241313   4.813   4.301   4.926  2.3329 -0.5954  0.8324
 6608TIP3   OH241314   0.400   4.415   4.040 -0.5081  0.0946 -0.3036
 6608TIP3    H141315   0.313   4.444   4.014 -1.2718  0.2835  2.2180
 6608TIP3    H241316   0.398   4.415   4.135  1.3623 -2.5866 -0.1370
 6609TIP3   OH241317   6.309   2.307  16.463  0.3992 -0.0258 -0.2464
 6609TIP3    H141318   6.309   2.375  16.396  0.7636 -0.0014 -0.2282
 6609TIP3    H241319   6.366   2.341  16.532 -0.4731  0.2197  0.3675
 6610TIP3   OH241320   3.435   2.998   3.344 -0.6573 -0.3728  0.6968
 6610TIP3    H141321   3.473   2.910   3.344 -0.8476 -0.4701 -0.3566
 6610TIP3    H241322   3.382   3.001   3.265 -0.7681  0.6509  0.7944
 6611TIP3   OH241323   5.015   0.179   0.064  0.5778 -0.3257  0.3169
 6611TIP3    H141324   4.964   0.229   0.129  0.0907  0.8583 -0.9378
 6611TIP3    H241325   5.011   0.232  -0.015  2.3366 -1.0617 -0.3122
 6612TIP3   OH241326   1.801   4.208   0.050  0.6141  0.4750 -0.2707
 6612TIP3    H141327   1.829   4.225   0.140  2.5355 -0.7586 -0.5923
 6612TIP3    H241328   1.761   4.121   0.053  1.2058  0.1789 -0.6896
 6613TIP3   OH241329   0.366   1.406  12.842 -0.1961  0.3585  0.7544
 6613TIP3    H141330   0.365   1.337  12.908 -0.5192  1.6154  2.1122
 6613TIP3    H241331   0.355   1.487  12.891 -2.0392  1.2538 -0.9810
 6614TIP3   OH241332   4.115   4.336  12.989  0.6276 -0.4756  0.2262
 6614TIP3    H141333   4.140   4.385  12.911  0.3438  1.3220  1.1937
 6614TIP3    H241334   4.021   4.323  12.981  0.8414 -1.7033 -0.4596
 6615TIP3   OH241335   4.046   3.989  15.101  0.7256  0.2269  0.0974
 6615TIP3    H141336   4.116   3.963  15.041  1.7306 -0.2790  1.4213
 6615TIP3    H241337   3.998   4.057  15.054  0.1609 -1.5826 -2.1128
 6616TIP3   OH241338   5.019   3.512   6.620 -0.8399  0.9681  0.0768
 6616TIP3    H141339   4.962   3.550   6.687 -2.8921  0.2958 -1.2208
 6616TIP3    H241340   4.989   3.550   6.538  0.5232  0.4682 -0.6917
 6617TIP3   OH241341   1.917   0.421   0.727 -0.5115 -0.1178 -0.2540
 6617TIP3    H141342   1.975   0.434   0.652 -1.4556  0.8618 -0.8612
 6617TIP3    H241343   1.836   0.466   0.702 -0.3606  1.5733  1.9601
 6618TIP3   OH241344   3.827   1.662   0.235  0.1322 -0.7367 -0.4003
 6618TIP3    H141345   3.898   1.726   0.237 -2.6816  2.6738  0.0826
 6618TIP3    H241346   3.826   1.631   0.144  1.8812 -0.5483 -0.5309
 6619TIP3   OH241347   5.529   0.561  16.024 -0.3786 -0.1065 -0.6551
 6619TIP3    H141348   5.461   0.619  16.061  1.0340  1.0609  0.2231
 6619TIP3    H241349   5.489   0.524  15.945 -1.6760  1.3328 -0.7140
 6620TIP3   OH241350   0.302   5.809  16.584 -0.1604  0.0494 -0.4945
 6620TIP3    H141351   0.264   5.736  16.632 -0.3609  0.3901 -0.1259
 6620TIP3    H241352   0.313   5.878  16.650 -1.7645  1.0256 -1.1799
 6621TIP3   OH241353   2.554   6.376  11.649 -0.1526  0.2859  0.3306
 6621TIP3    H141354   2.508   6.296  11.673  0.6969 -0.5847 -0.8342
 6621TIP3    H241355   2.508   6.409  11.572 -0.4120  0.8549  0.7191
 6622TIP3   OH241356   4.278   5.852   1.205  0.9382 -0.2946 -0.1903
 6622TIP3    H141357   4.318   5.936   1.228 -1.1363 -0.0648  3.3724
 6622TIP3    H241358   4.303   5.794   1.278 -2.7634 -0.8913  0.7702
 6623TIP3   OH241359   4.774   2.383  13.640  0.5006 -0.1286  0.3637
 6623TIP3    H141360   4.762   2.456  13.579 -1.4538 -0.5145  0.2445
 6623TIP3    H241361   4.786   2.425  13.726 -0.6325  0.3502  0.3009
 6624TIP3   OH241362   5.334   1.155  13.888  0.0482 -0.0486 -0.0680
 6624TIP3    H141363   5.260   1.177  13.945  0.1026  0.2236 -0.0974
 6624TIP3    H241364   5.379   1.084  13.933  1.0166  1.2093  1.0551
 6625TIP3   OH241365   0.078   3.628  11.467 -0.1596  0.2561 -0.0030
 6625TIP3    H141366   0.003   3.687  11.464  1.0863  1.8759 -0.3292
 6625TIP3    H241367   0.056   3.564  11.534 -2.5119 -0.2821 -1.1989
 6626TIP3   OH241368   1.859   5.081  16.610  0.0333  0.4247 -0.3234
 6626TIP3    H141369   1.859   5.079  16.705 -0.1004  0.9733 -0.3108
 6626TIP3    H241370   1.768   5.101  16.586 -0.2208 -0.9199 -0.6008
 6627TIP3   OH241371   2.943   6.177   4.343  0.6456  0.2695 -0.0743
 6627TIP3    H141372   2.920   6.270   4.344  0.1410  0.1449  0.0903
 6627TIP3    H241373   2.910   6.143   4.426  0.5020 -0.1337 -0.2934
 6628TIP3   OH241374   6.312   4.331   5.401  0.0514  0.2470 -0.1808
 6628TIP3    H141375   6.295   4.388   5.326 -0.1866 -0.3818 -0.6165
 6628TIP3    H241376   6.352   4.388   5.466  0.0730  0.8486 -0.7109
 6629TIP3   OH241377   0.141   1.632  11.844 -0.2086 -0.5909  0.3713
 6629TIP3    H141378   0.109   1.550  11.807 -1.4563  0.4044 -0.8681
 6629TIP3    H241379   0.075   1.657  11.909  0.7709 -1.1281  1.6224
 6630TIP3   OH241380   5.641   6.369   3.647 -0.4983  0.4443  0.3425
 6630TIP3    H141381   5.716   6.334   3.598 -0.8899 -0.4040  0.3433
 6630TIP3    H241382   5.573   6.381   3.582 -0.2438  1.6370  0.2625
 6631TIP3   OH241383   0.948   0.190  11.790  0.1532 -0.7266  0.5013
 6631TIP3    H141384   0.860   0.165  11.762  0.4836 -0.7917 -0.5209
 6631TIP3    H241385   0.934   0.261  11.853 -0.6692 -1.5087  1.2424
 6632TIP3   OH241386   1.333   1.454  16.446  0.1930 -0.0662  0.0721
 6632TIP3    H141387   1.253   1.493  16.410  0.1021 -0.6727 -0.3826
 6632TIP3    H241388   1.347   1.374  16.395  0.6325 -0.3968  0.6964
 6633TIP3   OH241389   4.891   4.428   3.240 -0.1840 -0.4091 -0.4831
 6633TIP3    H141390   4.891   4.410   3.334 -2.1226 -0.0664 -0.3839
 6633TIP3    H241391   4.887   4.341   3.199  1.4389 -0.5978 -0.3013
 6634TIP3   OH241392   2.737   4.081  15.139 -0.3188 -1.0477 -0.1873
 6634TIP3    H141393   2.667   4.053  15.198  1.3049 -0.7643  1.9677
 6634TIP3    H241394   2.776   4.158  15.180  1.1082 -1.0267 -1.4491
 6635TIP3   OH241395   6.668   4.033  13.444 -0.5257 -0.2676 -0.0953
 6635TIP3    H141396   6.587   3.999  13.407 -0.6129  2.9353 -3.4505
 6635TIP3    H241397   6.645   4.121  13.474  1.6675  0.8352 -1.3966
 6636TIP3   OH241398   6.806   2.408   3.008 -0.3619  0.7952 -0.2826
 6636TIP3    H141399   6.749   2.375   3.078 -0.9955 -1.4424 -1.7591
 6636TIP3    H241400   6.812   2.502   3.025 -1.3275  0.4977  2.1547
 6637TIP3   OH241401   1.706   6.442   3.572 -0.3142  0.0577 -0.2502
 6637TIP3    H141402   1.735   6.519   3.620 -0.9360 -0.1466  0.4684
 6637TIP3    H241403   1.736   6.457   3.482  0.4312  0.6692  0.0878
 6638TIP3   OH241404   5.355   6.085   0.855  0.3674 -0.2864  0.7561
 6638TIP3    H141405   5.363   6.056   0.946  0.6861 -0.9322  0.5243
 6638TIP3    H241406   5.427   6.147   0.843  0.6411 -0.5946  0.7947
 6639TIP3   OH241407   6.300   6.514  15.877 -0.3506 -0.5848 -0.6326
 6639TIP3    H141408   6.241   6.449  15.840 -1.6536  0.6609 -0.8448
 6639TIP3    H241409   6.298   6.499  15.971 -2.0887  0.2617 -0.5014
 6640TIP3   OH241410   4.727   1.431   0.343  0.4861  0.0099  0.1717
 6640TIP3    H141411   4.754   1.384   0.421  0.5197 -1.0526 -0.4598
 6640TIP3    H241412   4.669   1.370   0.297  0.7408  0.4799 -0.8051
 6641TIP3   OH241413   1.584   0.768  17.069 -1.0230  0.1203  0.2705
 6641TIP3    H141414   1.593   0.803  16.980  2.4954 -0.7795  0.1177
 6641TIP3    H241415   1.544   0.839  17.119  1.7250  2.7613 -0.9720
 6642TIP3   OH241416   5.761   0.580   1.263 -0.2634  0.0311 -0.2135
 6642TIP3    H141417   5.721   0.589   1.350  1.3417 -0.2238  0.5930
 6642TIP3    H241418   5.839   0.635   1.267  0.4529 -0.8789 -1.0943
 6643TIP3   OH241419   1.386   5.035  13.191  0.2877  0.2768  0.4253
 6643TIP3    H141420   1.453   5.070  13.133  0.1010 -0.0137  0.0207
 6643TIP3    H241421   1.409   5.067  13.278  0.5223  0.7984  0.1752
 6644TIP3   OH241422   5.380   1.781   3.520 -0.1592 -0.5896 -0.7571
 6644TIP3    H141423   5.448   1.733   3.566 -0.1274  0.5608  0.4351
 6644TIP3    H241424   5.421   1.809   3.438  0.1972 -1.5161 -0.8997
 6645TIP3   OH241425   0.458   3.122  16.946 -0.3031  0.8282 -0.1189
 6645TIP3    H141426   0.405   3.142  16.868 -0.1632 -0.3648 -0.5399
 6645TIP3    H241427   0.475   3.028  16.939  1.3146  1.0652  0.3693
 6646TIP3   OH241428   6.001   6.338  15.577  0.3273  0.2156 -0.4801
 6646TIP3    H141429   6.048   6.331  15.661  0.8875 -0.1226 -0.8142
 6646TIP3    H241430   6.071   6.345  15.512 -0.1141  1.2307 -0.8551
 6647TIP3   OH241431   5.460   4.215  14.974 -0.0932 -0.2331 -0.0095
 6647TIP3    H141432   5.467   4.221  15.069  2.7688 -0.9212 -0.0645
 6647TIP3    H241433   5.483   4.124  14.954 -0.7299 -0.1194 -1.3557
 6648TIP3   OH241434   4.052   1.763  10.460  0.3452  0.4919 -0.1011
 6648TIP3    H141435   4.145   1.774  10.440  1.2747 -1.0694  2.7405
 6648TIP3    H241436   4.018   1.852  10.471  2.3219  1.0981  1.7828
 6649TIP3   OH241437   3.237   3.757  16.620 -0.1870 -0.4192 -0.4741
 6649TIP3    H141438   3.235   3.694  16.692 -1.0191 -2.0673 -1.8671
 6649TIP3    H241439   3.147   3.789  16.614  0.1348  0.6268 -0.0632
 6650TIP3   OH241440   0.913   4.845  16.751 -0.3793 -0.5295 -0.0246
 6650TIP3    H141441   0.997   4.815  16.787 -0.4184 -0.7901 -0.1523
 6650TIP3    H241442   0.869   4.888  16.824  0.1473  0.1968 -0.1199
 6651TIP3   OH241443   2.223   2.422   0.168  0.4363 -0.0308  0.0393
 6651TIP3    H141444   2.287   2.365   0.124  1.3356  1.5298 -0.7710
 6651TIP3    H241445   2.183   2.366   0.235  1.7020 -1.4307 -0.3131
 6652TIP3   OH241446   3.982   6.356   3.075  0.1628  0.8247 -0.4942
 6652TIP3    H141447   3.985   6.385   2.984 -0.8787  1.2784 -0.3959
 6652TIP3    H241448   4.056   6.295   3.084  0.5841  1.1835 -1.4945
 6653TIP3   OH241449   1.071   5.853  15.724 -0.3896 -0.6929 -0.1396
 6653TIP3    H141450   1.026   5.908  15.789  0.7773  1.3984 -0.9895
 6653TIP3    H241451   1.054   5.897  15.640 -1.8073 -3.2875 -1.3458
 6654TIP3   OH241452   1.342   4.608  14.387  0.3849  0.2189 -0.1161
 6654TIP3    H141453   1.338   4.601  14.291 -0.0239 -1.7840 -0.0020
 6654TIP3    H241454   1.250   4.612  14.415  0.4894  0.3193  0.2195
 6655TIP3   OH241455   2.699   1.121  14.850  0.1788  0.4010 -0.2586
 6655TIP3    H141456   2.648   1.202  14.841  1.5996  1.4115  0.3705
 6655TIP3    H241457   2.668   1.065  14.779 -1.2470  1.2518 -0.3578
 6656TIP3   OH241458   6.073   5.478  14.623 -0.7963  0.0448  0.1204
 6656TIP3    H141459   6.080   5.555  14.566 -2.4815 -0.2650 -0.5424
 6656TIP3    H241460   6.131   5.498  14.697 -0.2179  1.3857 -0.6596
 6657TIP3   OH241461   5.219   6.004  12.950  0.4528  0.0986 -0.2630
 6657TIP3    H141462   5.209   5.938  12.882 -2.3091 -0.4377  0.5395
 6657TIP3    H241463   5.228   6.086  12.902  0.2229 -0.4394 -1.2649
 6658TIP3   OH241464   4.777   0.831   2.086  0.5125 -0.8553 -0.4052
 6658TIP3    H141465   4.758   0.861   1.997 -2.2004  0.5334  0.5042
 6658TIP3    H241466   4.869   0.806   2.085  0.3790 -1.6134 -3.7705
 6659TIP3   OH241467   6.467   0.156  16.792  0.1810  0.4875  0.2622
 6659TIP3    H141468   6.380   0.115  16.795  0.8755 -1.1722 -0.8687
 6659TIP3    H241469   6.524   0.096  16.840  1.0982  0.4189 -0.8629
 6660TIP3   OH241470   2.054   2.671  12.539 -0.5565  0.3019  0.3393
 6660TIP3    H141471   2.055   2.597  12.599 -0.0653 -0.4174 -0.5103
 6660TIP3    H241472   2.147   2.684  12.516 -0.7586  0.3833 -0.4606
 6661TIP3   OH241473   2.616   3.768   4.629  0.4468 -0.4571 -0.1894
 6661TIP3    H141474   2.598   3.697   4.690  0.7233  0.2167  0.6971
 6661TIP3    H241475   2.704   3.751   4.597  0.6466 -0.3422  0.2846
 6662TIP3   OH241476   4.063   3.454  13.476 -0.5783  0.1038  0.5293
 6662TIP3    H141477   4.020   3.370  13.461 -0.5173  0.3074 -1.0186
 6662TIP3    H241478   4.126   3.461  13.404 -0.0553  1.1367  1.0721
 6663TIP3   OH241479   5.722   0.007  15.062  0.8371  0.0384 -0.5603
 6663TIP3    H141480   5.785   0.017  14.991  0.5527 -1.8368 -1.1359
 6663TIP3    H241481   5.666  -0.066  15.035 -0.4374  0.4601  0.7658
 6664TIP3   OH241482   6.132   3.732   5.445  0.0022  0.5644 -0.3073
 6664TIP3    H141483   6.218   3.712   5.405 -0.5638 -0.1077 -1.2421
 6664TIP3    H241484   6.137   3.692   5.532  0.9102  1.2090 -0.0389
 6665TIP3   OH241485   1.344   3.553  16.209 -0.2326 -0.1389  0.0311
 6665TIP3    H141486   1.437   3.562  16.189 -0.0200 -0.5461  0.7903
 6665TIP3    H241487   1.305   3.514  16.130  0.6856 -2.3043  0.5899
 6666TIP3   OH241488   3.289   6.043  16.666  0.1462 -0.1901 -0.2315
 6666TIP3    H141489   3.205   5.998  16.664  0.6704 -1.2193 -2.7863
 6666TIP3    H241490   3.267   6.135  16.650 -0.4822 -0.5394 -1.5057
 6667TIP3   OH241491   4.241   4.206   1.022 -0.1877 -0.1269 -0.3971
 6667TIP3    H141492   4.300   4.271   1.060 -0.9465  0.1685  0.2862
 6667TIP3    H241493   4.226   4.143   1.093  0.4974 -1.0440 -1.0267
 6668TIP3   OH241494   4.299   6.846  12.573  0.0638  0.0859  0.6357
 6668TIP3    H141495   4.259   6.862  12.487 -1.7950 -0.5768  1.3104
 6668TIP3    H241496   4.392   6.838  12.556  0.2387  3.5797 -0.8216
 6669TIP3   OH241497   2.540   1.685   0.807  0.3071  0.2625 -0.6785
 6669TIP3    H141498   2.619   1.683   0.753  0.4277 -0.4637 -0.4809
 6669TIP3    H241499   2.519   1.593   0.822  0.3558  0.4542  0.6359
 6670TIP3   OH241500   2.162   6.761  11.120  0.1843  0.4102 -0.5587
 6670TIP3    H141501   2.106   6.690  11.151 -0.9841  0.8211 -1.6088
 6670TIP3    H241502   2.238   6.760  11.178 -2.5000  2.1719  3.4244
 6671TIP3   OH241503   4.817   0.019  11.775  0.1037 -0.0524  0.3800
 6671TIP3    H141504   4.897  -0.024  11.745 -0.1273 -0.1626 -0.0933
 6671TIP3    H241505   4.845   0.076  11.846  0.5065 -0.5497  0.6227
 6672TIP3   OH241506   4.874   6.100   3.739  0.0226 -0.3209  0.0488
 6672TIP3    H141507   4.812   6.172   3.729  0.3494  0.0621  0.7089
 6672TIP3    H241508   4.941   6.133   3.799  0.9670 -0.6563 -0.7676
 6673TIP3   OH241509   3.612   4.644  15.040 -0.3700  0.0752 -0.6089
 6673TIP3    H141510   3.691   4.602  15.075 -2.1516 -2.1069  1.1390
 6673TIP3    H241511   3.631   4.738  15.042  2.8243 -0.4255 -2.0543
 6674TIP3   OH241512   2.601   3.016  15.414  0.2143  0.1978 -0.3527
 6674TIP3    H141513   2.542   3.014  15.339  0.4482 -0.9401 -0.5124
 6674TIP3    H241514   2.641   2.929  15.416  0.0025  0.1141  1.2550
 6675TIP3   OH241515   3.482   4.392  15.618 -0.0557 -1.1986  0.3662
 6675TIP3    H141516   3.502   4.481  15.647  1.2157 -0.8891 -1.2745
 6675TIP3    H241517   3.400   4.401  15.569  1.5604 -0.2139 -2.4438
 6676TIP3   OH241518   1.481   4.288  15.833  0.2304 -0.2241 -0.4168
 6676TIP3    H141519   1.550   4.275  15.898  2.0308  2.6498 -1.5305
 6676TIP3    H241520   1.401   4.295  15.885  0.7298 -3.0654  0.9724
 6677TIP3   OH241521   3.599   3.382  14.238  0.2360  0.7866 -0.2614
 6677TIP3    H141522   3.566   3.308  14.290 -1.0946  1.9231  0.5850
 6677TIP3    H241523   3.659   3.342  14.175  0.7284 -0.8260  1.1522
 6678TIP3   OH241524   4.001   6.094  15.859 -0.5157  0.2148 -0.4368
 6678TIP3    H141525   4.087   6.135  15.844 -0.5046  1.7423  2.9004
 6678TIP3    H241526   3.944   6.166  15.883 -1.7536 -1.1844  1.0527
 6679TIP3   OH241527   6.685   4.710   5.141  0.0595  0.3885 -0.1609
 6679TIP3    H141528   6.616   4.663   5.094  0.6930 -0.7368 -0.0160
 6679TIP3    H241529   6.639   4.779   5.188 -0.8929  0.0156 -0.5108
 6680TIP3   OH241530   4.591   0.272  13.093 -0.5704 -1.0778  0.0354
 6680TIP3    H141531   4.572   0.348  13.038  1.8730 -0.0380  0.4656
 6680TIP3    H241532   4.519   0.268  13.156 -0.5879  1.1481  0.2268
 6681TIP3   OH241533   5.818   2.257  15.514 -0.6617 -0.0640  0.0616
 6681TIP3    H141534   5.759   2.214  15.577  0.5642 -1.4597  0.3016
 6681TIP3    H241535   5.902   2.263  15.559  0.1247 -0.6751 -1.2757
 6682TIP3   OH241536   3.339   5.407  11.776  0.2820  0.3296 -0.4006
 6682TIP3    H141537   3.253   5.448  11.783 -0.2191 -0.7644 -0.1127
 6682TIP3    H241538   3.342   5.374  11.686  0.7256  1.0640 -0.6635
 6683TIP3   OH241539   0.104   4.144  13.362 -1.1684 -0.4426  0.6774
 6683TIP3    H141540   0.092   4.057  13.400 -1.3815 -0.9464 -0.5031
 6683TIP3    H241541   0.175   4.182  13.414 -1.0943 -1.3001  1.2416
 6684TIP3   OH241542   4.036   3.712  11.138  0.2175 -0.2019  0.0820
 6684TIP3    H141543   4.093   3.733  11.064 -1.2291  0.0827 -1.0049
 6684TIP3    H241544   3.971   3.652  11.102 -2.5252  2.4630  0.1690
 6685TIP3   OH241545   1.987   3.745  11.754  0.7321 -0.5478 -0.2834
 6685TIP3    H141546   2.079   3.722  11.740  0.7044 -0.2968 -0.9402
 6685TIP3    H241547   1.989   3.837  11.780  0.5604  0.1718 -2.5338
 6686TIP3   OH241548   0.512   6.718   1.928  0.2096  0.0017 -0.2847
 6686TIP3    H141549   0.509   6.717   1.832 -0.3631 -0.6528 -0.2703
 6686TIP3    H241550   0.523   6.626   1.952  1.2726  0.2606  0.2644
 6687TIP3   OH241551   6.236   0.346  17.073 -0.1568 -0.0718  0.1106
 6687TIP3    H141552   6.160   0.400  17.050  1.5546  2.0280 -0.9150
 6687TIP3    H241553   6.234   0.275  17.009 -1.2952 -0.1223  0.1695
 6688TIP3   OH241554   1.314   0.466   6.121  0.3101  0.6459 -0.4834
 6688TIP3    H141555   1.261   0.487   6.198 -0.8564 -2.8018 -0.1735
 6688TIP3    H241556   1.401   0.498   6.143 -0.1108  0.2898  2.0415
 6689TIP3   OH241557   4.582   3.188  14.946  0.3071 -0.1712  0.2665
 6689TIP3    H141558   4.635   3.123  14.898  2.5188  1.5429  0.2141
 6689TIP3    H241559   4.592   3.268  14.896  0.2855  0.9698  2.0013
 6690TIP3   OH241560   3.719   4.310  10.247 -0.0253 -0.4098 -0.4678
 6690TIP3    H141561   3.721   4.355  10.331 -0.8334 -0.9611 -0.1381
 6690TIP3    H241562   3.625   4.300  10.228  0.1474 -1.1399 -0.9692
 6691TIP3   OH241563   5.505   4.932  11.295  0.0156 -0.1033  0.5294
 6691TIP3    H141564   5.440   4.974  11.352  0.5295  2.1054 -0.4297
 6691TIP3    H241565   5.458   4.916  11.213  0.4710  0.9441  0.0434
 6692TIP3   OH241566   4.088   4.107  14.287 -0.1862  0.0582  0.5212
 6692TIP3    H141567   4.175   4.146  14.277  0.2221 -0.8705  0.3423
 6692TIP3    H241568   4.027   4.179  14.272  0.4950  0.1645 -2.2428
 6693TIP3   OH241569   0.525   5.652  10.839 -0.6396 -0.0649  0.0813
 6693TIP3    H141570   0.480   5.578  10.798 -0.1212 -0.0738 -0.5001
 6693TIP3    H241571   0.566   5.615  10.917 -1.1118 -0.1948  0.2710
 6694TIP3   OH241572   3.485   0.725  15.636  0.6775 -0.4222 -0.2435
 6694TIP3    H141573   3.479   0.779  15.557 -0.5573  0.1193  0.1788
 6694TIP3    H241574   3.410   0.754  15.690  1.7608 -0.4323  1.3361
 6695TIP3   OH241575   5.791   5.465   6.169 -0.3514  0.0605 -0.7304
 6695TIP3    H141576   5.712   5.415   6.186 -0.6084  0.2160 -1.4298
 6695TIP3    H241577   5.775   5.508   6.085  0.9434 -0.8610 -1.4788
 6696TIP3   OH241578   2.056   2.073  12.476 -0.4121 -0.5846  0.1494
 6696TIP3    H141579   2.087   1.995  12.522  0.8650 -0.1966  0.0085
 6696TIP3    H241580   1.962   2.062  12.469 -0.1022 -3.0336 -1.5198
 6697TIP3   OH241581   5.712   3.851   5.033 -0.1839 -0.4813  0.0062
 6697TIP3    H141582   5.684   3.910   4.963  1.0834 -1.3233 -1.2570
 6697TIP3    H241583   5.769   3.905   5.089  0.1695 -0.2315 -0.5841
 6698TIP3   OH241584   0.082   6.154  17.012  0.1167 -0.0676 -0.0310
 6698TIP3    H141585   0.125   6.069  17.020  0.7268  0.3079  0.7929
 6698TIP3    H241586   0.087   6.175  16.918 -0.8098 -1.3177 -0.3850
 6699TIP3   OH241587   3.423   6.113   4.913  0.4710 -0.0583 -0.1013
 6699TIP3    H141588   3.356   6.163   4.867  0.2329  0.8371  1.1626
 6699TIP3    H241589   3.430   6.031   4.864 -0.2295  0.5830 -1.3185
 6700TIP3   OH241590   6.275   3.390  13.813 -0.1967  0.3943 -0.0313
 6700TIP3    H141591   6.296   3.483  13.808 -0.0725  0.2967 -2.8194
 6700TIP3    H241592   6.357   3.346  13.793 -0.8968 -0.2071 -1.7221
 6701TIP3   OH241593   2.345   4.551  17.086 -0.3283  0.4995 -0.4058
 6701TIP3    H141594   2.413   4.619  17.086 -0.3509  0.5425  1.2834
 6701TIP3    H241595   2.351   4.513  16.998 -1.0093  3.3419 -1.8190
 6702TIP3   OH241596   4.493   1.265  12.873 -0.0348 -0.2215  0.2394
 6702TIP3    H141597   4.580   1.242  12.905 -0.8383  0.0134  2.7741
 6702TIP3    H241598   4.452   1.181  12.853 -0.8192 -0.7761  3.6265
 6703TIP3   OH241599   3.634   6.591  15.551  0.5631  0.0099 -0.0417
 6703TIP3    H141600   3.716   6.588  15.501 -0.6248 -1.0731 -2.1056
 6703TIP3    H241601   3.608   6.500  15.560 -0.4971  0.3410  0.4347
 6704TIP3   OH241602   0.613   1.310   5.296  0.6389  0.4619 -0.2577
 6704TIP3    H141603   0.616   1.363   5.375  3.0774 -1.3664  0.9722
 6704TIP3    H241604   0.704   1.303   5.267 -0.1202  0.6941 -3.0205
 6705TIP3   OH241605   1.432   3.513   1.686 -1.0045  0.2587 -0.5209
 6705TIP3    H141606   1.518   3.556   1.684 -1.2834  0.8137 -1.2243
 6705TIP3    H241607   1.384   3.558   1.755 -0.5580 -0.4242  0.2567
 6706TIP3   OH241608   3.265   5.000   3.075 -0.2766 -0.6844 -0.8346
 6706TIP3    H141609   3.236   5.029   3.162 -2.4406 -1.8688 -1.0798
 6706TIP3    H241610   3.289   5.080   3.029  0.4811  0.0035  0.6754
 6707TIP3   OH241611   3.700   3.970  15.850  0.7669  0.1873  0.4037
 6707TIP3    H141612   3.702   3.900  15.785 -1.3295 -0.0528  0.5133
 6707TIP3    H241613   3.645   4.038  15.811  3.7206  2.4047 -0.2033
 6708TIP3   OH241614   2.184   3.456  13.478 -0.3547 -1.0486 -0.3193
 6708TIP3    H141615   2.174   3.451  13.382  0.1781  0.4274 -0.4831
 6708TIP3    H241616   2.103   3.418  13.512 -1.0667 -0.5471 -1.3802
 6709TIP3   OH241617   6.400   5.933   4.558 -0.4128 -0.1482  0.0404
 6709TIP3    H141618   6.451   5.925   4.638  1.3564  1.1649 -0.8772
 6709TIP3    H241619   6.363   6.022   4.562 -1.6657 -0.6469  0.1170
 6710TIP3   OH241620   3.197   3.844   5.611  0.7062 -0.2373 -0.1027
 6710TIP3    H141621   3.146   3.921   5.586 -0.3760 -0.5361  1.1166
 6710TIP3    H241622   3.137   3.771   5.598  1.7860 -0.9492 -1.4481
 6711TIP3   OH241623   2.664   6.410   1.878  0.0613  0.2452 -0.1330
 6711TIP3    H141624   2.656   6.437   1.787  0.1242 -0.0096 -0.2148
 6711TIP3    H241625   2.640   6.317   1.877  1.6668 -0.1890 -0.1594
 6712TIP3   OH241626   5.797   4.440  10.754  0.7626  0.1424  0.4712
 6712TIP3    H141627   5.736   4.437  10.828  0.2078 -2.3821  0.0211
 6712TIP3    H241628   5.857   4.511  10.775 -0.9094  1.1557  2.0919
 6713TIP3   OH241629   2.327   5.612   0.774  0.3806 -0.0890  0.3313
 6713TIP3    H141630   2.366   5.528   0.751  0.2099 -0.0187 -0.2420
 6713TIP3    H241631   2.353   5.671   0.703 -0.1112  0.1494  0.3399
 6714TIP3   OH241632   2.380   2.179  15.498  0.1665  0.1660 -0.1029
 6714TIP3    H141633   2.426   2.234  15.561 -1.7431  1.7143  0.0075
 6714TIP3    H241634   2.426   2.194  15.415  1.2488 -0.1148  0.4183
 6715TIP3   OH241635   6.044   2.212   1.660  0.0785 -0.6154  0.4848
 6715TIP3    H141636   6.113   2.160   1.618  0.7762  0.5705  0.0868
 6715TIP3    H241637   5.980   2.228   1.590  0.4631  0.0420  0.2691
 6716TIP3   OH241638   4.378   4.144  14.319  0.1236 -0.7426 -0.6449
 6716TIP3    H141639   4.455   4.136  14.375  0.8580 -2.2708 -1.8103
 6716TIP3    H241640   4.371   4.238  14.303  0.7745 -0.4184  0.7838
 6717TIP3   OH241641   0.821   0.079  14.862  0.4923  0.7298  0.2543
 6717TIP3    H141642   0.747   0.085  14.802 -0.3341  1.0936  1.2736
 6717TIP3    H241643   0.785   0.103  14.947  1.8817  1.3232  0.7095
 6718TIP3   OH241644   3.808   5.290  15.706 -0.0009 -0.7383  0.2616
 6718TIP3    H141645   3.903   5.296  15.707  0.1886 -2.5912 -0.7879
 6718TIP3    H241646   3.778   5.380  15.700  1.6967 -0.1351  0.3078
 6719TIP3   OH241647   5.860   5.672   1.338 -0.2579  0.0976  0.0185
 6719TIP3    H141648   5.865   5.756   1.383  0.3179 -1.4157  2.9952
 6719TIP3    H241649   5.950   5.656   1.308 -0.8263  1.5935 -2.9281
 6720TIP3   OH241650   6.598   5.813   6.183  0.3099  0.6372  0.7995
 6720TIP3    H141651   6.524   5.752   6.182 -0.8132  1.9521  0.8757
 6720TIP3    H241652   6.591   5.858   6.268  2.3184 -0.4901  1.6536
 6721TIP3   OH241653   2.558   6.015  12.720  0.0580  0.5398 -0.3251
 6721TIP3    H141654   2.603   5.999  12.637 -1.5432  1.5309 -1.4475
 6721TIP3    H241655   2.478   6.061  12.695 -1.4664 -0.8911  1.5803
 6722TIP3   OH241656   4.435   3.419   1.165 -0.1457 -0.1109 -0.2035
 6722TIP3    H141657   4.388   3.362   1.104  0.1495 -1.2318  0.5812
 6722TIP3    H241658   4.528   3.404   1.144 -0.0212 -0.9077  0.8426
 6723TIP3   OH241659   3.825   2.155   5.655 -0.1224  0.0099  0.0424
 6723TIP3    H141660   3.877   2.234   5.642  0.5766 -0.1640  1.5738
 6723TIP3    H241661   3.860   2.116   5.735 -1.8639 -0.7292  0.4908
 6724TIP3   OH241662   3.080   2.001   4.470  0.1665  0.2791 -0.5442
 6724TIP3    H141663   2.994   1.964   4.450  0.0575 -0.6149  1.3452
 6724TIP3    H241664   3.121   1.935   4.526  1.2087  1.6660  0.3880
 6725TIP3   OH241665   3.962   5.531   5.657  0.4847 -0.2219  0.6346
 6725TIP3    H141666   3.986   5.602   5.716  2.2471  0.3173 -0.6331
 6725TIP3    H241667   4.044   5.509   5.612 -0.6428 -1.0510 -1.1176
 6726TIP3   OH241668   0.220   5.873  11.345  0.5671  0.0729  0.7315
 6726TIP3    H141669   0.226   5.964  11.315 -1.2044 -0.1407 -0.4032
 6726TIP3    H241670   0.282   5.868  11.417  1.7653  1.7991 -0.0985
 6727TIP3   OH241671   3.263   1.658  11.716 -0.2529 -0.0654  0.4890
 6727TIP3    H141672   3.337   1.642  11.775  0.5346  0.4446 -0.3290
 6727TIP3    H241673   3.188   1.671  11.774  0.3022 -0.5821  1.3367
 6728TIP3   OH241674   1.855   0.558  11.112 -0.0079 -0.2450 -0.5454
 6728TIP3    H141675   1.873   0.476  11.157  0.8459  0.3879  0.3162
 6728TIP3    H241676   1.760   0.562  11.104 -0.0113 -2.6558 -3.1995
 6729TIP3   OH241677   2.239   6.802   2.139 -0.3181 -1.0952 -0.4421
 6729TIP3    H141678   2.145   6.812   2.154 -0.4714 -2.3092 -0.4436
 6729TIP3    H241679   2.273   6.769   2.222  0.2774  0.1939 -0.1539
 6730TIP3   OH241680   4.806   1.614   6.472 -0.9691 -0.7935  0.0945
 6730TIP3    H141681   4.799   1.550   6.400  1.3339 -0.3839 -0.5702
 6730TIP3    H241682   4.899   1.612   6.496 -0.8611  2.1398  0.2078
 6731TIP3   OH241683   0.541   4.487  11.257  0.5023 -0.0611 -0.1192
 6731TIP3    H141684   0.530   4.451  11.169  0.9093  0.8503 -0.5552
 6731TIP3    H241685   0.631   4.519  11.259 -0.1098  1.7412 -0.0646
 6732TIP3   OH241686   2.977   1.461   5.534  0.2507  0.0871  1.1176
 6732TIP3    H141687   2.922   1.392   5.571 -0.7500  0.9952  1.3870
 6732TIP3    H241688   2.944   1.542   5.574 -0.5398  1.0736 -1.3321
 6733TIP3   OH241689   1.756   5.159   1.113  0.5255 -0.0712  0.0160
 6733TIP3    H141690   1.750   5.087   1.176 -2.4408 -1.8044 -2.0145
 6733TIP3    H241691   1.838   5.143   1.066 -0.0031 -2.0594 -0.2889
 6734TIP3   OH241692   6.001   1.466   2.500 -0.0509  0.2119  0.4282
 6734TIP3    H141693   6.028   1.376   2.484  0.3680  0.3638  0.2808
 6734TIP3    H241694   5.959   1.464   2.587  2.1534  0.3207  1.5735
 6735TIP3   OH241695   1.732   6.000  14.406  0.1781 -0.2818 -0.0188
 6735TIP3    H141696   1.732   5.905  14.418  0.6314 -0.4269 -1.0730
 6735TIP3    H241697   1.800   6.031  14.466  0.8112 -0.7389 -0.4849
 6736TIP3   OH241698   1.338   4.582  10.352 -0.4875 -0.1486 -0.4830
 6736TIP3    H141699   1.297   4.520  10.413 -0.6428  1.9084  1.6399
 6736TIP3    H241700   1.432   4.568  10.363 -0.5105  0.3503  0.4142
 6737TIP3   OH241701   1.539   2.426   3.623 -0.5561 -0.2452 -0.5615
 6737TIP3    H141702   1.610   2.473   3.580  2.3325 -3.1108  0.7358
 6737TIP3    H241703   1.509   2.362   3.559  0.0377 -0.9439 -0.1491
 6738TIP3   OH241704   4.956   1.159  15.870  0.5377  0.8498  0.2050
 6738TIP3    H141705   4.968   1.221  15.942 -0.8788  0.3377  0.9095
 6738TIP3    H241706   4.862   1.159  15.852  0.6498 -0.2554 -0.5426
 6739TIP3   OH241707   2.733   4.948   5.198  0.7144  0.0518 -0.0610
 6739TIP3    H141708   2.660   4.892   5.173  1.1899 -0.0082 -1.3918
 6739TIP3    H241709   2.801   4.887   5.228  0.9943 -0.0459 -0.8836
 6740TIP3   OH241710   3.054   0.018   2.143 -0.7497  0.2550  0.5589
 6740TIP3    H141711   3.035  -0.059   2.090  0.2873  0.1853  0.2832
 6740TIP3    H241712   2.992   0.084   2.111 -0.0172  0.2759 -0.8888
 6741TIP3   OH241713   4.071   4.877   2.314  0.7303  0.0020  0.0327
 6741TIP3    H141714   4.078   4.937   2.389  0.8781 -0.5664  0.4780
 6741TIP3    H241715   4.148   4.897   2.261  2.1321 -1.4418  1.4108
 6742TIP3   OH241716   0.436   5.012   0.977 -0.8667  0.1925  0.2399
 6742TIP3    H141717   0.390   4.950   1.034 -1.0829 -1.3116 -1.4877
 6742TIP3    H241718   0.472   5.078   1.037 -2.3037 -0.5048  1.9607
 6743TIP3   OH241719   6.817   2.051   6.089  0.8107 -0.1125 -0.1418
 6743TIP3    H141720   6.843   2.143   6.076  1.4573  0.1988  2.6154
 6743TIP3    H241721   6.869   2.003   6.025  1.3750  1.3482 -0.8467
 6744TIP3   OH241722   0.352   6.321  14.651  0.8269 -0.2329 -0.0172
 6744TIP3    H141723   0.410   6.258  14.693  0.8321 -0.0518  0.2503
 6744TIP3    H241724   0.323   6.378  14.722  3.6023  2.3104 -0.7303
 6745TIP3   OH241725   0.262   0.309   5.992 -0.5192 -0.5690 -0.5324
 6745TIP3    H141726   0.214   0.360   6.057 -1.3137 -1.5016 -0.3544
 6745TIP3    H241727   0.333   0.268   6.042 -0.0217  0.1689 -0.6296
 6746TIP3   OH241728   2.907   1.724   5.383 -0.2349 -0.2179 -0.3885
 6746TIP3    H141729   2.849   1.689   5.451  0.1009 -2.4878 -1.1694
 6746TIP3    H241730   2.965   1.783   5.430 -2.4996  1.3691  0.5793
 6747TIP3   OH241731   2.555   4.745   0.716 -0.0187  0.1696 -0.1542
 6747TIP3    H141732   2.476   4.690   0.722  0.9954 -1.5634 -1.7606
 6747TIP3    H241733   2.624   4.692   0.755  0.4049  1.6942  1.2929
 6748TIP3   OH241734   2.188   2.102   0.781  0.1158 -0.0376  0.3200
 6748TIP3    H141735   2.222   2.013   0.772 -1.5438 -0.6099 -0.7270
 6748TIP3    H241736   2.210   2.127   0.871 -1.4868 -2.4856  1.5252
 6749TIP3   OH241737   0.310   6.613   3.200 -0.2931  0.0001 -0.5799
 6749TIP3    H141738   0.400   6.619   3.230 -1.1297  0.5376  2.0988
 6749TIP3    H241739   0.317   6.584   3.109  2.5705  0.7668 -0.7074
 6750TIP3   OH241740   2.301   2.053  12.172 -0.2822 -0.1007  0.0614
 6750TIP3    H141741   2.293   2.103  12.252  3.7613 -2.2288  2.1004
 6750TIP3    H241742   2.224   1.996  12.171 -1.7069  1.7205  0.9632
 6751TIP3   OH241743   1.990   3.419   4.502  0.9699  0.0115 -0.0873
 6751TIP3    H141744   2.026   3.491   4.451  0.6709  0.2379  0.0147
 6751TIP3    H241745   1.896   3.438   4.507  0.9612 -0.1343  0.3449
 6752TIP3   OH241746   0.895   3.687   2.786  0.4200 -0.2519  1.0123
 6752TIP3    H141747   0.814   3.665   2.832 -0.0435 -1.0848 -0.1575
 6752TIP3    H241748   0.964   3.667   2.849 -0.2773  1.2875  2.3499
 6753TIP3   OH241749   5.699   2.556  14.006 -0.7705  0.7418  0.0748
 6753TIP3    H141750   5.762   2.513  14.065  1.0116  2.6503 -0.3321
 6753TIP3    H241751   5.666   2.485  13.950 -0.2771 -0.5913  1.3938
 6754TIP3   OH241752   5.184   0.260   1.018  0.6615 -0.1089  0.3426
 6754TIP3    H141753   5.136   0.304   1.088 -0.8388 -0.4425 -0.4365
 6754TIP3    H241754   5.193   0.325   0.949  0.9163 -0.1932  0.2930
 6755TIP3   OH241755   2.687   2.243   2.408  0.2178  0.4364 -0.0422
 6755TIP3    H141756   2.601   2.220   2.444  0.5051  0.1067  0.4381
 6755TIP3    H241757   2.718   2.162   2.368  0.5653  0.3952  0.3090
 6756TIP3   OH241758   1.844   6.559  13.459  0.0828 -0.5765 -0.8207
 6756TIP3    H141759   1.809   6.634  13.411 -0.4811 -0.2430  0.0819
 6756TIP3    H241760   1.934   6.551  13.428  0.4953  1.1176 -0.2371
 6757TIP3   OH241761   1.009   0.668  11.052  0.0906  0.3849  0.4176
 6757TIP3    H141762   1.028   0.604  10.982 -1.6622  0.6415 -0.3289
 6757TIP3    H241763   0.997   0.751  11.006  0.3228  0.8507  1.1832
 6758TIP3   OH241764   5.734   2.741  15.951 -0.1820  0.0784 -0.3259
 6758TIP3    H141765   5.730   2.837  15.951  0.1008  0.0915 -0.4686
 6758TIP3    H241766   5.695   2.716  16.034 -1.1462  0.2759 -0.7093
 6759TIP3   OH241767   6.702   0.360  13.638  0.2280  0.4186  0.2319
 6759TIP3    H141768   6.786   0.374  13.594 -0.1603 -1.6974 -1.3298
 6759TIP3    H241769   6.649   0.435  13.613  0.1790 -0.4814 -2.6747
 6760TIP3   OH241770   6.284   4.738   4.598 -0.0023  0.0628  0.0496
 6760TIP3    H141771   6.330   4.747   4.515  0.0064  0.6273  0.1090
 6760TIP3    H241772   6.202   4.786   4.586  0.4697  1.0901  0.7023
 6761TIP3   OH241773   5.852   0.307   3.492  0.3273  0.3644 -0.4422
 6761TIP3    H141774   5.868   0.290   3.585 -1.2959 -1.3145 -0.4194
 6761TIP3    H241775   5.920   0.257   3.446  1.0286  1.0628 -0.1911
 6762TIP3   OH241776   0.158   1.696  16.338  0.3087  0.3742 -0.7867
 6762TIP3    H141777   0.100   1.657  16.403  0.3564 -1.8930 -1.9805
 6762TIP3    H241778   0.219   1.750  16.389 -0.7471  0.0921  0.8359
 6763TIP3   OH241779   5.511   6.111  13.361  0.1261 -0.3400  0.2152
 6763TIP3    H141780   5.478   6.055  13.291  1.0009 -0.3748 -0.1856
 6763TIP3    H241781   5.469   6.196  13.346  1.2650  0.0241 -1.1418
 6764TIP3   OH241782   1.071   6.211  12.648 -0.4579  0.3359  0.4836
 6764TIP3    H141783   1.082   6.174  12.560  0.0989  1.3497  0.1256
 6764TIP3    H241784   0.995   6.269  12.640  0.2883  1.3096  0.3808
 6765TIP3   OH241785   0.550   5.798   5.406 -0.7056  0.2022 -0.1571
 6765TIP3    H141786   0.582   5.736   5.471 -1.9642  0.0559  0.3582
 6765TIP3    H241787   0.489   5.748   5.352 -2.0939  1.0567  0.5582
 6766TIP3   OH241788   2.815   6.793  10.955 -0.1468  0.3825 -0.0899
 6766TIP3    H141789   2.830   6.846  10.876 -0.2183  0.5962  0.0374
 6766TIP3    H241790   2.720   6.798  10.969  0.1024  2.3176  1.3539
 6767TIP3   OH241791   1.313   4.008  12.476  0.2552  0.5121 -0.2243
 6767TIP3    H141792   1.397   3.968  12.498  0.0214 -0.0956 -0.3941
 6767TIP3    H241793   1.332   4.065  12.401  0.3056 -0.5739 -1.0679
 6768TIP3   OH241794   1.084   1.519  16.312 -0.1206 -0.4386  0.1964
 6768TIP3    H141795   1.075   1.494  16.220  1.3138  0.8899 -0.3447
 6768TIP3    H241796   0.998   1.554  16.335 -0.0375  0.7968 -1.1795
 6769TIP3   OH241797   2.002   4.733   3.223  0.0909 -0.0077 -0.5508
 6769TIP3    H141798   2.080   4.788   3.215 -0.1611  0.7168  1.4383
 6769TIP3    H241799   2.027   4.662   3.282 -0.7421  0.2724  0.1689
 6770TIP3   OH241800   1.079   3.769   3.910 -0.3674 -0.2131  0.0246
 6770TIP3    H141801   1.025   3.698   3.945 -0.3790 -0.8022 -1.1298
 6770TIP3    H241802   1.027   3.805   3.838 -0.9836  1.9138  1.4556
 6771TIP3   OH241803   0.468   1.503   3.143 -0.4604  0.5017 -0.5540
 6771TIP3    H141804   0.531   1.461   3.085 -1.2740 -1.6574  0.0256
 6771TIP3    H241805   0.402   1.435   3.160 -1.5791  1.8710  0.8777
 6772TIP3   OH241806   0.505   5.179  10.525 -0.1440 -0.2916 -0.3842
 6772TIP3    H141807   0.580   5.184  10.467  0.3091 -1.2538  0.0871
 6772TIP3    H241808   0.460   5.263  10.515 -1.8189 -1.4216 -4.4034
 6773TIP3   OH241809   1.987   2.978   4.811  0.3016  0.4750 -0.1159
 6773TIP3    H141810   1.894   2.965   4.794  0.8532 -1.5444 -1.9880
 6773TIP3    H241811   2.005   3.068   4.784 -1.1288  0.9781  0.5473
 6774TIP3   OH241812   1.966   0.043  14.457 -0.7680  0.4493  0.1268
 6774TIP3    H141813   1.913  -0.024  14.413 -0.3049  0.4571 -0.4501
 6774TIP3    H241814   2.033  -0.006  14.505 -0.3101  0.5001 -0.4515
 6775TIP3   OH241815   0.094   2.008  13.492 -0.1437  0.3491  0.1894
 6775TIP3    H141816   0.182   2.020  13.457 -0.8254  1.8750 -1.1714
 6775TIP3    H241817   0.046   2.086  13.463 -1.2615  0.9247  3.1781
 6776TIP3   OH241818   2.381   5.356  14.911  0.1697  0.1781  0.1109
 6776TIP3    H141819   2.288   5.374  14.926  0.1918 -0.0372  0.5174
 6776TIP3    H241820   2.414   5.326  14.996  0.0652 -2.1842 -0.6104
 6777TIP3   OH241821   3.414   4.951   2.790 -0.3062  0.0956 -0.3775
 6777TIP3    H141822   3.508   4.945   2.774 -0.3026 -2.3997  0.2190
 6777TIP3    H241823   3.407   4.990   2.878  0.3065 -1.6075  0.4767
 6778TIP3   OH241824   5.923   3.986   0.282 -0.1129 -0.4600  0.3835
 6778TIP3    H141825   5.889   4.033   0.357 -0.3222 -0.1106  0.0728
 6778TIP3    H241826   6.018   3.979   0.298 -0.2387 -0.9092  0.9571
 6779TIP3   OH241827   1.501   3.333   0.909 -0.3990  0.4465  0.0933
 6779TIP3    H141828   1.580   3.365   0.953 -0.3405  1.1078 -0.4763
 6779TIP3    H241829   1.431   3.390   0.940 -0.9686 -1.0522  1.7478
 6780TIP3   OH241830   1.259   5.735   1.859 -0.7053 -1.1399 -0.2324
 6780TIP3    H141831   1.229   5.745   1.769  0.4423  0.7448 -0.4474
 6780TIP3    H241832   1.202   5.792   1.911  0.4345  0.0301 -0.2104
 6781TIP3   OH241833   6.026   2.640   5.195 -0.8747  0.1073  0.2111
 6781TIP3    H141834   6.047   2.567   5.253 -1.3164  0.2971  0.6114
 6781TIP3    H241835   6.111   2.681   5.177 -0.7972  0.4056  1.2020
 6782TIP3   OH241836   5.297   6.251   3.493  0.1213 -0.1049  0.3738
 6782TIP3    H141837   5.309   6.319   3.560  0.0146  0.0866  0.2020
 6782TIP3    H241838   5.317   6.295   3.410 -1.0197  0.0329  0.1492
 6783TIP3   OH241839   2.480   3.633  13.410  0.0829 -0.2271 -0.3727
 6783TIP3    H141840   2.439   3.668  13.489  0.4190 -0.1245 -0.2393
 6783TIP3    H241841   2.543   3.700  13.384 -0.3533 -0.0525 -1.0001
 6784TIP3   OH241842   2.539   0.565   5.802 -0.2644 -0.0422 -0.1758
 6784TIP3    H141843   2.628   0.533   5.820 -0.0991  0.9564  0.9205
 6784TIP3    H241844   2.525   0.633   5.867 -1.2816  0.8515 -1.2826
 6785TIP3   OH241845   3.688   1.984  12.003  0.6919 -0.0372 -0.1403
 6785TIP3    H141846   3.700   1.892  12.029 -0.3683 -0.2595 -0.3620
 6785TIP3    H241847   3.606   2.010  12.046  0.1485  0.3111 -1.3434
 6786TIP3   OH241848   4.727   4.374  11.887 -0.4382 -0.1789 -0.0693
 6786TIP3    H141849   4.682   4.339  11.810  0.1008 -1.6471  0.2529
 6786TIP3    H241850   4.659   4.379  11.954 -0.5261 -0.5973 -0.1261
 6787TIP3   OH241851   5.763   5.081   2.063  0.0365 -0.0886 -0.2886
 6787TIP3    H141852   5.735   5.004   2.112  1.2577  0.9382  2.1621
 6787TIP3    H241853   5.857   5.068   2.050 -0.3934 -0.8424 -3.4403
 6788TIP3   OH241854   5.683   1.264   1.372 -0.0631 -0.0223  0.5488
 6788TIP3    H141855   5.735   1.338   1.404 -0.7965  0.6804  0.1366
 6788TIP3    H241856   5.748   1.202   1.338  0.5869  0.1900  1.3733
 6789TIP3   OH241857   1.170   3.117   5.860 -0.6649  0.1515 -0.0782
 6789TIP3    H141858   1.189   3.200   5.816 -1.0135  0.0778 -0.3713
 6789TIP3    H241859   1.144   3.143   5.949 -0.8014  0.3614 -0.1773
 6790TIP3   OH241860   2.042   0.198  15.112 -0.0936  0.1454  0.2523
 6790TIP3    H141861   1.954   0.161  15.117 -0.2642  0.4341 -0.6077
 6790TIP3    H241862   2.090   0.153  15.182 -0.2899 -1.7127 -0.7651
 6791TIP3   OH241863   1.186   2.253   1.865  0.5264  0.2343  0.2580
 6791TIP3    H141864   1.277   2.223   1.872  0.9491  1.1397 -0.9457
 6791TIP3    H241865   1.194   2.346   1.842 -0.7089  1.2505  3.4155
 6792TIP3   OH241866   6.045   6.178   4.464 -0.4371  0.2007  0.3863
 6792TIP3    H141867   5.974   6.182   4.527  0.9530  0.0717  2.0544
 6792TIP3    H241868   6.062   6.084   4.452 -0.9102  0.2149 -0.4599
 6793TIP3   OH241869   0.744   1.235   0.650  0.0220 -0.0171  0.0798
 6793TIP3    H141870   0.802   1.303   0.682  1.0929 -0.6766 -0.4004
 6793TIP3    H241871   0.734   1.176   0.725  1.5805 -0.9360 -0.3857
 6794TIP3   OH241872   5.678   4.583   4.935 -0.4695  0.2643  0.2339
 6794TIP3    H141873   5.729   4.577   4.854 -0.2593  1.7707  0.2138
 6794TIP3    H241874   5.612   4.650   4.917 -1.0106 -0.0421  1.0096
 6795TIP3   OH241875   6.052   5.054  11.498 -0.3321 -0.2877 -1.0509
 6795TIP3    H141876   5.967   5.014  11.518  0.0426 -0.0615  1.2459
 6795TIP3    H241877   6.030   5.145  11.479 -0.6844 -0.4251 -1.3282
 6796TIP3   OH241878   6.804   1.487   1.549  0.2297  0.5795 -0.3971
 6796TIP3    H141879   6.801   1.468   1.642 -0.2324 -0.9216 -0.6896
 6796TIP3    H241880   6.784   1.581   1.543 -0.7206  0.4921  0.9505
 6797TIP3   OH241881   6.646   2.969  11.854 -0.1365  0.0928 -0.2638
 6797TIP3    H141882   6.727   2.957  11.804 -0.4436  1.1065 -1.0514
 6797TIP3    H241883   6.668   3.033  11.921  0.5116 -1.8990  1.5507
 6798TIP3   OH241884   5.895   2.469  13.704  1.0217  0.1160  0.7943
 6798TIP3    H141885   5.912   2.563  13.714  0.8700 -0.0221  2.9695
 6798TIP3    H241886   5.975   2.428  13.737  0.6314 -0.5209  0.9467
 6799TIP3   OH241887   4.790   5.546  14.991  0.6802  0.0306 -0.1581
 6799TIP3    H141888   4.847   5.472  14.968 -0.2105 -0.3806 -1.1477
 6799TIP3    H241889   4.703   5.519  14.961 -0.3546  0.0359  2.5393
 6800TIP3   OH241890   4.090   4.547  11.141  0.0928 -0.2338 -0.1321
 6800TIP3    H141891   4.046   4.580  11.063  1.0967  0.3702 -0.4478
 6800TIP3    H241892   4.168   4.503  11.108  1.7235  1.9480  0.6363
 6801TIP3   OH241893   6.707   0.949  15.674 -0.5537  0.1366  0.2005
 6801TIP3    H141894   6.659   0.968  15.594 -2.1029 -0.2090  0.9971
 6801TIP3    H241895   6.718   1.034  15.717  1.3378  0.4899 -0.9060
 6802TIP3   OH241896   3.066   6.693   1.933 -0.4782  0.3263 -0.4573
 6802TIP3    H141897   3.011   6.703   1.856  0.4048  1.5959 -0.9655
 6802TIP3    H241898   3.102   6.605   1.926  1.0688  1.0364 -2.5616
 6803TIP3   OH241899   0.128   5.096  17.034  0.1429  0.1621  0.4153
 6803TIP3    H141900   0.076   5.021  17.006  1.7656 -0.7909 -0.2263
 6803TIP3    H241901   0.179   5.120  16.956  1.1205  0.6399  1.1722
 6804TIP3   OH241902   0.951   5.928  14.730 -0.7181  0.8446 -0.6193
 6804TIP3    H141903   0.899   6.002  14.762 -1.3876 -0.4581  1.5476
 6804TIP3    H241904   0.886   5.864  14.701 -0.3188 -0.2903  0.9046
 6805TIP3   OH241905   4.240   5.318   5.639  0.5469  0.0969 -0.2717
 6805TIP3    H141906   4.220   5.409   5.662  2.3229  0.7500 -1.1583
 6805TIP3    H241907   4.244   5.319   5.543 -0.9099 -1.2838 -0.3931
 6806TIP3   OH241908   5.585   4.483   4.517 -0.4685  0.1875  0.5114
 6806TIP3    H141909   5.655   4.488   4.452 -1.6631 -0.4789 -0.8804
 6806TIP3    H241910   5.516   4.432   4.474 -0.8683 -1.2380  2.7077
 6807TIP3   OH241911   1.057   4.077  13.475 -0.3634 -0.0209  0.4093
 6807TIP3    H141912   1.032   4.050  13.563  0.2234  0.4535  0.7309
 6807TIP3    H241913   1.110   4.156  13.488  1.3983 -1.0266 -0.2091
 6808TIP3   OH241914   4.775   2.273   2.333  0.1117  0.3869  0.0860
 6808TIP3    H141915   4.776   2.234   2.245 -2.5226 -0.2795  0.2687
 6808TIP3    H241916   4.751   2.200   2.391 -1.3948  1.4792  0.9065
 6809TIP3   OH241917   4.622   4.669   1.114 -0.8488  0.6431 -0.2024
 6809TIP3    H141918   4.574   4.751   1.101 -0.5416  0.8357 -0.1510
 6809TIP3    H241919   4.703   4.696   1.157 -0.1523  0.4746 -1.3598
 6810TIP3   OH241920   0.843   6.733   5.916 -0.8856 -0.0616  0.0860
 6810TIP3    H141921   0.924   6.689   5.890 -1.1189 -1.4704  1.5919
 6810TIP3    H241922   0.857   6.757   6.008 -1.7610  0.7241  0.0322
 6811TIP3   OH241923   4.834   0.322  13.526 -0.3688 -0.1803 -0.4020
 6811TIP3    H141924   4.851   0.357  13.613 -2.7780  1.4834 -0.4937
 6811TIP3    H241925   4.903   0.359  13.471  0.0553  0.3311  0.4595
 6812TIP3   OH241926   4.208   2.942  11.447  0.0110  0.2014 -0.0923
 6812TIP3    H141927   4.263   2.999  11.392 -0.8709  1.0007 -0.1676
 6812TIP3    H241928   4.147   2.902  11.385 -1.5042  1.7068  0.3584
 6813TIP3   OH241929   0.712   2.645  10.557  0.2723  0.0970 -0.0726
 6813TIP3    H141930   0.676   2.559  10.535 -1.8681  1.1534 -1.0391
 6813TIP3    H241931   0.773   2.665  10.486 -0.0721 -0.1565 -0.4403
 6814TIP3   OH241932   3.832   5.714   6.657 -0.6607  0.2276  0.0983
 6814TIP3    H141933   3.774   5.767   6.602  1.0015  0.8801 -1.0866
 6814TIP3    H241934   3.862   5.644   6.600  1.1106  0.9267  0.1117
 6815TIP3   OH241935   4.089   1.688   2.305  0.3908 -0.2215 -0.3355
 6815TIP3    H141936   4.023   1.644   2.358  0.3303 -0.6229 -0.7371
 6815TIP3    H241937   4.172   1.650   2.334  0.5245  0.8228  0.6961
 6816TIP3   OH241938   2.061   0.873  11.383 -0.1813 -0.0458  0.2581
 6816TIP3    H141939   1.999   0.805  11.359  1.1496 -1.4026  0.5338
 6816TIP3    H241940   2.093   0.848  11.469  0.5678  0.7550  0.2354
 6817TIP3   OH241941   2.480   2.957   1.105 -0.2654 -0.3157  0.0161
 6817TIP3    H141942   2.559   2.961   1.051  0.0136  0.1869  0.4500
 6817TIP3    H241943   2.414   2.917   1.049  0.2707 -0.6416 -0.3875
 6818TIP3   OH241944   5.484   2.445   3.820 -0.3313  0.3917 -0.1807
 6818TIP3    H141945   5.490   2.526   3.871 -0.2997  1.1144 -1.2903
 6818TIP3    H241946   5.460   2.378   3.884 -1.4138  1.4726  0.5824
 6819TIP3   OH241947   6.634   3.852  15.618  0.2643 -0.3237  0.1705
 6819TIP3    H141948   6.708   3.818  15.669 -0.4866 -2.5854 -0.1454
 6819TIP3    H241949   6.624   3.790  15.546  0.3284  1.9401 -1.9359
 6820TIP3   OH241950   1.982   5.739   4.772 -0.2059  0.2349  0.6235
 6820TIP3    H141951   2.010   5.683   4.700 -0.2458  0.7406  0.2063
 6820TIP3    H241952   1.978   5.681   4.848 -0.2362 -0.3197  0.2034
 6821TIP3   OH241953   5.167   5.704  11.593 -0.2403 -0.0349 -0.1790
 6821TIP3    H141954   5.235   5.765  11.622 -0.4337  0.1117 -0.0324
 6821TIP3    H241955   5.131   5.668  11.673 -1.2571  0.8984 -0.1982
 6822TIP3   OH241956   2.374   5.540   3.703  0.2482  0.1308  0.0427
 6822TIP3    H141957   2.459   5.518   3.742 -0.9871 -0.6463  2.4872
 6822TIP3    H241958   2.356   5.628   3.735  0.4906  0.6420 -1.1904
 6823TIP3   OH241959   5.110   1.683  12.698 -0.6940 -0.4020 -1.2074
 6823TIP3    H141960   5.021   1.718  12.695 -0.3904  0.3288 -2.4834
 6823TIP3    H241961   5.153   1.720  12.621  1.4362  1.2133  0.6275
 6824TIP3   OH241962   5.523   1.196  14.300  0.5073  0.0713 -0.0391
 6824TIP3    H141963   5.597   1.242  14.339  1.1853 -0.1739 -1.0219
 6824TIP3    H241964   5.518   1.230  14.211  0.4747 -1.1200 -0.5020
 6825TIP3   OH241965   3.682   5.826   0.893  0.2923 -0.3459 -0.2602
 6825TIP3    H141966   3.656   5.740   0.924 -0.2832 -0.1267 -0.1167
 6825TIP3    H241967   3.603   5.862   0.853 -0.2987  1.1837  2.0429
 6826TIP3   OH241968   3.454   4.014  12.609 -0.0417 -0.0111 -0.1360
 6826TIP3    H141969   3.492   3.935  12.647  1.2108  1.1371  1.0691
 6826TIP3    H241970   3.426   4.066  12.684 -2.4129  0.0058 -0.9430
 6827TIP3   OH241971   1.776   1.617  13.513 -0.1764 -0.0881  0.2814
 6827TIP3    H141972   1.745   1.530  13.537  0.0898  0.1649  1.6450
 6827TIP3    H241973   1.747   1.673  13.584  0.0862  0.8494 -0.3342
 6828TIP3   OH241974   3.537   6.641   0.741  0.7566 -1.1806  0.0823
 6828TIP3    H141975   3.581   6.620   0.823  0.7877 -1.9821 -0.1277
 6828TIP3    H241976   3.459   6.690   0.767  1.5892 -0.0223  0.4771
 6829TIP3   OH241977   2.509   5.854  12.009  0.1768 -0.0885  0.3276
 6829TIP3    H141978   2.458   5.902  12.074  1.1624  1.0393  0.2976
 6829TIP3    H241979   2.554   5.921  11.958  0.9189 -1.0101 -0.2847
 6830TIP3   OH241980   1.112   3.437  12.865  0.0328 -0.1677  0.1872
 6830TIP3    H141981   1.031   3.486  12.850  1.4160  1.9455 -0.8981
 6830TIP3    H241982   1.134   3.455  12.957 -0.0661  0.3385  0.1157
 6831TIP3   OH241983   4.871   4.609  11.877 -0.3642 -0.1264  0.4163
 6831TIP3    H141984   4.952   4.587  11.830 -0.3609 -0.4909  0.5910
 6831TIP3    H241985   4.818   4.530  11.872 -0.5268 -0.0376  0.6917
 6832TIP3   OH241986   5.243   6.303  11.689 -0.2835 -0.1753  0.6358
 6832TIP3    H141987   5.164   6.339  11.649  0.8953  1.8378  0.0352
 6832TIP3    H241988   5.234   6.324  11.782  0.4225  1.8744  0.2876
 6833TIP3   OH241989   2.733   6.856   1.916 -0.2963 -0.1338 -0.1265
 6833TIP3    H141990   2.756   6.933   1.968 -1.1942  0.7451 -0.9875
 6833TIP3    H241991   2.656   6.819   1.960  0.2566 -0.6858  0.4053
 6834TIP3   OH241992   3.889   4.290   0.389 -0.3308 -0.3040  0.0101
 6834TIP3    H141993   3.815   4.341   0.356 -0.9221 -0.0210  1.6273
 6834TIP3    H241994   3.911   4.332   0.473  2.0066 -0.0873 -0.6473
 6835TIP3   OH241995   4.465   2.593   2.284  0.2261 -0.4971  0.0978
 6835TIP3    H141996   4.506   2.663   2.234  0.9351 -1.8293 -1.2723
 6835TIP3    H241997   4.438   2.529   2.219 -1.8515 -0.8134  1.1783
 6836TIP3   OH241998   3.817   5.333   4.357 -0.0981 -0.0963  0.1543
 6836TIP3    H141999   3.777   5.407   4.312  0.1818 -0.1241 -0.1472
 6836TIP3    H242000   3.795   5.345   4.449  0.5270  0.7422  0.2097
 6837TIP3   OH242001   0.127   3.436  15.245 -0.0670  0.2507  0.4273
 6837TIP3    H142002   0.184   3.513  15.244 -1.5422  1.3874  0.5390
 6837TIP3    H242003   0.146   3.394  15.329 -0.1458  1.2127  0.9379
 6838TIP3   OH242004   5.957   2.294   3.704  0.1339 -0.0389 -0.3653
 6838TIP3    H142005   6.043   2.315   3.668 -0.7392  0.8959 -2.0349
 6838TIP3    H242006   5.973   2.224   3.766  1.7763 -1.6475 -2.4773
 6839TIP3   OH242007   0.801   0.625   5.166 -0.9610 -0.2062 -0.0101
 6839TIP3    H142008   0.728   0.687   5.158 -1.2505 -0.0201  2.9654
 6839TIP3    H242009   0.878   0.680   5.179 -0.6780 -0.4326 -0.7134
 6840TIP3   OH242010   1.901   1.696  10.503  0.3113 -0.0935  0.1914
 6840TIP3    H142011   1.958   1.691  10.426  1.7539  2.6350  0.9461
 6840TIP3    H242012   1.950   1.750  10.565 -2.0423  0.1973  1.9192
 6841TIP3   OH242013   4.172   5.679   1.789  0.0428 -0.1042  0.4787
 6841TIP3    H142014   4.112   5.719   1.726  1.0849  1.4058  0.3930
 6841TIP3    H242015   4.234   5.748   1.810  0.1384 -0.7899  2.6591
 6842TIP3   OH242016   6.586   5.459  12.787 -0.0487 -0.0278  0.5160
 6842TIP3    H142017   6.596   5.493  12.876 -0.3596  4.2378 -0.8141
 6842TIP3    H242018   6.491   5.453  12.775 -0.1383  2.0245 -0.2330
 6843TIP3   OH242019   4.710   4.976  11.455  0.1424  0.5171 -0.2350
 6843TIP3    H142020   4.621   4.995  11.426 -0.5949  0.1941  1.6819
 6843TIP3    H242021   4.754   4.942  11.376 -1.9312 -1.0233 -0.8263
 6844TIP3   OH242022   6.452   5.063   4.375 -0.0221 -0.2760  0.2949
 6844TIP3    H142023   6.541   5.081   4.407 -0.3606  0.3129  0.9360
 6844TIP3    H242024   6.398   5.066   4.454 -0.7934  0.5846 -0.2534
 6845TIP3   OH242025   3.522   6.104   1.603  0.1975 -0.1671 -0.1554
 6845TIP3    H142026   3.481   6.064   1.680 -2.8338  0.5102 -1.2734
 6845TIP3    H242027   3.482   6.059   1.529  0.3062  1.6218 -1.3594
 6846TIP3   OH242028   5.975   2.209   1.997  0.1925  0.1718 -0.4771
 6846TIP3    H142029   6.059   2.255   1.988  0.5455 -0.5243 -0.8431
 6846TIP3    H242030   5.999   2.123   2.033 -0.1622 -0.6674 -2.1475
 6847TIP3   OH242031   5.376   4.642   1.994 -0.8208 -0.2338  0.6314
 6847TIP3    H142032   5.352   4.590   2.071 -1.8981 -0.1431  0.3729
 6847TIP3    H242033   5.380   4.579   1.922 -1.5628 -0.0627  0.4296
 6848TIP3   OH242034   6.347   6.516  11.126 -0.1597  0.1291  0.2558
 6848TIP3    H142035   6.355   6.587  11.190 -0.9115 -0.2381  0.7740
 6848TIP3    H242036   6.342   6.561  11.042  1.1475  0.6034  0.4132
 6849TIP3   OH242037   6.157   0.396  12.331 -0.5011 -0.0850  0.1726
 6849TIP3    H142038   6.083   0.405  12.391  0.5713  1.3949  1.3242
 6849TIP3    H242039   6.166   0.301  12.319 -1.8742 -0.3300  0.8695
 6850TIP3   OH242040   6.324   0.080   2.072  0.3507  0.0375 -0.2085
 6850TIP3    H142041   6.349   0.134   2.147 -1.7852  0.6662  0.1296
 6850TIP3    H242042   6.267   0.013   2.109  0.5445 -0.6042 -1.0543
 6851TIP3   OH242043   1.980   0.104   0.965 -0.2771 -0.4549  0.1687
 6851TIP3    H142044   2.072   0.128   0.975  0.0532 -1.5442 -0.0655
 6851TIP3    H242045   1.970   0.027   1.021 -0.5569 -1.4766 -1.2230
 6852TIP3   OH242046   4.668   1.412  15.396  0.3930 -0.9091 -0.4526
 6852TIP3    H142047   4.624   1.390  15.478  1.6979 -2.3585 -0.1010
 6852TIP3    H242048   4.682   1.328  15.352  2.8255 -0.5472 -0.5062
 6853TIP3   OH242049   4.815   4.922   2.797  0.0352 -1.0058 -0.1420
 6853TIP3    H142050   4.766   4.872   2.732  0.6923 -1.3116 -0.4174
 6853TIP3    H242051   4.804   5.013   2.771 -2.1524 -0.8667  1.0355
 6854TIP3   OH242052   5.598   1.808   5.145 -0.1661 -0.1728  0.5154
 6854TIP3    H142053   5.683   1.765   5.145 -0.3516 -0.5495 -0.2797
 6854TIP3    H242054   5.556   1.778   5.065 -1.5423 -0.9693  1.4885
 6855TIP3   OH242055   0.112   2.895  12.144 -0.2451 -0.1112 -0.2618
 6855TIP3    H142056   0.118   2.818  12.201 -2.1262 -2.8197 -3.3653
 6855TIP3    H242057   0.088   2.859  12.059  3.7479  3.4401 -3.3144
 6856TIP3   OH242058   2.972   2.952  14.931  0.0782  0.3159 -0.4001
 6856TIP3    H142059   2.937   3.041  14.923 -0.2155  0.1409 -1.0798
 6856TIP3    H242060   2.908   2.897  14.886  0.3825 -0.2129 -0.1891
 6857TIP3   OH242061   6.161   3.174   0.094 -0.3250  0.3772  0.1905
 6857TIP3    H142062   6.152   3.177  -0.001 -1.4587 -0.6618  0.2408
 6857TIP3    H242063   6.173   3.265   0.120 -1.0735  0.7961 -0.8538
 6858TIP3   OH242064   2.084   3.731  12.067  0.0274  0.1589  0.1342
 6858TIP3    H142065   2.022   3.666  12.036 -1.0716  1.9857 -1.7496
 6858TIP3    H242066   2.030   3.801  12.104  1.0050  1.2651 -0.4637
 6859TIP3   OH242067   0.822   1.124  14.571  0.2610  0.5008  0.2449
 6859TIP3    H142068   0.807   1.219  14.571  0.4809  0.5434  0.8465
 6859TIP3    H242069   0.748   1.088  14.619 -1.0326  0.1279 -1.8877
 6860TIP3   OH242070   5.332   6.575   0.049  0.7296  0.0979  0.2918
 6860TIP3    H142071   5.403   6.537  -0.003  1.5220  0.8748  0.7821
 6860TIP3    H242072   5.269   6.605  -0.016  0.0707 -1.9754 -0.1250
 6861TIP3   OH242073   0.306   6.388   2.779 -0.1409  0.1402  0.2507
 6861TIP3    H142074   0.275   6.307   2.738 -1.3010  1.0965 -0.8415
 6861TIP3    H242075   0.300   6.454   2.710  1.1164  1.1052  1.0179
 6862TIP3   OH242076   1.136   2.099  15.651  0.3628  0.0609 -0.0322
 6862TIP3    H142077   1.167   2.127  15.565 -1.1429  0.3595 -0.5131
 6862TIP3    H242078   1.042   2.084  15.639 -0.0024  0.6681  1.7002
 6863TIP3   OH242079   2.364   6.600   0.480 -0.5552 -0.1918  0.2412
 6863TIP3    H142080   2.361   6.548   0.560 -0.4026 -0.7580 -0.1150
 6863TIP3    H242081   2.454   6.592   0.449 -1.0317 -1.4038 -0.9125
 6864TIP3   OH242082   0.277   4.875   0.205  0.4136  0.1386 -0.1350
 6864TIP3    H142083   0.353   4.928   0.228 -0.3809  1.0606  0.5061
 6864TIP3    H242084   0.310   4.809   0.144  1.7302  0.4400  0.2231
 6865TIP3   OH242085   2.678   2.392   5.023 -0.0266  0.2656 -0.6797
 6865TIP3    H142086   2.716   2.304   5.028  0.6673  0.5024 -1.5418
 6865TIP3    H242087   2.583   2.378   5.031  0.1993 -0.2388  2.7753
 6866TIP3   OH242088   0.626   6.640   5.404 -0.3248 -1.2651  0.4981
 6866TIP3    H142089   0.721   6.637   5.394 -0.3103 -0.1984  0.2232
 6866TIP3    H242090   0.599   6.548   5.410  0.5503 -1.6508 -1.0425
 6867TIP3   OH242091   2.871   6.810   4.196 -0.3975 -0.0469 -0.0108
 6867TIP3    H142092   2.941   6.786   4.256 -0.3315  1.3700  0.5189
 6867TIP3    H242093   2.880   6.749   4.123  1.0697 -0.2257  0.2881
 6868TIP3   OH242094   6.497   6.703  14.757 -0.1292  0.2345  0.2942
 6868TIP3    H142095   6.534   6.786  14.724  0.2452  0.5641  1.4757
 6868TIP3    H242096   6.409   6.727  14.786  0.3184  0.4629  1.5273
 6869TIP3   OH242097   1.653   2.032  10.880  0.0946  0.2151 -0.2742
 6869TIP3    H142098   1.684   1.963  10.938 -0.2109 -0.5308 -0.9750
 6869TIP3    H242099   1.732   2.068  10.840  0.1644 -0.8927 -1.1836
 6870TIP3   OH242100   5.557   1.112  12.690  0.2766 -0.5222  0.4295
 6870TIP3    H142101   5.637   1.132  12.641  0.5638 -2.0314  0.2471
 6870TIP3    H242102   5.553   1.180  12.757  2.0958 -0.8031  0.8834
 6871TIP3   OH242103   0.165   2.694   4.051  0.3315  0.0310  0.0637
 6871TIP3    H142104   0.088   2.744   4.025  0.9117  0.0575 -1.7100
 6871TIP3    H242105   0.135   2.639   4.123 -0.8246  1.4826  0.7412
 6872TIP3   OH242106   0.765   4.522   0.875  0.3710  0.0058 -0.5879
 6872TIP3    H142107   0.813   4.491   0.951  1.4310  0.7142 -0.9458
 6872TIP3    H242108   0.829   4.573   0.825 -0.9549  1.7566 -0.6191
 6873TIP3   OH242109   2.386   0.644   1.639 -0.0058 -0.4365  0.1494
 6873TIP3    H142110   2.438   0.671   1.564  0.6723 -1.6806  0.1543
 6873TIP3    H242111   2.356   0.727   1.678  2.4412  0.3660  0.4801
 6874TIP3   OH242112   4.418   1.245   0.371 -0.8545  0.5878  0.1608
 6874TIP3    H142113   4.431   1.251   0.465  0.5350 -0.5467  0.0620
 6874TIP3    H242114   4.422   1.152   0.351  1.6073  0.9294 -1.3436
 6875TIP3   OH242115   1.255   1.993  11.392 -0.8609  0.6572  0.3176
 6875TIP3    H142116   1.198   2.069  11.385  0.2183  1.4494 -0.2864
 6875TIP3    H242117   1.275   1.970  11.301  0.4929  0.9768  0.5128
 6876TIP3   OH242118   4.055   3.498   5.141 -0.2147 -0.0372 -0.4991
 6876TIP3    H142119   4.039   3.445   5.063  1.0087 -0.6479 -0.3731
 6876TIP3    H242120   4.044   3.588   5.112 -1.7666 -0.3242 -0.8656
 6877TIP3   OH242121   3.414   6.838   2.576 -0.1342 -0.1872 -0.4158
 6877TIP3    H142122   3.324   6.873   2.573  0.3358  1.0452 -1.6428
 6877TIP3    H242123   3.435   6.822   2.484  0.8166 -0.6991 -0.1130
 6878TIP3   OH242124   2.148   4.172   3.752  0.1091 -0.4251 -0.3642
 6878TIP3    H142125   2.216   4.232   3.783  0.4162 -1.0812  0.2905
 6878TIP3    H242126   2.153   4.176   3.657  0.2987  0.3820 -0.3252
 6879TIP3   OH242127   5.298   3.297   0.676  0.5148  0.8627  0.2546
 6879TIP3    H142128   5.252   3.215   0.696 -1.1433  1.5001 -0.6951
 6879TIP3    H242129   5.342   3.321   0.757  0.1614 -0.4195  0.8514
 6880TIP3   OH242130   0.180   0.725  15.121  0.1655  0.5098 -0.8252
 6880TIP3    H142131   0.089   0.743  15.095 -0.1812  0.4514  0.3196
 6880TIP3    H242132   0.217   0.680  15.045 -1.0714 -0.4071 -0.9343
 6881TIP3   OH242133   6.033   4.337   3.050  0.5277 -0.2596  0.5473
 6881TIP3    H142134   6.026   4.266   3.114 -1.0598 -0.2141  0.4666
 6881TIP3    H242135   6.044   4.416   3.103  0.2807 -0.3385  0.7175
 6882TIP3   OH242136   4.151   4.034  13.431 -0.3151 -0.3815  0.4446
 6882TIP3    H142137   4.134   4.068  13.343  0.1247 -1.4209 -0.0575
 6882TIP3    H242138   4.083   4.072  13.485  0.4709  1.7351  0.0292
 6883TIP3   OH242139   6.451   5.325   5.314  0.1077  0.0458 -0.0071
 6883TIP3    H142140   6.471   5.379   5.390 -0.1974  1.9325 -1.2132
 6883TIP3    H242141   6.357   5.311   5.317  0.0419  0.4272 -0.2165
 6884TIP3   OH242142   2.062   3.678   2.932  0.3288  0.5302  0.0085
 6884TIP3    H142143   1.976   3.638   2.946 -0.8908  1.3286 -3.9638
 6884TIP3    H242144   2.123   3.604   2.933 -0.7688 -0.3981  0.4349
 6885TIP3   OH242145   5.492   6.429  16.346  0.3514  0.5206 -0.4107
 6885TIP3    H142146   5.401   6.434  16.375  0.0165  2.0854 -1.5705
 6885TIP3    H242147   5.528   6.516  16.366  1.3925  0.1420 -0.5860
 6886TIP3   OH242148   2.315   2.973   4.374  0.1022 -0.3706 -0.6295
 6886TIP3    H142149   2.253   2.938   4.439  0.7102 -1.3220 -0.5391
 6886TIP3    H242150   2.287   3.063   4.361 -0.4616 -0.3680  0.4419
 6887TIP3   OH242151   1.980   1.182   3.573  0.2226  0.0382 -0.0346
 6887TIP3    H142152   1.917   1.224   3.515  1.8539 -0.7073 -2.4994
 6887TIP3    H242153   2.047   1.249   3.590 -0.9582  0.7273  2.3118
 6888TIP3   OH242154   6.324   5.912   3.341 -0.0347  0.5314 -0.7701
 6888TIP3    H142155   6.404   5.892   3.390  1.3032  1.2981 -2.5467
 6888TIP3    H242156   6.348   5.901   3.249 -2.1058  0.3908 -1.3474
 6889TIP3   OH242157   1.859   4.287  13.263 -0.0777  0.7908 -0.0239
 6889TIP3    H142158   1.900   4.344  13.329 -1.2057  1.7952 -0.1600
 6889TIP3    H242159   1.891   4.200  13.284 -0.5902  1.0447  2.0426
 6890TIP3   OH242160   4.050   4.869  13.588  0.2267 -0.4259  0.0928
 6890TIP3    H142161   4.127   4.822  13.621 -0.4955 -1.3881  0.4617
 6890TIP3    H242162   4.070   4.888  13.496  1.5463  0.7382  0.5970
 6891TIP3   OH242163   4.231   3.038   1.577  0.2651  0.9547  0.0832
 6891TIP3    H142164   4.258   3.108   1.518  0.9229  0.7277  0.1042
 6891TIP3    H242165   4.196   2.970   1.520  0.6777  0.8360 -0.0345
 6892TIP3   OH242166   6.118   1.990   1.797  0.5830 -0.7239 -0.2595
 6892TIP3    H142167   6.210   2.012   1.782  0.1129 -0.1849 -2.9124
 6892TIP3    H242168   6.070   2.072   1.778 -0.4850 -1.1186  0.6197
 6893TIP3   OH242169   6.138   5.794  14.204  0.0488 -0.1754 -0.1610
 6893TIP3    H142170   6.165   5.886  14.203 -1.2314  0.2935 -3.1791
 6893TIP3    H242171   6.175   5.757  14.124 -1.3764 -1.6281 -0.2134
 6894TIP3   OH242172   1.927   0.295   3.672  0.2343  0.0953 -0.6592
 6894TIP3    H142173   1.904   0.248   3.752  2.1034 -0.5437 -0.4407
 6894TIP3    H242174   2.000   0.352   3.698  0.8087 -0.0537 -1.8721
 6895TIP3   OH242175   0.200   3.972  15.120  0.3023  0.2841 -0.4421
 6895TIP3    H142176   0.263   3.930  15.062  0.4752 -1.0370  0.6638
 6895TIP3    H242177   0.252   4.035  15.170  0.4101  0.4191 -0.7197
 6896TIP3   OH242178   2.718   2.379   1.752 -0.2911  0.3065  0.0806
 6896TIP3    H142179   2.723   2.294   1.708 -1.5785  0.2181  0.0741
 6896TIP3    H242180   2.778   2.435   1.702 -0.1910 -0.3286 -0.5308
 6897TIP3   OH242181   3.202   2.820   1.012 -0.1145  0.3234 -0.3988
 6897TIP3    H142182   3.211   2.819   0.916 -3.4014  0.5811 -0.8490
 6897TIP3    H242183   3.116   2.781   1.027  0.9011 -1.0196  2.6080
 6898TIP3   OH242184   2.967   6.195   1.425 -0.6786  0.2916  0.3211
 6898TIP3    H142185   2.909   6.147   1.484 -0.0639  0.4014  1.0303
 6898TIP3    H242186   3.022   6.128   1.385 -2.1666  0.0207 -1.4044
 6899TIP3   OH242187   5.537   6.707  13.136 -0.3828 -0.0774 -0.7262
 6899TIP3    H142188   5.444   6.692  13.152 -0.1759 -2.0463 -1.1544
 6899TIP3    H242189   5.539   6.755  13.053 -1.0309  0.3487 -0.5023
 6900TIP3   OH242190   1.411   6.236  15.148  0.7253  0.3353  0.1914
 6900TIP3    H142191   1.333   6.200  15.189  1.0976  1.0508  1.6072
 6900TIP3    H242192   1.483   6.183  15.182  0.9118 -0.1383 -0.8804
 6901TIP3   OH242193   1.431   0.769   3.581 -0.3582 -0.1617  0.3418
 6901TIP3    H142194   1.411   0.822   3.658 -2.2370  1.6780 -1.2951
 6901TIP3    H242195   1.418   0.678   3.611  0.7557  0.3493  2.6164
 6902TIP3   OH242196   4.232   4.465   3.518  0.3307 -0.6542  0.0352
 6902TIP3    H142197   4.206   4.384   3.561  1.9519 -1.9040 -1.2338
 6902TIP3    H242198   4.314   4.489   3.561 -0.1446  0.3478  0.4135
 6903TIP3   OH242199   5.635   4.024  15.969  0.0437 -0.1027  0.2936
 6903TIP3    H142200   5.549   3.983  15.984  0.8697 -1.8923  0.3265
 6903TIP3    H242201   5.693   3.981  16.031  0.8790  1.5312  0.6962
 6904TIP3   OH242202   2.524   6.184  15.858 -0.3946 -0.7980  0.5470
 6904TIP3    H142203   2.558   6.124  15.791 -0.6192 -0.2783 -0.0386
 6904TIP3    H242204   2.565   6.268  15.838 -2.5903  0.0677 -0.6918
 6905TIP3   OH242205   6.111   3.043   0.954 -0.0902  0.0201  0.1466
 6905TIP3    H142206   6.177   3.105   0.925  1.0885 -0.6400  1.3041
 6905TIP3    H242207   6.076   3.005   0.873  1.4128 -0.0780 -0.4800
 6906TIP3   OH242208   5.374   1.817   1.213 -0.1871  0.3368  0.1503
 6906TIP3    H142209   5.400   1.867   1.290  0.9640  0.2781 -0.1887
 6906TIP3    H242210   5.442   1.751   1.202 -1.0645 -0.5528 -0.1145
 6907TIP3   OH242211   1.423   5.799  15.747  0.2887 -0.1707  0.1018
 6907TIP3    H142212   1.451   5.865  15.810  1.9863 -1.4540  0.7551
 6907TIP3    H242213   1.347   5.757  15.788  0.2121  0.2722  0.4177
 6908TIP3   OH242214   4.563   3.415  16.617  0.0465  0.3321  0.8595
 6908TIP3    H142215   4.600   3.409  16.704 -0.5929 -0.0078  1.1209
 6908TIP3    H242216   4.479   3.368  16.623 -0.9833  2.0525  0.6046
 6909TIP3   OH242217   5.806   1.021  14.471  0.5710 -0.3909  0.3158
 6909TIP3    H142218   5.774   0.930  14.471 -1.7155  0.3389  1.5388
 6909TIP3    H242219   5.829   1.038  14.563 -0.6708  0.7741  0.4294
 6910TIP3   OH242220   3.454   0.201   1.976  0.5336  0.2844 -0.1659
 6910TIP3    H142221   3.519   0.241   2.034 -0.2280  2.4614 -0.7213
 6910TIP3    H242222   3.398   0.151   2.035 -0.0362  2.1976  1.0003
 6911TIP3   OH242223   4.988   4.661   1.410 -0.6384 -0.0095  0.0826
 6911TIP3    H142224   5.079   4.674   1.383 -0.2137  1.0989  1.9388
 6911TIP3    H242225   4.945   4.745   1.394 -0.9511 -0.0589  0.6352
 6912TIP3   OH242226   2.106   2.736  15.116  0.5712 -0.3584 -0.3414
 6912TIP3    H142227   2.045   2.800  15.080  2.0901  0.6747 -1.1801
 6912TIP3    H242228   2.183   2.787  15.141  0.9028 -1.5343  1.2231
 6913TIP3   OH242229   2.582   6.803   1.088  0.4881 -0.0163  0.0769
 6913TIP3    H142230   2.522   6.816   1.161  1.1533 -1.9193  1.0239
 6913TIP3    H242231   2.542   6.733   1.036 -0.2132  1.6129 -1.7140
 6914TIP3   OH242232   0.197   2.314  11.039 -0.6162  0.1894  0.2288
 6914TIP3    H142233   0.287   2.342  11.025 -1.4184  2.1445 -1.5778
 6914TIP3    H242234   0.193   2.292  11.132  1.1418  2.3623  0.9032
 6915TIP3   OH242235   4.024   2.662  16.968  0.1983 -0.1838  0.1426
 6915TIP3    H142236   3.996   2.729  17.030 -1.8263  0.9647 -1.8515
 6915TIP3    H242237   4.004   2.579  17.010 -1.3243  0.5661  0.9437
 6916TIP3   OH242238   0.923   6.698  11.652 -0.3042  0.3013  0.3973
 6916TIP3    H142239   0.890   6.630  11.593  0.0213 -0.2005  0.7869
 6916TIP3    H242240   0.964   6.761  11.594 -2.0492  1.0187 -0.1177
 6917TIP3   OH242241   3.581   4.065  13.702 -0.4091 -0.6564  0.0318
 6917TIP3    H142242   3.552   4.133  13.763 -0.7919  0.6972 -1.5822
 6917TIP3    H242243   3.666   4.037  13.736  0.3742  1.5685  0.0379
 6918TIP3   OH242244   5.698   3.896   2.604 -0.2457  0.0321  0.1086
 6918TIP3    H142245   5.781   3.888   2.652 -0.7328 -0.2600  0.9145
 6918TIP3    H242246   5.694   3.988   2.578  1.6141 -0.4666 -2.3150
 6919TIP3   OH242247   6.835   2.241   4.156  0.3953 -0.0446 -0.1092
 6919TIP3    H142248   6.771   2.266   4.223  0.0624  0.1726 -0.5092
 6919TIP3    H242249   6.825   2.306   4.087  2.1244  0.9137  0.4956
 6920TIP3   OH242250   2.355   6.641   1.598 -0.0349  0.2263  0.8526
 6920TIP3    H142251   2.269   6.665   1.563  1.2625  0.7159 -2.3930
 6920TIP3    H242252   2.361   6.546   1.586  0.8875  0.5323 -1.8164
 6921TIP3   OH242253   4.917   6.268  14.025  0.4446  0.3381 -0.1127
 6921TIP3    H142254   4.942   6.247  13.935  0.0167 -4.3728  0.6091
 6921TIP3    H242255   5.001   6.276  14.071  0.7218 -1.3253 -0.2608
 6922TIP3   OH242256   3.247   4.504   5.011  0.6062  0.1423  0.4837
 6922TIP3    H142257   3.255   4.592   4.975  2.3558 -0.2165 -0.1235
 6922TIP3    H242258   3.207   4.453   4.941 -1.2140  0.5872  1.1426
 6923TIP3   OH242259   6.610   2.028   1.208  0.3417  0.3493 -0.5663
 6923TIP3    H142260   6.598   1.989   1.121 -1.1950  0.4151 -0.4170
 6923TIP3    H242261   6.548   1.981   1.263 -0.0812  1.6231  0.0691
 6924TIP3   OH242262   2.179   6.836  13.523  0.0897 -0.0124 -0.0141
 6924TIP3    H142263   2.210   6.920  13.489 -0.7619  1.0081  1.5715
 6924TIP3    H242264   2.234   6.819  13.600 -0.1122 -0.6270  0.0023
 6925TIP3   OH242265   2.153   0.543  10.780  0.7082  0.3505 -0.0819
 6925TIP3    H142266   2.142   0.498  10.696  0.6039 -0.2423  0.2473
 6925TIP3    H242267   2.244   0.528  10.805  0.7002  0.4068 -0.0161
 6926TIP3   OH242268   2.187   3.283  15.288 -0.2673  0.3204  0.0890
 6926TIP3    H142269   2.142   3.289  15.372 -0.7937  2.0375 -0.2791
 6926TIP3    H242270   2.220   3.193  15.285 -1.7356 -0.3129  1.3568
 6927TIP3   OH242271   5.803   5.782   1.645  0.6948 -0.5484 -0.0530
 6927TIP3    H142272   5.828   5.835   1.569 -0.7266  0.3798  0.0660
 6927TIP3    H242273   5.884   5.742   1.675  1.0877 -2.2802 -3.0265
 6928TIP3   OH242274   6.291   4.602  16.952 -0.1250 -0.5104 -0.5670
 6928TIP3    H142275   6.366   4.597  17.012 -0.4725 -1.0297 -0.1732
 6928TIP3    H242276   6.215   4.588  17.007 -0.4982 -0.3423 -1.0311
 6929TIP3   OH242277   1.283   4.002   3.034 -0.2204  0.3307  0.1944
 6929TIP3    H142278   1.314   3.947   2.963  0.2148 -0.5668  1.0536
 6929TIP3    H242279   1.230   3.944   3.089  2.1244  0.0709  2.3783
 6930TIP3   OH242280   4.651   5.574   1.176  0.2317 -0.7562 -0.5568
 6930TIP3    H142281   4.652   5.640   1.245  0.6770  1.9358 -2.9597
 6930TIP3    H242282   4.743   5.550   1.164  0.2649 -0.5042 -0.8251
 6931TIP3   OH242283   3.787   0.992  11.854  0.3739 -0.1142 -0.2655
 6931TIP3    H142284   3.755   0.917  11.805  0.9751 -1.1300  0.8554
 6931TIP3    H242285   3.709   1.028  11.897  0.2726 -0.8626  0.1910
 6932TIP3   OH242286   5.546   6.327  15.715  0.1178  0.5305 -0.0051
 6932TIP3    H142287   5.578   6.337  15.625 -2.2442  0.6586 -0.9212
 6932TIP3    H242288   5.455   6.358  15.711  0.1476  1.2022  2.6039
 6933TIP3   OH242289   0.088   2.269   5.581  0.3940 -0.3985  0.3376
 6933TIP3    H142290   0.037   2.270   5.662 -0.7329 -0.8341 -0.3488
 6933TIP3    H242291   0.049   2.198   5.529  1.4174 -0.4453 -0.3922
 6934TIP3   OH242292   4.611   0.755   6.164 -0.6904  0.2096 -0.3504
 6934TIP3    H142293   4.560   0.674   6.175 -0.2134 -0.0378  0.0823
 6934TIP3    H242294   4.551   0.825   6.192 -1.0256 -0.0101 -0.5046
 6935TIP3   OH242295   5.151   4.085  14.803 -0.3510  0.5566  0.0171
 6935TIP3    H142296   5.100   4.093  14.723 -0.9655 -1.8103  0.1043
 6935TIP3    H242297   5.223   4.027  14.780  0.9335  1.8482  0.5764
 6936TIP3   OH242298   6.516   3.979  16.188 -0.0079  0.3997  0.2196
 6936TIP3    H142299   6.506   4.008  16.098 -3.6047 -0.3154  0.2106
 6936TIP3    H242300   6.454   4.032  16.238 -0.3854 -1.2960  1.6868
 6937TIP3   OH242301   3.820   2.341  11.465 -0.4027  0.3264 -0.7261
 6937TIP3    H142302   3.857   2.266  11.513  0.7032  1.0168 -0.4554
 6937TIP3    H242303   3.726   2.330  11.471 -0.2730 -0.1212  0.7977
 6938TIP3   OH242304   5.750   4.141   0.771  0.8549 -0.3688  0.2012
 6938TIP3    H142305   5.698   4.209   0.814  0.4180 -0.0962 -0.7309
 6938TIP3    H242306   5.754   4.070   0.835 -0.9552 -0.5367  0.1919
 6939TIP3   OH242307   3.974   3.468  11.335  0.4027 -0.2734  0.5688
 6939TIP3    H142308   3.925   3.468  11.252 -0.6945 -0.4118  1.1973
 6939TIP3    H242309   4.049   3.412  11.318 -0.0100 -0.6062 -0.2202
 6940TIP3   OH242310   5.940   3.975   2.700  0.4258  0.6013  0.0269
 6940TIP3    H142311   6.002   4.004   2.633 -0.1315  1.4780 -0.1382
 6940TIP3    H242312   5.907   4.057   2.738 -1.4584  0.2215 -0.6681
 6941TIP3   OH242313   1.194   1.967   0.764  0.0491  0.3511  0.3384
 6941TIP3    H142314   1.139   2.044   0.775  2.3207  2.0372  0.5157
 6941TIP3    H242315   1.261   1.994   0.702  0.2128 -1.9256 -0.5770
 6942TIP3   OH242316   1.052   6.556  15.419 -0.1172 -0.6324  0.2061
 6942TIP3    H142317   1.142   6.539  15.444 -0.1150 -1.0155 -0.0454
 6942TIP3    H242318   1.057   6.629  15.357  0.0124 -0.6065  0.2478
 6943TIP3   OH242319   0.302   3.515  16.433  0.0954  0.2167 -0.1913
 6943TIP3    H142320   0.224   3.568  16.416  0.4493  0.4518 -1.1407
 6943TIP3    H242321   0.290   3.438  16.376 -0.1308 -0.4474  0.7354
 6944TIP3   OH242322   6.416   1.414  15.928  0.3904 -0.0952  0.7524
 6944TIP3    H142323   6.387   1.504  15.944 -1.6249 -0.4501 -0.4955
 6944TIP3    H242324   6.460   1.388  16.009 -0.1872  1.5489  1.6462
 6945TIP3   OH242325   0.657   1.931  12.156  0.1997  0.1820  0.5301
 6945TIP3    H142326   0.603   2.006  12.131 -1.8137 -0.1611  3.4763
 6945TIP3    H242327   0.634   1.863  12.093  0.4492  1.3314 -0.8533
 6946TIP3   OH242328   3.793   2.431   5.438 -0.2814  0.2277 -0.9540
 6946TIP3    H142329   3.861   2.364   5.426  0.3571  0.3518  1.4351
 6946TIP3    H242330   3.728   2.411   5.370  0.0298 -2.6351 -0.5520
 6947TIP3   OH242331   0.949   3.934  14.160 -0.0577 -0.2344 -0.7915
 6947TIP3    H142332   0.945   3.845  14.197 -1.0887 -0.6467 -1.8480
 6947TIP3    H242333   0.906   3.927  14.075 -2.2842  1.7529  0.0630
 6948TIP3   OH242334   5.662   5.281  11.332 -0.2773 -0.0956 -0.3597
 6948TIP3    H142335   5.741   5.331  11.311  1.6476 -3.4239 -1.7809
 6948TIP3    H242336   5.611   5.281  11.251 -0.3295 -0.2718 -0.3281
 6949TIP3   OH242337   5.916   2.159   4.789  0.1294  0.2578 -0.2098
 6949TIP3    H142338   5.877   2.232   4.742 -0.1160 -0.9177 -1.9300
 6949TIP3    H242339   5.861   2.149   4.867 -1.0667  0.6625 -0.9690
 6950TIP3   OH242340   0.779   0.166   5.785  0.1848 -0.3057  0.3763
 6950TIP3    H142341   0.780   0.106   5.860 -1.6436  1.4410  1.9162
 6950TIP3    H242342   0.870   0.168   5.755  0.9507 -1.2112  2.4534
 6951TIP3   OH242343   6.617   2.457  14.995  0.3231 -0.2769  0.5724
 6951TIP3    H142344   6.544   2.456  15.056 -0.5343  0.9886 -0.3899
 6951TIP3    H242345   6.636   2.365  14.978 -1.9922 -0.6653 -0.2371
 6952TIP3   OH242346   5.818   0.600  13.106  0.2713  0.4561  0.6374
 6952TIP3    H142347   5.754   0.571  13.171  1.9658  0.2641  2.3285
 6952TIP3    H242348   5.814   0.696  13.110 -2.1518  0.5649 -1.6891
 6953TIP3   OH242349   3.169   5.791   4.961  0.5237 -0.3461  0.6080
 6953TIP3    H142350   3.109   5.751   4.898  1.4784  0.8838 -1.2002
 6953TIP3    H242351   3.113   5.847   5.015 -0.1154  0.0555 -0.4273
 6954TIP3   OH242352   1.893   3.204   0.704 -0.3772  0.0209  0.0298
 6954TIP3    H142353   1.803   3.181   0.680 -1.0793  2.0506  0.5445
 6954TIP3    H242354   1.940   3.121   0.701 -1.9348 -0.8704 -1.6614
 6955TIP3   OH242355   3.739   5.273  16.777 -0.3467  0.3102  0.5194
 6955TIP3    H142356   3.791   5.352  16.764 -0.5493  0.3428 -0.1037
 6955TIP3    H242357   3.648   5.303  16.778 -0.5353 -0.0968 -1.3917
 6956TIP3   OH242358   2.607   6.239   5.230  0.4819 -0.2196 -0.1515
 6956TIP3    H142359   2.521   6.279   5.247  1.4932  1.3743  1.5605
 6956TIP3    H242360   2.587   6.147   5.212 -1.6645  0.3284 -0.9150
 6957TIP3   OH242361   1.593   2.515   1.782  0.3984  0.1861 -0.0519
 6957TIP3    H142362   1.600   2.515   1.686 -0.8068  1.9431 -0.1879
 6957TIP3    H242363   1.681   2.496   1.812  1.0146  0.5648 -1.5141
 6958TIP3   OH242364   5.899   0.393   4.681  0.0209 -0.1250  0.8949
 6958TIP3    H142365   5.853   0.375   4.762 -1.8028 -1.1711 -0.2976
 6958TIP3    H242366   5.965   0.323   4.675  1.6859  1.2069  2.4597
 6959TIP3   OH242367   4.138   4.239   2.305 -0.4973 -0.0341 -0.3805
 6959TIP3    H142368   4.043   4.239   2.305 -0.6096 -0.5752 -3.6085
 6959TIP3    H242369   4.163   4.168   2.364 -2.1409 -0.7824 -0.5507
 6960TIP3   OH242370   6.398   2.385   1.710  0.4507 -0.3448  0.7083
 6960TIP3    H142371   6.458   2.459   1.714  0.3890  0.1785 -3.5359
 6960TIP3    H242372   6.453   2.310   1.689  0.1192 -0.9156  1.7779
 6961TIP3   OH242373   0.669   0.584   0.297 -0.3476 -0.4929 -0.3485
 6961TIP3    H142374   0.734   0.545   0.356  0.4385 -0.7528 -1.3739
 6961TIP3    H242375   0.615   0.637   0.355  1.7569  1.0417  0.3597
 6962TIP3   OH242376   6.339   4.981   2.705 -0.1712 -0.3569 -0.0917
 6962TIP3    H142377   6.407   4.981   2.772 -0.6970  2.5634  0.5907
 6962TIP3    H242378   6.291   4.899   2.719  1.0591 -0.8278  1.6644
 6963TIP3   OH242379   2.259   1.841  14.317  0.0158 -0.4030  0.2317
 6963TIP3    H142380   2.280   1.782  14.389  0.2429  0.9212  1.2844
 6963TIP3    H242381   2.342   1.881  14.293  0.0260 -1.1936 -1.1131
 6964TIP3   OH242382   4.840   1.091  14.982 -0.2387  0.6615 -0.2244
 6964TIP3    H142383   4.932   1.080  14.960  0.0339 -1.0979  1.4827
 6964TIP3    H242384   4.808   1.002  15.000 -1.9723  1.3284  0.2678
 6965TIP3   OH242385   4.553   0.237  16.981 -0.5623 -0.1187 -0.4095
 6965TIP3    H142386   4.531   0.271  16.894  2.8693 -0.8576 -1.7280
 6965TIP3    H242387   4.518   0.148  16.983 -3.0417  0.8079  0.1251
 6966TIP3   OH242388   0.951   0.574   0.718  0.3715  0.2241  0.1993
 6966TIP3    H142389   0.968   0.661   0.755  1.5087  0.2889 -0.4342
 6966TIP3    H242390   0.931   0.591   0.625 -0.5045 -0.1098  0.3129
 6967TIP3   OH242391   1.897   0.351  16.919 -0.6291  0.0565 -0.1276
 6967TIP3    H142392   1.849   0.432  16.935  3.2841  2.9003 -1.2218
 6967TIP3    H242393   1.928   0.325  17.006  0.7422  1.6828 -0.0774
 6968TIP3   OH242394   4.324   2.446  15.658  0.6711 -0.1186  0.2165
 6968TIP3    H142395   4.232   2.460  15.638  1.0042  0.0843 -1.3297
 6968TIP3    H242396   4.339   2.494  15.740 -0.5144  0.1048  0.3093
 6969TIP3   OH242397   2.923   1.404   4.027  0.2950  0.9860 -0.4635
 6969TIP3    H142398   2.857   1.391   4.095  0.9575  1.2873  0.2561
 6969TIP3    H242399   3.005   1.376   4.068  0.7015  1.1477 -1.1528
 6970TIP3   OH242400   3.705   5.549   5.571 -0.1750  0.0043  0.7903
 6970TIP3    H142401   3.661   5.534   5.655  1.0910  1.6817  1.8098
 6970TIP3    H242402   3.798   5.545   5.591  0.1629  1.1395 -0.3938
 6971TIP3   OH242403   0.318   1.286  16.629 -0.4175 -0.4531  0.1362
 6971TIP3    H142404   0.380   1.257  16.562 -0.7440  0.3542 -0.5414
 6971TIP3    H242405   0.245   1.225  16.623  1.0524 -2.5662  2.2137
 6972TIP3   OH242406   5.558   0.695   2.902 -0.4568 -0.3681  0.8818
 6972TIP3    H142407   5.625   0.764   2.900  1.1344 -1.8699  0.1325
 6972TIP3    H242408   5.553   0.665   2.812 -1.6124 -0.8200  1.0842
 6973TIP3   OH242409   0.466   0.639  12.761 -0.2062 -0.5820 -0.7195
 6973TIP3    H142410   0.470   0.549  12.731  0.2149 -0.6838 -0.3791
 6973TIP3    H242411   0.540   0.647  12.822 -0.8356 -0.2900  0.0149
 6974TIP3   OH242412   6.534   5.279   0.920  0.3549 -0.4119  0.1334
 6974TIP3    H142413   6.603   5.331   0.961  1.7232 -1.4502 -0.7621
 6974TIP3    H242414   6.547   5.292   0.826  0.9812 -2.6156 -0.1343
 6975TIP3   OH242415   6.634   4.508   3.406 -0.3009 -0.6124  0.1534
 6975TIP3    H142416   6.621   4.414   3.410  1.6249 -0.9050  0.4092
 6975TIP3    H242417   6.637   4.529   3.313  0.0749 -0.9410  0.0904
 6976TIP3   OH242418   1.199   4.476   1.846  0.2383 -0.1382 -0.3622
 6976TIP3    H142419   1.205   4.499   1.753  1.1756  0.6579 -0.1174
 6976TIP3    H242420   1.105   4.485   1.866 -0.1560 -1.4211 -1.4838
 6977TIP3   OH242421   5.531   5.017  16.974 -0.3951  0.3349  0.6711
 6977TIP3    H142422   5.444   5.025  16.934  0.6206 -0.6143 -1.9900
 6977TIP3    H242423   5.572   5.102  16.958  0.3618 -0.3500 -1.4386
 6978TIP3   OH242424   2.268   6.427  16.387 -0.6222 -0.3242  0.0058
 6978TIP3    H142425   2.260   6.519  16.413 -2.9517  0.1338 -1.9931
 6978TIP3    H242426   2.303   6.431  16.298 -1.8452 -1.2642 -0.5462
 6979TIP3   OH242427   1.334   0.225   5.981 -0.5320  0.2717 -0.4344
 6979TIP3    H142428   1.425   0.254   5.989  0.0805 -1.9270  1.9293
 6979TIP3    H242429   1.282   0.301   6.005  0.7593  1.0776 -0.1187
 6980TIP3   OH242430   5.068   6.349  15.586 -0.1600  0.1379 -0.0964
 6980TIP3    H142431   5.154   6.378  15.557 -0.4184  0.3049 -0.7149
 6980TIP3    H242432   5.050   6.402  15.663  0.2433  0.1781 -0.0270
 6981TIP3   OH242433   4.351   3.100  11.294 -0.0767  0.3513  0.1226
 6981TIP3    H142434   4.426   3.055  11.334  0.3148  0.2437 -0.7123
 6981TIP3    H242435   4.372   3.105  11.201 -1.0664  0.4174 -0.1123
 6982TIP3   OH242436   1.551   3.542   2.587 -0.8398  0.7479  0.4453
 6982TIP3    H142437   1.564   3.632   2.556 -4.5902  0.6938 -1.9473
 6982TIP3    H242438   1.561   3.488   2.508  0.7522 -0.9346  1.7234
 6983TIP3   OH242439   1.699   4.402   5.623  0.0778  0.8132  0.2251
 6983TIP3    H142440   1.746   4.388   5.541 -0.5565 -1.0266  0.1365
 6983TIP3    H242441   1.767   4.401   5.690  0.2667 -1.7807  0.0976
 6984TIP3   OH242442   2.620   4.079   5.669  0.2221  0.4518 -0.0460
 6984TIP3    H142443   2.546   4.126   5.630  0.0085 -0.5955 -0.9432
 6984TIP3    H242444   2.600   4.077   5.763 -0.5123  0.8432 -0.1862
 6985TIP3   OH242445   2.047   3.896  14.337 -0.3842 -0.1144  0.2138
 6985TIP3    H142446   2.087   3.823  14.384 -1.1262  0.2661  1.5016
 6985TIP3    H242447   2.021   3.957  14.406 -0.4837  1.0046 -0.7872
 6986TIP3   OH242448   2.294   5.053   4.881  0.2225 -0.2367 -0.3586
 6986TIP3    H142449   2.245   5.019   4.955  1.1497 -0.7740  0.0313
 6986TIP3    H242450   2.277   4.991   4.810  0.0480 -0.2140 -0.3369
 6987TIP3   OH242451   3.489   4.645  15.723 -0.2146  0.2187  0.0273
 6987TIP3    H142452   3.550   4.660  15.795 -0.5233  1.3193  0.0757
 6987TIP3    H242453   3.505   4.717  15.662 -0.7501 -0.0550 -0.4480
 6988TIP3   OH242454   4.144   4.745   3.771  0.2819  0.4241 -0.3031
 6988TIP3    H142455   4.062   4.727   3.726  1.1173 -0.5289 -1.5344
 6988TIP3    H242456   4.149   4.678   3.840  0.6403 -0.4246 -1.1192
 6989TIP3   OH242457   0.825   3.820   1.949  0.0773 -0.1228  0.0917
 6989TIP3    H142458   0.886   3.810   1.876 -2.1161  1.2671 -2.0828
 6989TIP3    H242459   0.874   3.869   2.015  1.9347 -0.8735 -0.6668
 6990TIP3   OH242460   2.358   2.380   4.828  0.3667 -0.3432 -0.5169
 6990TIP3    H142461   2.328   2.441   4.896  0.0226 -0.1465 -0.8383
 6990TIP3    H242462   2.410   2.434   4.769 -0.9500 -0.0700 -1.4786
 6991TIP3   OH242463   1.237   1.575   3.938 -0.0003  0.0985 -0.0271
 6991TIP3    H142464   1.301   1.592   4.008  0.3856  1.4138 -0.6603
 6991TIP3    H242465   1.168   1.640   3.952 -0.2047 -0.0071 -0.5274
 6992TIP3   OH242466   1.181   6.052   1.827 -0.0864  0.6075  0.0085
 6992TIP3    H142467   1.168   6.143   1.851 -0.4960  0.1046  1.8349
 6992TIP3    H242468   1.247   6.055   1.757 -0.4459  2.3068 -0.3053
 6993TIP3   OH242469   4.523   4.449  11.446  0.6752 -0.0610  0.5907
 6993TIP3    H142470   4.587   4.387  11.479  0.0708 -0.6113  0.7518
 6993TIP3    H242471   4.454   4.450  11.513  0.5037  0.4989  0.4122
 6994TIP3   OH242472   5.368   2.332   1.367  0.3026  0.3713  0.2568
 6994TIP3    H142473   5.293   2.355   1.422 -0.4122  0.3054 -0.6698
 6994TIP3    H242474   5.440   2.319   1.429 -0.4491  0.4192  1.1626
 6995TIP3   OH242475   2.417   1.795  16.980 -0.0144  0.0156  0.3603
 6995TIP3    H142476   2.445   1.762  17.065  0.7554  1.1684  0.5712
 6995TIP3    H242477   2.323   1.775  16.977  0.1008 -0.7277  1.1366
 6996TIP3   OH242478   3.432   5.698  16.227 -0.7039 -0.7613 -0.2096
 6996TIP3    H142479   3.357   5.642  16.247  0.5608 -2.1300  0.9731
 6996TIP3    H242480   3.481   5.648  16.161  0.4587 -1.1062  0.8796
 6997TIP3   OH242481   2.174   3.988   1.056  0.0452 -0.1498 -0.7434
 6997TIP3    H142482   2.184   3.903   1.098  0.6441  0.4480  0.3638
 6997TIP3    H242483   2.107   4.033   1.107  2.2093  1.3569  0.9384
 6998TIP3   OH242484   0.111   4.949  10.969 -0.3994 -0.2706  0.2280
 6998TIP3    H142485   0.173   5.004  10.920 -3.3481  1.3922 -2.0077
 6998TIP3    H242486   0.153   4.863  10.974  2.6899  1.1235  0.2831
 6999TIP3   OH242487   0.675   2.597  11.437 -0.0338 -0.2884 -0.3054
 6999TIP3    H142488   0.596   2.641  11.470  1.1346  3.1943 -1.7197
 6999TIP3    H242489   0.647   2.558  11.354 -0.3293  0.8315 -0.7493
 7000TIP3   OH242490   1.365   5.460   0.516  0.0291  0.0981 -0.5587
 7000TIP3    H142491   1.344   5.553   0.516 -3.4365 -0.5572 -0.7793
 7000TIP3    H242492   1.362   5.435   0.424 -0.3993 -0.4556 -0.3990
 7001TIP3   OH242493   3.894   4.160  13.035  0.0705 -0.1942  0.3308
 7001TIP3    H142494   3.878   4.139  12.943 -1.0660 -1.2281  0.7418
 7001TIP3    H242495   3.834   4.103  13.083 -1.5013  2.4059  1.6193
 7002TIP3   OH242496   1.398   0.805   2.160  0.9785  0.6734 -0.4660
 7002TIP3    H142497   1.347   0.732   2.124  0.0350  0.6629  0.8313
 7002TIP3    H242498   1.365   0.882   2.113 -1.7912  0.9765  1.7218
 7003TIP3   OH242499   2.261   2.975   3.602  0.6267 -0.5604  0.5705
 7003TIP3    H142500   2.231   2.910   3.666  2.6987 -2.3916 -0.1637
 7003TIP3    H242501   2.226   2.944   3.518  1.1148 -0.3715  0.2937
 7004TIP3   OH242502   4.107   0.960   3.253 -0.1633 -0.0925  0.1499
 7004TIP3    H142503   4.202   0.970   3.242 -0.0800 -0.7275  0.2295
 7004TIP3    H242504   4.076   1.048   3.274  0.6553 -0.1517  1.8013
 7005TIP3   OH242505   6.374   2.233  11.376 -0.4122  0.3452  0.3917
 7005TIP3    H142506   6.343   2.287  11.303 -0.6726 -0.4603 -0.1030
 7005TIP3    H242507   6.306   2.167  11.388  0.7538 -1.0364 -0.2684
 7006TIP3   OH242508   5.053   0.713  16.752  0.1391 -0.5123  0.1358
 7006TIP3    H142509   5.136   0.669  16.768 -0.2248 -1.6827 -1.0728
 7006TIP3    H242510   5.029   0.751  16.837  2.2735  0.5394  0.3254
 7007TIP3   OH242511   3.469   1.270  13.762  0.5658  0.3421  0.5180
 7007TIP3    H142512   3.457   1.176  13.751  1.7723 -0.0574  2.3023
 7007TIP3    H242513   3.409   1.294  13.832 -0.0079  1.0120 -0.1723
 7008TIP3   OH242514   6.824   6.743   4.511 -0.3496 -0.1999  0.0239
 7008TIP3    H142515   6.840   6.835   4.490  0.4622 -0.8382 -2.5132
 7008TIP3    H242516   6.892   6.721   4.574  0.7045  0.4528 -0.8556
 7009TIP3   OH242517   2.546   6.679   3.168 -0.0760  0.0015 -0.5403
 7009TIP3    H142518   2.600   6.755   3.148  0.0522  0.4530  1.3351
 7009TIP3    H242519   2.545   6.675   3.264 -1.8351 -1.0999 -0.5626
 7010TIP3   OH242520   5.096   2.246   0.061  0.6756 -0.2280  0.4568
 7010TIP3    H142521   5.065   2.197  -0.015 -0.1052  0.3322  0.4023
 7010TIP3    H242522   5.191   2.245   0.052  0.6708 -1.5376  0.3437
 7011TIP3   OH242523   1.493   0.472   1.333  0.1207 -0.5307 -0.1954
 7011TIP3    H142524   1.500   0.419   1.254  3.8674 -1.5671  0.6334
 7011TIP3    H242525   1.415   0.526   1.319  0.4575 -0.8192 -4.4464
 7012TIP3   OH242526   3.961   6.013  14.011  0.1994 -0.2837 -0.0874
 7012TIP3    H142527   3.894   6.004  13.944 -2.2103  1.0666  1.9769
 7012TIP3    H242528   4.011   6.091  13.984 -0.3795 -0.0773 -0.5945
 7013TIP3   OH242529   0.378   3.275   4.615  0.2483 -0.3692  0.8378
 7013TIP3    H142530   0.408   3.291   4.705  0.4291  0.0216  0.7081
 7013TIP3    H242531   0.358   3.181   4.613  1.8776 -0.7365  0.8030
 7014TIP3   OH242532   0.168   5.628   5.435  0.2397 -0.7152  0.1684
 7014TIP3    H142533   0.225   5.614   5.511 -0.5299 -1.6439  0.6072
 7014TIP3    H242534   0.135   5.717   5.446  0.9236 -0.4873  0.3792
 7015TIP3   OH242535   5.292   0.597   6.002 -0.3945 -0.2172 -0.1815
 7015TIP3    H142536   5.368   0.649   6.027  0.0353 -0.4837 -0.9065
 7015TIP3    H242537   5.230   0.610   6.074  0.7778 -0.9515  1.0012
 7016TIP3   OH242538   4.252   6.705   1.693 -0.0066  0.6464  0.5999
 7016TIP3    H142539   4.176   6.701   1.751  0.0949  1.0834  0.7626
 7016TIP3    H242540   4.224   6.761   1.621 -0.6319 -1.0147 -0.5218
 7017TIP3   OH242541   1.848   4.364   4.970 -0.3930 -0.3558  0.7929
 7017TIP3    H142542   1.874   4.273   4.978  1.2486 -0.4805 -3.3539
 7017TIP3    H242543   1.756   4.360   4.943 -0.2737 -0.8242  0.4419
 7018TIP3   OH242544   6.690   3.950   1.430 -0.1140  0.2250  0.5329
 7018TIP3    H142545   6.623   3.991   1.376  0.2431  0.4535  0.2619
 7018TIP3    H242546   6.743   4.022   1.463  0.4313 -0.0020  0.1675
 7019TIP3   OH242547   2.382   1.624   6.024 -0.2662  0.4839  0.2913
 7019TIP3    H142548   2.376   1.561   5.952 -0.1902  1.7243 -0.8472
 7019TIP3    H242549   2.346   1.579   6.100  2.8489 -2.1770  0.4013
 7020TIP3   OH242550   0.762   4.094   5.555  0.2232 -0.4435  0.1121
 7020TIP3    H142551   0.710   4.172   5.573 -0.8412 -0.7308 -1.5176
 7020TIP3    H242552   0.729   4.029   5.617  0.5760  0.1575  0.9500
 7021TIP3   OH242553   5.031   3.099  16.988 -0.1619  0.2386 -0.0505
 7021TIP3    H142554   5.025   3.148  17.070 -1.7627 -1.6249  1.0064
 7021TIP3    H242555   4.998   3.012  17.008  1.8570 -1.1326 -2.0512
 7022TIP3   OH242556   1.068   6.662  14.176 -0.1549  0.0878  0.0277
 7022TIP3    H142557   1.117   6.580  14.171  2.7114  1.6087  0.6567
 7022TIP3    H242558   1.084   6.705  14.092 -1.0665  0.3160 -0.0414
 7023TIP3   OH242559   2.987   1.498   5.262 -0.0446  0.3692 -0.5102
 7023TIP3    H142560   2.978   1.589   5.289 -0.5875 -0.0718  0.9028
 7023TIP3    H242561   2.959   1.447   5.339 -0.0179 -0.9832 -1.3560
 7024TIP3   OH242562   5.376   3.518  15.896  0.7246 -0.2257 -0.2321
 7024TIP3    H142563   5.446   3.502  15.833  0.6168 -0.8724 -0.1966
 7024TIP3    H242564   5.326   3.436  15.897  0.3665 -0.0028  0.2372
 7025TIP3   OH242565   2.789   2.197   6.245  0.2126 -0.1550 -0.7786
 7025TIP3    H142566   2.698   2.225   6.256  0.1033 -0.0249 -1.8990
 7025TIP3    H242567   2.787   2.140   6.168  1.1817  0.3588 -1.1979
 7026TIP3   OH242568   2.198   3.850  16.769 -0.3761 -0.0869  0.2272
 7026TIP3    H142569   2.221   3.770  16.723  2.6357  0.9801 -0.3175
 7026TIP3    H242570   2.197   3.825  16.861  1.6496 -0.5755  0.1621
 7027TIP3   OH242571   1.498   4.827   3.465 -0.4014 -0.6674 -0.0697
 7027TIP3    H142572   1.467   4.905   3.418 -0.5510 -1.3341 -1.0996
 7027TIP3    H242573   1.458   4.835   3.552 -1.9623 -0.5396 -0.7636
 7028TIP3   OH242574   0.491   5.624   3.213  0.2173 -0.0374 -0.3069
 7028TIP3    H142575   0.419   5.600   3.272  1.9197 -3.2783  0.6533
 7028TIP3    H242576   0.464   5.590   3.127 -0.5214  1.1916 -0.5918
 7029TIP3   OH242577   0.872   1.005  16.036 -0.4117  0.3499 -0.1046
 7029TIP3    H142578   0.913   1.090  16.016  0.0291  0.4234  1.0308
 7029TIP3    H242579   0.882   0.954  15.956  0.0113  1.1050 -0.5452
 7030TIP3   OH242580   5.039   4.041   2.174  0.5273  0.5204 -0.0442
 7030TIP3    H142581   4.969   4.076   2.118 -1.3839 -1.6463  0.8256
 7030TIP3    H242582   5.075   3.968   2.124 -1.5824 -1.8015  1.6121
 7031TIP3   OH242583   5.313   5.082   4.015  0.5325 -0.1513  0.4192
 7031TIP3    H142584   5.335   5.065   3.923  1.1188  0.1780  0.4917
 7031TIP3    H242585   5.364   5.160   4.037 -1.1723  1.0044  0.4263
 7032TIP3   OH242586   5.194   6.753  12.434 -0.2638 -0.2747 -0.3584
 7032TIP3    H142587   5.150   6.830  12.471 -1.0357  0.3705 -2.5191
 7032TIP3    H242588   5.286   6.778  12.427 -0.1954 -0.2234  0.5905
 7033TIP3   OH242589   2.523   3.397   2.899 -0.4860 -0.0826  0.2020
 7033TIP3    H142590   2.524   3.307   2.933  2.4964  0.4181  1.7971
 7033TIP3    H242591   2.587   3.395   2.827 -0.4585  0.7476  0.1972
 7034TIP3   OH242592   5.703   0.151   4.448  0.1257  0.6607 -0.3602
 7034TIP3    H142593   5.689   0.078   4.388 -1.6364  0.6736  0.0019
 7034TIP3    H242594   5.786   0.131   4.491  0.3641 -0.4028 -1.2746
 7035TIP3   OH242595   6.405   5.632   6.241  0.1174 -0.5251  0.0088
 7035TIP3    H142596   6.313   5.618   6.218  0.1423 -0.2605 -0.2574
 7035TIP3    H242597   6.426   5.559   6.300 -0.8041  0.4258  1.6176
 7036TIP3   OH242598   1.593   5.919   2.492  0.5198 -0.3939 -0.5017
 7036TIP3    H142599   1.503   5.887   2.490  0.3491 -0.0350  0.5451
 7036TIP3    H242600   1.586   6.011   2.468  0.2548  0.2772  1.9030
 7037TIP3   OH242601   3.698   3.877   2.475  0.5233  0.2242 -0.3292
 7037TIP3    H142602   3.612   3.912   2.500  0.5738 -0.5377  1.0298
 7037TIP3    H242603   3.679   3.813   2.406  0.1133  0.7073 -0.6753
 7038TIP3   OH242604   3.012   5.648  16.697  0.0206 -0.1237 -0.5258
 7038TIP3    H142605   2.916   5.652  16.693  0.0855  0.7477 -3.2249
 7038TIP3    H242606   3.030   5.574  16.755 -2.2820 -0.4806 -0.1468
 7039TIP3   OH242607   5.248   0.351   5.277 -0.1921  0.3066 -0.2999
 7039TIP3    H142608   5.204   0.432   5.251  0.1039  0.6520  0.2598
 7039TIP3    H242609   5.184   0.282   5.257 -0.2267  0.6124 -1.3051
 7040TIP3   OH242610   4.785   2.770   1.449 -0.1620  0.3629 -0.0778
 7040TIP3    H142611   4.737   2.691   1.423 -1.8951  0.6018  2.1429
 7040TIP3    H242612   4.744   2.798   1.531  0.9479  3.1143 -0.3437
 7041TIP3   OH242613   3.923   4.470   5.319  0.1929 -0.4715 -0.0121
 7041TIP3    H142614   3.896   4.480   5.410  0.8217 -2.3896  0.4413
 7041TIP3    H242615   3.841   4.461   5.270 -0.1202 -0.5244  0.5182
 7042TIP3   OH242616   5.565   3.595   1.008 -0.0321  0.2436  0.3314
 7042TIP3    H142617   5.543   3.639   1.091 -1.6453 -0.1784  0.1743
 7042TIP3    H242618   5.490   3.614   0.952  0.4873 -0.4905 -0.6307
 7043TIP3   OH242619   2.337   0.884   1.818  0.9690 -0.0875  0.5692
 7043TIP3    H142620   2.297   0.950   1.762  0.2657 -1.4551 -0.6319
 7043TIP3    H242621   2.325   0.916   1.907 -3.3758 -0.6558  0.3752
 7044TIP3   OH242622   5.705   0.935   2.858 -0.2077  0.3810 -0.0341
 7044TIP3    H142623   5.705   1.014   2.803 -0.7370  0.8385  0.6052
 7044TIP3    H242624   5.687   0.968   2.946 -0.4464 -0.4629  0.2386
 7045TIP3   OH242625   1.382   0.096  14.859 -0.2432  0.2647  0.0449
 7045TIP3    H142626   1.425   0.069  14.940  0.3515 -0.6000 -0.5416
 7045TIP3    H242627   1.289   0.076  14.874 -0.1885  0.4667  0.6535
 7046TIP3   OH242628   3.920   0.637   5.500  0.1262  0.6117  0.1089
 7046TIP3    H142629   4.011   0.653   5.473  0.7121 -0.9685  0.9881
 7046TIP3    H242630   3.881   0.593   5.424  0.4897  0.1398  0.1854
 7047TIP3   OH242631   4.654   5.703  15.582  0.4077  0.2009 -0.3242
 7047TIP3    H142632   4.612   5.782  15.617  0.9098  0.7227 -0.8757
 7047TIP3    H242633   4.617   5.694  15.494 -1.9459 -1.9046  0.7147
 7048TIP3   OH242634   4.652   2.688  12.640 -0.4015 -0.5582  0.6189
 7048TIP3    H142635   4.600   2.663  12.563  0.0251 -0.8661  0.4263
 7048TIP3    H242636   4.694   2.770  12.614 -1.4305  0.1262  1.0781
 7049TIP3   OH242637   6.838   2.294  16.399  0.0497  0.2865 -0.2024
 7049TIP3    H142638   6.900   2.342  16.455 -0.8813  0.8469  0.3692
 7049TIP3    H242639   6.778   2.252  16.460  0.8605 -1.7009 -0.6840
 7050TIP3   OH242640   2.833   1.018  15.648 -0.2425 -0.1207  0.1768
 7050TIP3    H142641   2.873   0.963  15.581 -0.6982 -0.9110  0.5468
 7050TIP3    H242642   2.907   1.066  15.687 -0.1085  1.3734 -1.7659
 7051TIP3   OH242643   5.541   4.093   2.101  0.7072  0.1637 -0.0832
 7051TIP3    H142644   5.483   4.169   2.093  1.8325  1.1513  0.7727
 7051TIP3    H242645   5.629   4.129   2.097  1.2736 -1.1409  0.0113
 7052TIP3   OH242646   2.742   5.370   3.601  0.2473 -0.4249  0.3857
 7052TIP3    H142647   2.726   5.349   3.693 -1.6356  0.4579  0.3155
 7052TIP3    H242648   2.709   5.294   3.552  0.4719 -0.5387  0.4123
 7053TIP3   OH242649   2.134   4.363  13.409 -0.3106 -0.4989 -0.1020
 7053TIP3    H142650   2.217   4.403  13.383 -0.0236 -1.0071  0.0179
 7053TIP3    H242651   2.157   4.273  13.430 -1.1946 -1.1817 -1.8802
 7054TIP3   OH242652   3.705   3.146  12.422  0.4754  0.5259  0.0941
 7054TIP3    H142653   3.711   3.051  12.428  1.2945  0.6085  0.9848
 7054TIP3    H242654   3.732   3.177  12.509  4.9132  1.7124 -1.4120
 7055TIP3   OH242655   5.987   2.403   4.509 -0.0402 -0.3375 -0.1721
 7055TIP3    H142656   5.937   2.452   4.574  0.0075  0.2824 -0.5960
 7055TIP3    H242657   6.059   2.461   4.484  0.6709 -1.0578  0.1251
 7056TIP3   OH242658   5.411   0.885  10.302 -0.5672 -0.2015 -0.9229
 7056TIP3    H142659   5.405   0.974  10.336  0.5115 -0.5128  0.1294
 7056TIP3    H242660   5.503   0.860  10.312 -1.2645 -2.3173  1.2006
 7057TIP3   OH242661   6.223   4.450  13.006 -0.1141  0.2731  0.9169
 7057TIP3    H142662   6.189   4.440  12.917  0.8268 -0.3200  0.6103
 7057TIP3    H242663   6.240   4.361  13.035  2.7597  0.5716  0.4123
 7058TIP3   OH242664   2.770   3.285   4.924 -0.1832  0.1593  0.4256
 7058TIP3    H142665   2.722   3.337   4.989  1.6445  0.1833  1.8362
 7058TIP3    H242666   2.850   3.259   4.968  1.0418 -0.0456 -1.7560
 7059TIP3   OH242667   0.583   4.350   2.379  0.3958  0.2020  0.0148
 7059TIP3    H142668   0.527   4.428   2.379 -0.1491 -0.1726 -0.6856
 7059TIP3    H242669   0.655   4.372   2.319  0.0811  0.0687 -0.4222
 7060TIP3   OH242670   3.036   5.926  16.722 -0.4849 -0.2594 -0.4538
 7060TIP3    H142671   3.007   5.839  16.750 -0.7815 -0.3209 -0.9337
 7060TIP3    H242672   2.979   5.987  16.768 -1.7296 -0.3901 -1.7364
 7061TIP3   OH242673   3.071   5.585  11.775  0.0109  0.1128 -0.1925
 7061TIP3    H142674   3.126   5.661  11.791  1.2221 -0.5159 -1.2009
 7061TIP3    H242675   3.070   5.538  11.858  1.6297 -0.2384 -0.3311
 7062TIP3   OH242676   0.715   4.140   4.956  0.1090  0.4768  0.2671
 7062TIP3    H142677   0.806   4.115   4.975 -0.3359 -0.9100  0.6873
 7062TIP3    H242678   0.711   4.144   4.861  0.2085 -1.1607  0.1690
 7063TIP3   OH242679   4.040   1.899   2.108 -0.2641  0.1096  0.0231
 7063TIP3    H142680   3.948   1.907   2.080  0.2098  0.2161 -1.6276
 7063TIP3    H242681   4.037   1.837   2.181 -1.5469 -0.6978 -0.6567
 7064TIP3   OH242682   6.654   3.706  13.712  0.0846 -0.4846 -0.3934
 7064TIP3    H142683   6.643   3.626  13.661 -0.2752 -0.7920  0.1550
 7064TIP3    H242684   6.667   3.675  13.802 -0.0393  0.0738 -0.1800
 7065TIP3   OH242685   0.782   4.894  15.788  0.0642 -0.1879 -0.3922
 7065TIP3    H142686   0.757   4.986  15.794  0.1643 -0.2635  1.7926
 7065TIP3    H242687   0.751   4.854  15.869  0.0230 -2.1060 -1.2822
 7066TIP3   OH242688   2.849   2.802  13.346  0.2916  0.3155  0.1561
 7066TIP3    H142689   2.904   2.880  13.346 -1.0015  1.2505  0.1978
 7066TIP3    H242690   2.908   2.732  13.375  1.3858  1.3287  0.4757
 7067TIP3   OH242691   1.043   4.652  15.104 -0.1084 -0.7119  0.8006
 7067TIP3    H142692   0.971   4.613  15.054 -0.0425  0.8670 -0.6400
 7067TIP3    H242693   1.016   4.642  15.196 -3.0928  1.2640  0.3163
 7068TIP3   OH242694   3.107   6.480   1.391 -0.1719 -0.0821  0.4650
 7068TIP3    H142695   3.106   6.427   1.470  0.9876  0.2927  0.7621
 7068TIP3    H242696   3.079   6.421   1.321  3.8357 -2.1024  0.2484
 7069TIP3   OH242697   2.176   3.041  12.951 -0.1826  0.0807  0.3245
 7069TIP3    H142698   2.232   3.051  13.028  0.2009  1.6519 -0.1144
 7069TIP3    H242699   2.182   2.948  12.929 -0.3226 -0.3998  2.1873
 7070TIP3   OH242700   0.410   1.053  11.263  0.0939  0.3796  0.1279
 7070TIP3    H142701   0.404   1.144  11.290  0.2015  0.7483 -1.0421
 7070TIP3    H242702   0.420   1.056  11.168 -1.1700 -0.8895 -0.0797
 7071TIP3   OH242703   3.985   6.108  12.484  0.3354  0.0297 -0.2766
 7071TIP3    H142704   4.004   6.043  12.551  2.9811  1.4767  0.5132
 7071TIP3    H242705   3.942   6.180  12.531 -0.4575 -0.1403 -0.7157
 7072TIP3   OH242706   2.580   3.140   4.376 -0.4330 -0.5045 -0.0015
 7072TIP3    H142707   2.501   3.088   4.382 -0.0080 -1.0123  2.1273
 7072TIP3    H242708   2.577   3.197   4.453  2.1166 -1.8446  1.2197
 7073TIP3   OH242709   4.167   0.324  10.697 -0.5024 -0.2269 -0.0399
 7073TIP3    H142710   4.218   0.287  10.625 -0.5729  1.8852 -1.2590
 7073TIP3    H242711   4.136   0.408  10.664  0.3945  1.3720  2.8578
 7074TIP3   OH242712   0.595   3.413   5.133 -0.0683 -0.6581  0.1675
 7074TIP3    H142713   0.559   3.502   5.141 -2.5904 -1.7562  2.0858
 7074TIP3    H242714   0.632   3.395   5.220  0.5191 -1.4723 -0.2463
 7075TIP3   OH242715   6.238   2.205   2.499 -0.1392 -0.0841 -0.0828
 7075TIP3    H142716   6.262   2.219   2.407 -1.1342  1.1524 -0.1672
 7075TIP3    H242717   6.321   2.209   2.546  0.2248  0.7300 -0.7666
 7076TIP3   OH242718   0.870   0.753  11.962  0.4123 -0.0256  0.3350
 7076TIP3    H142719   0.949   0.801  11.988  0.6559 -0.3806  0.2682
 7076TIP3    H242720   0.888   0.725  11.872  1.3376 -2.3179  1.1346
 7077TIP3   OH242721   6.115   4.440  15.116  0.2926 -0.8729 -0.0104
 7077TIP3    H142722   6.150   4.373  15.059  1.3463 -0.5644  0.2471
 7077TIP3    H242723   6.155   4.422  15.202 -1.1835 -1.2759  0.6160
 7078TIP3   OH242724   3.150   0.057  12.517 -0.0913 -0.5324  0.2986
 7078TIP3    H142725   3.054   0.057  12.519 -0.1143 -0.4258 -0.4926
 7078TIP3    H242726   3.173  -0.034  12.501 -0.2016 -0.0748 -3.3023
 7079TIP3   OH242727   1.630   2.073  15.289  0.4415 -0.4522 -0.1665
 7079TIP3    H142728   1.669   2.022  15.218  1.4836  0.2620 -0.1327
 7079TIP3    H242729   1.701   2.084  15.352 -0.0008  0.3481  0.2004
 7080TIP3   OH242730   5.633   5.149   3.069  0.0450  0.2793 -0.2416
 7080TIP3    H142731   5.543   5.136   3.101  0.6315 -0.9381  1.0418
 7080TIP3    H242732   5.669   5.060   3.063  1.3726  0.7846 -0.0954
 7081TIP3   OH242733   0.130   2.207   5.170  0.3695 -0.7100 -0.1648
 7081TIP3    H142734   0.143   2.125   5.219  2.2670  0.4963  1.5231
 7081TIP3    H242735   0.214   2.222   5.127 -0.5542 -0.5457 -1.9900
 7082TIP3   OH242736   0.365   2.470   0.326  0.4344  0.5525 -0.2863
 7082TIP3    H142737   0.270   2.486   0.330  0.3816  0.0414  1.0088
 7082TIP3    H242738   0.403   2.557   0.312 -0.1932  0.8576 -0.1550
 7083TIP3   OH242739   0.142   0.002  12.713  0.3136  0.1366 -0.0105
 7083TIP3    H142740   0.148   0.047  12.629 -0.5186 -1.1205 -0.7760
 7083TIP3    H242741   0.184  -0.083  12.698  1.2946  0.3711  1.2251
 7084TIP3   OH242742   2.386   3.225   1.916 -0.3184 -0.2760  0.3188
 7084TIP3    H142743   2.355   3.209   1.827 -0.0211 -0.5814  0.2673
 7084TIP3    H242744   2.465   3.278   1.905 -0.9067  0.6482  0.4564
 7085TIP3   OH242745   3.781   4.208  16.530 -0.2503 -0.0505  0.5270
 7085TIP3    H142746   3.843   4.164  16.472 -1.1164 -0.6630  0.0354
 7085TIP3    H242747   3.700   4.212  16.479 -1.1564 -0.9715  1.8341
 7086TIP3   OH242748   2.124   1.479   1.567  0.3687  0.4770  0.2254
 7086TIP3    H142749   2.119   1.548   1.500 -0.8871  1.0709  0.8903
 7086TIP3    H242750   2.101   1.399   1.521 -0.6645  0.9090 -0.0378
 7087TIP3   OH242751   0.457   0.622  14.949  0.1768 -0.4086 -0.3635
 7087TIP3    H142752   0.448   0.645  14.857  1.2570  1.6104 -0.0220
 7087TIP3    H242753   0.547   0.646  14.970 -0.0603 -0.8345  1.2283
 7088TIP3   OH242754   4.262   2.499  16.765 -0.6390 -0.1663 -0.0638
 7088TIP3    H142755   4.232   2.586  16.738 -0.2091 -0.6415 -2.2660
 7088TIP3    H242756   4.352   2.493  16.733 -0.0696 -0.8251  1.5581
 7089TIP3   OH242757   2.130   5.199  12.776 -0.1663 -0.1873 -0.6513
 7089TIP3    H142758   2.181   5.279  12.760  0.2083 -0.0531  0.9699
 7089TIP3    H242759   2.151   5.142  12.703 -1.4462  1.6513 -2.5636
 7090TIP3   OH242760   4.892   5.602  15.266 -0.6954 -0.3745 -0.1035
 7090TIP3    H142761   4.872   5.612  15.173 -1.0965 -0.2530 -0.0067
 7090TIP3    H242762   4.976   5.556  15.268  0.6991  1.9830 -0.5743
 7091TIP3   OH242763   0.154   6.461   1.660 -0.2374  0.2145 -0.0416
 7091TIP3    H142764   0.209   6.429   1.731 -2.3464  0.4545  1.8137
 7091TIP3    H242765   0.083   6.396   1.654 -0.3758  0.4702 -1.6013
 7092TIP3   OH242766   0.631   6.327   4.916  0.2003 -0.3292 -0.0756
 7092TIP3    H142767   0.583   6.407   4.897 -0.6465 -0.7772  0.1153
 7092TIP3    H242768   0.723   6.353   4.914  0.1028  0.0739 -2.7890
 7093TIP3   OH242769   0.662   5.408   3.881 -1.2478  0.0679  0.2819
 7093TIP3    H142770   0.696   5.324   3.910  2.2829  1.0106 -0.7281
 7093TIP3    H242771   0.637   5.394   3.789  0.0786  0.2636 -0.1250
 7094TIP3   OH242772   4.552   0.715   6.515 -0.0465  0.1666  0.1267
 7094TIP3    H142773   4.641   0.684   6.501 -0.5705 -0.7450 -1.4040
 7094TIP3    H242774   4.540   0.783   6.448 -0.8794 -0.5474 -0.4629
 7095TIP3   OH242775   2.003   6.747  16.377 -0.2253  0.3210  1.0020
 7095TIP3    H142776   2.007   6.707  16.464 -0.2590 -2.1860 -0.0560
 7095TIP3    H242777   1.941   6.693  16.329  0.8123  0.7945 -0.9628
 7096TIP3   OH242778   4.607   3.489   4.810  0.0681 -0.1768  0.3288
 7096TIP3    H142779   4.544   3.444   4.754  0.1898  1.8391 -1.5629
 7096TIP3    H242780   4.592   3.582   4.792  0.8455  0.5358  2.9067
 7097TIP3   OH242781   3.021   4.429   2.004  0.4714  0.1089 -0.4052
 7097TIP3    H142782   3.057   4.341   2.006  2.3448  0.8404  0.3362
 7097TIP3    H242783   3.017   4.452   1.911 -1.7512 -1.3588 -0.7455
 7098TIP3   OH242784   4.555   4.626   0.023  0.1433 -0.0229  0.1510
 7098TIP3    H142785   4.498   4.686  -0.025 -0.1383 -1.2770 -1.1668
 7098TIP3    H242786   4.495   4.559   0.057  0.5490 -0.0068  0.9309
 7099TIP3   OH242787   2.133   3.218   4.331 -0.0500  0.1479  0.1497
 7099TIP3    H142788   2.187   3.249   4.258  0.9496  0.3854  0.9598
 7099TIP3    H242789   2.130   3.292   4.392  0.1984 -0.4692  0.9261
 7100TIP3   OH242790   5.381   5.711   1.332 -0.1798 -0.3898 -0.1689
 7100TIP3    H142791   5.306   5.719   1.390 -1.2248  0.3585 -1.5539
 7100TIP3    H242792   5.364   5.631   1.282  0.0724 -0.3607 -0.3046
 7101TIP3   OH242793   0.781   5.939   0.661  0.0659 -0.0428  0.6830
 7101TIP3    H142794   0.832   5.965   0.584  1.1713  0.7631  1.6473
 7101TIP3    H242795   0.691   5.933   0.629  0.3527  1.2054 -0.4647
 7102TIP3   OH242796   5.004   1.027   3.726  0.0415  0.3150 -0.0823
 7102TIP3    H142797   5.003   0.962   3.657 -0.4593  0.4283 -0.1881
 7102TIP3    H242798   4.995   0.977   3.807  2.8258 -0.0224  0.1053
 7103TIP3   OH242799   4.250   1.267  15.706  0.1203  0.0969  0.0547
 7103TIP3    H142800   4.188   1.232  15.770  1.3573 -0.3715  1.0336
 7103TIP3    H242801   4.231   1.361  15.702  0.4693  0.2505  1.6272
 7104TIP3   OH242802   4.477   4.735  15.090 -0.0567 -0.2155  0.0964
 7104TIP3    H142803   4.444   4.646  15.076  0.7675 -0.5236  0.0135
 7104TIP3    H242804   4.435   4.787  15.022 -2.9810  0.1330  2.0315
 7105TIP3   OH242805   4.817   1.084   1.889 -0.5113  0.0635 -0.5947
 7105TIP3    H142806   4.746   1.148   1.894  0.9683  1.6914  3.0815
 7105TIP3    H242807   4.894   1.135   1.865  0.3717 -0.5813  0.7194
 7106TIP3   OH242808   6.136   0.468   4.389  0.1476  0.2122  0.1702
 7106TIP3    H142809   6.215   0.414   4.401 -0.4274 -0.4548  1.2138
 7106TIP3    H242810   6.138   0.529   4.463 -1.3279 -1.1732  1.4461
 7107TIP3   OH242811   0.572   4.650  13.207  0.1081  0.1325 -0.3138
 7107TIP3    H142812   0.501   4.703  13.172 -0.6235 -0.2267  0.6060
 7107TIP3    H242813   0.639   4.652  13.138 -0.0260  1.9523 -0.4477
 7108TIP3   OH242814   2.702   4.623  15.607  0.0740  0.7773 -0.2789
 7108TIP3    H142815   2.690   4.710  15.570 -0.0866  1.1071  0.5301
 7108TIP3    H242816   2.621   4.606  15.655  0.9811  1.1363  1.4547
 7109TIP3   OH242817   0.833   4.355   0.416 -0.9136 -0.2546  0.2496
 7109TIP3    H142818   0.795   4.301   0.346 -0.6549 -0.4214  0.2352
 7109TIP3    H242819   0.848   4.293   0.488  0.4799 -0.4608 -0.1765
 7110TIP3   OH242820   3.112   1.774  16.892  0.3140 -0.3807 -0.1436
 7110TIP3    H142821   3.039   1.825  16.926  1.7240  0.3599  1.9801
 7110TIP3    H242822   3.109   1.787  16.797 -1.1880  1.1207  0.0817
 7111TIP3   OH242823   4.831   4.799  14.703 -0.1554  0.2414  0.0473
 7111TIP3    H142824   4.842   4.783  14.609  0.5491  2.7016 -0.3681
 7111TIP3    H242825   4.895   4.868  14.722 -0.0636 -0.4422  2.4322
 7112TIP3   OH242826   2.600   2.654   4.928  0.2122 -0.1411 -0.4174
 7112TIP3    H142827   2.645   2.730   4.964  1.5043  0.8191 -3.6672
 7112TIP3    H242828   2.652   2.579   4.957 -0.3007  0.2522  1.7040
 7113TIP3   OH242829   5.448   5.732  13.706 -0.1087 -0.4423  0.2189
 7113TIP3    H142830   5.427   5.700  13.793  0.2882 -0.3575  0.3496
 7113TIP3    H242831   5.488   5.818  13.721 -1.3745  0.2370 -0.1387
 7114TIP3   OH242832   1.879   0.281   4.275 -0.6497  0.1250  0.1878
 7114TIP3    H142833   1.904   0.263   4.184  1.1301 -2.0902  1.0248
 7114TIP3    H242834   1.809   0.218   4.293  1.2105 -1.8065  1.2150
 7115TIP3   OH242835   1.249   4.823   3.227 -0.6135 -0.3114 -0.1618
 7115TIP3    H142836   1.249   4.737   3.270  0.5426  0.3078  1.1219
 7115TIP3    H242837   1.340   4.852   3.231 -1.0756  1.1951 -0.1065
 7116TIP3   OH242838   3.845   1.326   4.046  0.0384  0.0264  0.3683
 7116TIP3    H142839   3.892   1.306   4.127 -0.4588  0.6911  0.8334
 7116TIP3    H242840   3.783   1.394   4.071  0.1626  0.5374 -0.6698
 7117TIP3   OH242841   6.332   1.837  16.374 -0.0945  0.9496 -0.2371
 7117TIP3    H142842   6.403   1.787  16.414 -1.1139 -0.2388  0.1735
 7117TIP3    H242843   6.340   1.925  16.411 -0.0283  0.3083  1.3600
 7118TIP3   OH242844   1.280   5.317   4.387  0.4365 -0.4155 -0.4086
 7118TIP3    H142845   1.252   5.306   4.478  0.7440  0.7623 -0.1633
 7118TIP3    H242846   1.205   5.357   4.344  1.2004  1.4512 -0.0667
 7119TIP3   OH242847   6.731   4.191   1.744  0.2838 -0.5110 -0.6684
 7119TIP3    H142848   6.755   4.186   1.652  1.5531  0.7364 -0.4376
 7119TIP3    H242849   6.730   4.285   1.764 -1.6160 -0.6686  0.1872
 7120TIP3   OH242850   2.041   1.522  13.752 -0.4614  0.2507 -0.1202
 7120TIP3    H142851   2.062   1.615  13.741 -1.7795  0.5283 -0.4936
 7120TIP3    H242852   2.126   1.478  13.753  0.1443  1.2793 -1.6709
 7121TIP3   OH242853   6.609   4.482   6.267 -0.1114  0.4432  0.0593
 7121TIP3    H142854   6.600   4.565   6.315 -0.1683  0.8666 -0.6683
 7121TIP3    H242855   6.663   4.427   6.324 -0.7201  0.7015  0.8996
 7122TIP3   OH242856   4.503   5.485  12.882 -0.5825 -0.1934 -0.0908
 7122TIP3    H142857   4.536   5.471  12.793 -1.0098  0.2107 -0.3160
 7122TIP3    H242858   4.484   5.578  12.886 -1.2574 -0.3362  0.1856
 7123TIP3   OH242859   1.264   2.723  12.139 -0.0440  0.1562  0.2477
 7123TIP3    H142860   1.242   2.815  12.153  0.1365  0.0890  0.9895
 7123TIP3    H242861   1.193   2.689  12.085 -1.0159  0.3035  1.3979
 7124TIP3   OH242862   0.754   2.202   5.462 -0.5946  0.0013 -0.5194
 7124TIP3    H142863   0.781   2.167   5.377 -1.0398 -0.4279 -0.4903
 7124TIP3    H242864   0.696   2.276   5.441  0.0946  0.5318 -0.5820
 7125TIP3   OH242865   4.643   4.964  14.409 -0.3339 -0.3755  0.1634
 7125TIP3    H142866   4.711   4.899  14.391 -1.1714 -1.0970 -0.5786
 7125TIP3    H242867   4.563   4.912  14.417 -1.2466  0.6326 -1.6821
 7126TIP3   OH242868   3.741   2.870  14.360 -0.5298  0.7343  0.0728
 7126TIP3    H142869   3.795   2.926  14.303 -2.0546  2.9588  0.6869
 7126TIP3    H242870   3.664   2.849  14.307 -0.2226 -0.3667  0.0446
 7127TIP3   OH242871   1.681   3.408   4.930 -0.3634  0.2142  0.2135
 7127TIP3    H142872   1.676   3.501   4.955  0.3143  0.1786  0.5000
 7127TIP3    H242873   1.705   3.410   4.838 -1.3432  0.3288 -0.0510
 7128TIP3   OH242874   0.167   3.899  14.777 -0.0047  0.7777  0.1233
 7128TIP3    H142875   0.116   3.974  14.807 -0.8914  0.1457  0.2422
 7128TIP3    H242876   0.236   3.937  14.724 -1.1883  1.6195 -0.8812
 7129TIP3   OH242877   3.968   1.783   2.892  0.3534  0.0976 -0.0541
 7129TIP3    H142878   3.917   1.754   2.968  0.3698  0.5052  0.1158
 7129TIP3    H242879   4.051   1.736   2.900 -0.2834 -1.2126 -0.7877
 7130TIP3   OH242880   0.700   2.947  11.686 -0.1056 -0.3500  0.4677
 7130TIP3    H142881   0.676   2.936  11.594  1.9011  0.2880 -0.1838
 7130TIP3    H242882   0.789   2.913  11.692  0.1293  0.4369  1.9704
 7131TIP3   OH242883   1.259   1.629  16.985  0.1879 -0.3147 -0.1435
 7131TIP3    H142884   1.215   1.643  16.900 -2.0529 -1.7938  0.6655
 7131TIP3    H242885   1.330   1.568  16.966  0.3637  0.1664 -1.1027
 7132TIP3   OH242886   0.143   3.766  13.106 -0.3572 -0.2490 -0.0268
 7132TIP3    H142887   0.224   3.724  13.076  0.2523 -0.9977  2.4421
 7132TIP3    H242888   0.162   3.860  13.103  0.8495 -0.4295  1.0406
 7133TIP3   OH242889   6.049   4.722  16.463  0.4963 -0.2160 -0.6445
 7133TIP3    H142890   6.010   4.668  16.531  0.6002 -0.4116 -0.7398
 7133TIP3    H242891   6.099   4.661  16.408 -0.2767 -0.1841 -1.3998
 7134TIP3   OH242892   3.974   2.838   0.081 -0.0830 -0.2284 -0.2409
 7134TIP3    H142893   3.958   2.757   0.129 -1.7773  0.2708  0.0899
 7134TIP3    H242894   4.065   2.861   0.102  0.6181 -2.2903 -0.7799
 7135TIP3   OH242895   6.175   2.050  15.512 -0.3099 -0.3267  0.2471
 7135TIP3    H142896   6.223   2.046  15.595 -0.1284 -1.9010  0.1060
 7135TIP3    H242897   6.094   2.097  15.533 -0.2761 -0.7229  1.3339
 7136TIP3   OH242898   2.509   4.829  15.193  0.1587 -0.1935  0.2046
 7136TIP3    H142899   2.466   4.751  15.228  0.9525  0.0644  1.8340
 7136TIP3    H242900   2.598   4.826  15.229  1.3068 -0.2775 -2.4065
 7137TIP3   OH242901   3.031   3.853  15.906 -0.2560 -0.0111  0.1333
 7137TIP3    H142902   3.124   3.834  15.891 -0.7505 -2.2760 -0.3169
 7137TIP3    H242903   3.010   3.809  15.988 -0.9174  0.6827  0.3529
 7138TIP3   OH242904   3.222   5.949   3.330 -0.1306  1.1136 -0.2403
 7138TIP3    H142905   3.227   6.030   3.379  2.0188  2.7430 -2.8411
 7138TIP3    H242906   3.313   5.923   3.318 -0.7422 -1.3883 -0.0319
 7139TIP3   OH242907   6.347   1.117  11.789 -0.4650  0.9699  0.3539
 7139TIP3    H142908   6.291   1.186  11.826 -0.6309  0.6716  0.6757
 7139TIP3    H242909   6.413   1.102  11.857 -1.1099  0.0161  0.8036
 7140TIP3   OH242910   5.371   2.470   2.339  0.6693  0.2045 -0.0227
 7140TIP3    H142911   5.351   2.395   2.283 -1.0077  1.6764 -1.4775
 7140TIP3    H242912   5.327   2.450   2.422  0.3540 -0.4803 -0.3505
 7141TIP3   OH242913   6.304   5.983   3.979 -0.1381  0.1123  0.1487
 7141TIP3    H142914   6.250   5.910   3.949  2.0333 -1.8344  0.6493
 7141TIP3    H242915   6.350   6.013   3.901 -0.4505  0.4317  0.0860
 7142TIP3   OH242916   3.728   5.781   1.894  0.3143 -0.2937  0.0640
 7142TIP3    H142917   3.740   5.760   1.801 -1.5378 -1.8619  0.1206
 7142TIP3    H242918   3.654   5.841   1.896 -0.2103 -0.9488  0.5796
 7143TIP3   OH242919   5.226   5.461   1.972 -0.3519 -0.3891  0.3749
 7143TIP3    H142920   5.278   5.382   1.957 -0.7512 -1.1507  2.6550
 7143TIP3    H242921   5.200   5.456   2.064  1.2435  3.3623  1.2142
 7144TIP3   OH242922   2.939   0.019   1.279 -0.0800 -0.0141 -0.7788
 7144TIP3    H142923   2.962   0.006   1.187 -1.5410 -0.5834 -1.0951
 7144TIP3    H242924   2.954   0.112   1.295 -1.9668  0.6106 -2.2677
 7145TIP3   OH242925   6.245   0.528  13.266  0.0077 -0.8387 -0.4144
 7145TIP3    H142926   6.204   0.442  13.279 -1.0831 -0.1989  0.6048
 7145TIP3    H242927   6.207   0.560  13.184  0.1680 -1.1833 -0.6271
 7146TIP3   OH242928   0.888   6.063  15.152  0.7862  0.0960 -0.4882
 7146TIP3    H142929   0.869   6.068  15.245 -0.4556  0.8043 -0.7576
 7146TIP3    H242930   0.849   5.981  15.123  1.1066 -0.0880 -0.3933
 7147TIP3   OH242931   3.723   0.416  14.113  0.2848  0.1306 -0.5424
 7147TIP3    H142932   3.699   0.505  14.087  0.1736  0.4628  0.6363
 7147TIP3    H242933   3.696   0.361  14.040  2.1110  1.2522 -2.1561
 7148TIP3   OH242934   0.015   3.382   1.189  0.7943 -0.1374 -0.7716
 7148TIP3    H142935   0.007   3.450   1.121 -0.8098 -1.6670 -2.2253
 7148TIP3    H242936  -0.025   3.422   1.266  0.8124  0.9331 -1.2893
 7149TIP3   OH242937   1.761   0.894   3.422 -0.2644  0.1065  0.3681
 7149TIP3    H142938   1.855   0.877   3.429  0.0937  1.0416 -1.4977
 7149TIP3    H242939   1.723   0.811   3.393  0.0242 -0.1552  0.7274
 7150TIP3   OH242940   1.646   6.322  13.192  0.1009  0.1619  0.4247
 7150TIP3    H142941   1.727   6.327  13.141 -0.0409  0.0124  0.1842
 7150TIP3    H242942   1.585   6.274  13.136  0.6981 -2.3158  1.7164
 7151TIP3   OH242943   6.058   4.431  14.039 -0.1687  0.0231 -0.4251
 7151TIP3    H142944   6.010   4.380  13.974 -2.1000 -0.2825  1.1494
 7151TIP3    H242945   6.012   4.516  14.041  1.5220  1.0013 -1.3147
 7152TIP3   OH242946   1.903   4.871   1.847  0.1292 -0.7812  0.1773
 7152TIP3    H142947   1.839   4.836   1.909 -0.6286 -0.0444 -0.1782
 7152TIP3    H242948   1.866   4.853   1.761  0.7200 -0.9411 -0.0483
 7153TIP3   OH242949   2.085   3.780  14.621  0.7233  0.3984 -0.6357
 7153TIP3    H142950   2.172   3.771  14.580  0.6258  1.0599 -1.0113
 7153TIP3    H242951   2.080   3.873  14.645  0.1969  0.3194 -0.4378
 7154TIP3   OH242952   5.511   5.348   6.262 -0.5155  0.3222 -0.2172
 7154TIP3    H142953   5.453   5.409   6.307 -0.6702  0.6413 -0.8400
 7154TIP3    H242954   5.472   5.337   6.175  0.6597  0.9878 -0.8522
 7155TIP3   OH242955   6.517   2.028   5.602 -0.0155  0.1358  0.0782
 7155TIP3    H142956   6.554   2.048   5.688  2.6210  0.1973 -0.9727
 7155TIP3    H242957   6.478   2.110   5.573  0.4047  0.5239  0.5962
 7156TIP3   OH242958   3.657   0.478  12.600 -0.2716 -0.4579  0.3646
 7156TIP3    H142959   3.701   0.560  12.622 -0.5907 -0.4819  1.0926
 7156TIP3    H242960   3.635   0.488  12.507 -2.3841  1.2665  0.9853
 7157TIP3   OH242961   0.320   2.698  12.307 -0.1993 -0.2089  0.0801
 7157TIP3    H142962   0.380   2.764  12.272  0.3730 -0.5186  0.4807
 7157TIP3    H242963   0.350   2.682  12.396 -1.3268  0.1851  0.5615
 7158TIP3   OH242964   2.187   5.622   5.027 -0.0804  0.5166  0.3994
 7158TIP3    H142965   2.145   5.689   5.082 -0.7722  0.5252 -0.1273
 7158TIP3    H242966   2.115   5.568   4.996  0.3149  0.4499 -0.4198
 7159TIP3   OH242967   5.414   2.814  15.424 -0.0861 -0.3668  0.1219
 7159TIP3    H142968   5.361   2.863  15.487  0.9853 -0.2680  0.9797
 7159TIP3    H242969   5.365   2.820  15.341 -1.3820 -0.2731  0.8700
 7160TIP3   OH242970   5.199   0.912  11.592  0.4698  0.1552 -0.0559
 7160TIP3    H142971   5.120   0.959  11.567  0.5415 -0.0627 -0.7298
 7160TIP3    H242972   5.268   0.954  11.540  0.5387 -0.6575 -0.6472
 7161TIP3   OH242973   4.865   3.039   5.713  0.0002 -0.3649 -0.2842
 7161TIP3    H142974   4.878   3.059   5.620  0.9339 -1.7334 -0.4771
 7161TIP3    H242975   4.917   2.960   5.728 -0.2567 -0.2524  1.3766
 7162TIP3   OH242976   1.107   1.009  11.942  0.3226 -0.0808 -0.4144
 7162TIP3    H142977   1.103   0.983  11.850 -0.8482 -2.4090  0.2357
 7162TIP3    H242978   1.201   1.013  11.961  0.5934  0.8489 -1.7863
 7163TIP3   OH242979   3.559   6.573   4.925 -0.1195 -0.0270  0.1094
 7163TIP3    H142980   3.559   6.541   5.015  1.1587 -1.4316 -0.3510
 7163TIP3    H242981   3.607   6.507   4.876 -0.2025  1.0459 -1.4953
 7164TIP3   OH242982   1.292   2.468   1.732 -0.0097  0.2882  0.7212
 7164TIP3    H142983   1.287   2.553   1.776  2.8365  0.2419  1.2948
 7164TIP3    H242984   1.356   2.481   1.661  0.3125 -1.2971  0.6727
 7165TIP3   OH242985   5.916   4.679   5.707 -0.0735 -0.6075 -0.3355
 7165TIP3    H142986   5.911   4.738   5.783  2.4085 -0.8225  0.0606
 7165TIP3    H242987   5.938   4.594   5.744  1.2289 -0.7066 -1.2828
 7166TIP3   OH242988   1.835   2.744   3.952 -0.0884  0.6834 -0.1819
 7166TIP3    H142989   1.894   2.772   4.022 -0.7096 -0.2947  0.7580
 7166TIP3    H242990   1.829   2.649   3.962 -1.1723  0.6750 -0.7807
 7167TIP3   OH242991   3.647   6.216   2.468  0.1449  0.1898  0.2882
 7167TIP3    H142992   3.623   6.308   2.462  0.9145  0.3077 -1.7271
 7167TIP3    H242993   3.731   6.215   2.512  0.9718  0.6599 -1.1970
 7168TIP3   OH242994   5.710   1.819   4.392 -0.4621 -0.4267  0.0083
 7168TIP3    H142995   5.777   1.760   4.358  1.1734  0.6468  1.2495
 7168TIP3    H242996   5.659   1.844   4.315 -0.7367 -2.8005 -0.6645
 7169TIP3   OH242997   5.941   3.031  16.795  0.7980  0.2980 -0.2191
 7169TIP3    H142998   5.953   3.105  16.855  2.6319 -0.1005 -0.0426
 7169TIP3    H242999   6.011   2.970  16.818 -0.3033 -1.2301 -0.7862
 7170TIP3   OH243000   5.637   1.529   4.908  0.2568  0.2130  0.5463
 7170TIP3    H143001   5.568   1.589   4.879  0.6793  0.2601 -0.4035
 7170TIP3    H243002   5.592   1.446   4.921  0.2178 -0.1226 -1.4108
 7171TIP3   OH243003   5.204   4.477   4.135 -0.1729 -0.6846 -0.2112
 7171TIP3    H143004   5.220   4.411   4.067  0.8068  0.5709 -1.2465
 7171TIP3    H243005   5.109   4.478   4.145 -0.4021 -0.4050 -2.0914
 7172TIP3   OH243006   5.375   1.177   2.846 -0.2350 -0.2936 -0.5446
 7172TIP3    H143007   5.369   1.085   2.871  0.5512 -0.0938  0.4136
 7172TIP3    H243008   5.456   1.208   2.887  0.1847  0.5028 -1.9198
 7173TIP3   OH243009   1.879   5.418  14.716  0.3449 -0.7898 -0.0340
 7173TIP3    H143010   1.841   5.408  14.803  1.2294  2.2820  0.8418
 7173TIP3    H243011   1.831   5.491  14.677  1.9391 -0.1035 -0.8464
 7174TIP3   OH243012   4.484   3.897  14.797  0.3631 -0.7095  0.1703
 7174TIP3    H143013   4.564   3.950  14.795 -1.1174  1.8133  1.7427
 7174TIP3    H243014   4.477   3.870  14.889 -1.2046  0.2153  0.3519
 7175TIP3   OH243015   1.873   6.741  16.980  0.6317  0.3064  0.1566
 7175TIP3    H143016   1.784   6.727  17.013  0.2449  2.7780  0.3330
 7175TIP3    H243017   1.863   6.744  16.885  0.5098  0.6824  0.1808
 7176TIP3   OH243018   0.901   4.330   3.031  0.5589 -0.3377  0.0783
 7176TIP3    H143019   0.950   4.362   3.107  1.0027 -1.8469  0.4668
 7176TIP3    H243020   0.840   4.266   3.068 -2.1539  1.8142 -0.3162
 7177TIP3   OH243021   3.704   4.614  15.952  0.0196  0.4085 -0.4319
 7177TIP3    H143022   3.715   4.523  15.923 -2.8402 -1.0803  2.4385
 7177TIP3    H243023   3.771   4.626  16.019 -1.5079 -0.8214  1.4250
 7178TIP3   OH243024   2.233   4.917   3.113  0.0385 -0.4048  0.5224
 7178TIP3    H143025   2.311   4.898   3.061 -1.4407 -0.0233 -1.9871
 7178TIP3    H243026   2.258   4.993   3.167  1.6883 -0.9266  0.5437
 7179TIP3   OH243027   6.718   3.535  11.777 -0.0207 -0.2239  0.4753
 7179TIP3    H143028   6.695   3.596  11.707 -1.7089 -1.1322  0.1869
 7179TIP3    H243029   6.658   3.555  11.848  0.7524 -0.2397  1.1570
 7180TIP3   OH243030   6.156   0.196   3.778 -0.0081 -0.2680 -0.4193
 7180TIP3    H143031   6.204   0.271   3.742  2.4570 -0.2544  2.4548
 7180TIP3    H243032   6.069   0.230   3.797 -0.0187  0.8568 -2.2374
 7181TIP3   OH243033   1.711   0.506   1.935 -0.0255  0.3007 -0.3582
 7181TIP3    H143034   1.798   0.547   1.937  0.6599 -1.0549 -0.6026
 7181TIP3    H243035   1.652   0.576   1.908  0.6345  1.8202  1.8093
 7182TIP3   OH243036   0.318   2.155  14.786 -0.5380  0.0274  0.3666
 7182TIP3    H143037   0.400   2.154  14.738 -0.6579  1.0849  0.1296
 7182TIP3    H243038   0.343   2.144  14.878 -0.1975 -0.3960  0.2265
 7183TIP3   OH243039   2.131   2.173   5.823  0.4575 -0.4055  0.1059
 7183TIP3    H143040   2.110   2.190   5.731 -1.0499 -0.4309  0.4217
 7183TIP3    H243041   2.156   2.081   5.825 -0.2865 -0.6230 -0.1687
 7184TIP3   OH243042   2.168   5.187  11.857  0.4598 -0.5858 -0.3803
 7184TIP3    H143043   2.148   5.239  11.779  1.7958  1.2575  0.4036
 7184TIP3    H243044   2.211   5.250  11.916 -1.1467 -1.7135  2.1528
 7185TIP3   OH243045   0.938   0.613  14.105  0.3111 -0.2320 -0.3515
 7185TIP3    H143046   0.896   0.537  14.144 -1.1443  0.7382  0.0468
 7185TIP3    H243047   0.902   0.617  14.016  0.1977  0.1350 -0.2895
 7186TIP3   OH243048   2.733   4.795   4.638 -0.6361  0.4459  0.6957
 7186TIP3    H143049   2.757   4.804   4.731 -1.9556 -0.6964  1.1805
 7186TIP3    H243050   2.637   4.798   4.638 -0.6521  2.5448 -0.8978
 7187TIP3   OH243051   2.854   3.486  12.091 -0.0548  0.7240  0.0101
 7187TIP3    H143052   2.928   3.516  12.144  0.5142 -0.1625 -0.2744
 7187TIP3    H243053   2.894   3.433  12.022 -1.0650 -1.2803  0.8882
 7188TIP3   OH243054   4.331   3.315  16.696 -0.4905 -0.1175 -0.6001
 7188TIP3    H143055   4.318   3.281  16.784 -0.1123  3.0430  0.8449
 7188TIP3    H243056   4.243   3.337  16.665 -0.4639  0.9183  0.0084
 7189TIP3   OH243057   4.248   4.509   3.083  0.3068 -0.3335 -0.6736
 7189TIP3    H143058   4.304   4.584   3.063 -0.9424  1.3770  1.7185
 7189TIP3    H243059   4.174   4.518   3.023 -0.0662  0.6779 -0.0911
 7190TIP3   OH243060   4.875   1.845  12.728 -0.3847 -0.2532 -0.0306
 7190TIP3    H143061   4.830   1.771  12.688  1.2207 -1.3251  0.0873
 7190TIP3    H243062   4.912   1.893  12.654  0.9463 -1.1654  0.0042
 7191TIP3   OH243063   6.437   0.411  13.781 -0.3206  0.0716 -0.0306
 7191TIP3    H143064   6.490   0.340  13.747 -0.3376  0.0405  0.0078
 7191TIP3    H243065   6.496   0.486  13.783  0.2418 -0.3726  1.6749
 7192TIP3   OH243066   1.724   5.283  11.095 -0.1513 -0.5279  0.3027
 7192TIP3    H143067   1.646   5.236  11.063  0.1622 -1.3170  0.6655
 7192TIP3    H243068   1.797   5.233  11.059  0.1926  0.3880 -0.2797
 7193TIP3   OH243069   3.856   0.119   3.026  0.5401  0.2995 -0.9372
 7193TIP3    H143070   3.847   0.156   2.938 -0.0763 -1.6634 -1.7546
 7193TIP3    H243071   3.767   0.117   3.061  0.5767 -0.2519 -0.8620
 7194TIP3   OH243072   0.950   3.217  10.979  0.0085 -0.2706  0.4361
 7194TIP3    H143073   1.032   3.176  10.952 -0.6415 -1.1138 -0.3262
 7194TIP3    H243074   0.976   3.284  11.043  1.3488  0.0086 -0.3673
 7195TIP3   OH243075   2.764   3.506  14.505 -0.2066  0.1266  0.0271
 7195TIP3    H143076   2.807   3.544  14.428 -1.0924  2.1975  0.4719
 7195TIP3    H243077   2.778   3.571  14.574 -0.8494 -0.9212  1.1739
 7196TIP3   OH243078   1.757   1.915   1.712 -0.0735 -0.1730  0.3026
 7196TIP3    H143079   1.722   1.881   1.629  0.0992  0.0283  0.1453
 7196TIP3    H243080   1.798   1.998   1.688 -1.2343  0.5731  0.8219
 7197TIP3   OH243081   4.236   6.693  16.171 -0.2258  0.3052  0.5361
 7197TIP3    H143082   4.250   6.599  16.171  0.5819  0.4124  0.7558
 7197TIP3    H243083   4.229   6.716  16.079  0.1192  0.0986  0.4561
 7198TIP3   OH243084   3.412   4.090   1.881  0.5441 -0.1719  0.2854
 7198TIP3    H143085   3.479   4.083   1.813 -1.0680 -0.5178 -1.3575
 7198TIP3    H243086   3.460   4.083   1.963  2.4854 -0.5628 -0.8213
 7199TIP3   OH243087   0.201   2.386  14.796  0.3840  0.0489 -0.2653
 7199TIP3    H143088   0.202   2.394  14.892 -1.3583 -1.0918 -0.1021
 7199TIP3    H243089   0.243   2.301  14.780  1.5454  0.6737 -0.6013
 7200TIP3   OH243090   1.876   1.557   4.617 -0.1397  0.0609 -0.2771
 7200TIP3    H143091   1.829   1.492   4.564  0.3537 -0.4956 -0.0482
 7200TIP3    H243092   1.927   1.607   4.553 -0.8914  0.5574 -0.5087
 7201TIP3   OH243093   6.225   3.940  10.706  0.9063  0.4523 -0.0234
 7201TIP3    H143094   6.297   3.966  10.648  0.6239 -2.3768 -1.8679
 7201TIP3    H243095   6.236   3.845  10.715 -2.5942 -0.1193 -0.4497
 7202TIP3   OH243096   2.430   4.491  11.249  0.0658  0.6930  0.3010
 7202TIP3    H143097   2.513   4.465  11.210  1.1547  3.0681  0.8714
 7202TIP3    H243098   2.387   4.543  11.180 -0.2722  0.7461  0.5495
 7203TIP3   OH243099   5.929   5.340   0.675 -0.1658 -0.3957  0.2419
 7203TIP3    H143100   5.990   5.407   0.644  0.0152 -0.3529  0.6846
 7203TIP3    H243101   5.947   5.265   0.619 -0.4750 -0.0303 -0.3579
 7204TIP3   OH243102   3.489   2.784  12.331  0.2152  0.0906  0.1823
 7204TIP3    H143103   3.487   2.858  12.271 -1.6792 -0.3264 -0.3587
 7204TIP3    H243104   3.470   2.821  12.417 -1.8831  0.1552 -0.2593
 7205TIP3   OH243105   3.501   3.633   4.753 -0.2031  0.6603  0.0187
 7205TIP3    H143106   3.587   3.623   4.793 -1.1227  0.7162  2.1721
 7205TIP3    H243107   3.481   3.548   4.715  1.1151  0.8929 -1.2936
 7206TIP3   OH243108   0.345   1.797   0.693  0.5409  0.1820  0.4694
 7206TIP3    H143109   0.397   1.717   0.698  1.1589  0.5698  0.3500
 7206TIP3    H243110   0.369   1.847   0.771 -0.7095 -0.2524  1.1567
 7207TIP3   OH243111   0.527   0.169   1.617  0.1089 -0.2555 -0.0124
 7207TIP3    H143112   0.495   0.099   1.674  0.7963 -0.9352 -0.4526
 7207TIP3    H243113   0.448   0.216   1.590 -0.2277  0.2855  1.7341
 7208TIP3   OH243114   4.625   1.980   2.922  0.7875  0.2763 -0.4351
 7208TIP3    H143115   4.614   2.068   2.887 -0.8440 -0.4367 -1.8837
 7208TIP3    H243116   4.537   1.950   2.942  1.4541 -0.4265  1.7239
 7209TIP3   OH243117   5.510   2.856   3.920 -0.5002 -0.0378 -0.0912
 7209TIP3    H143118   5.450   2.790   3.953  0.0836 -1.5191 -1.8414
 7209TIP3    H243119   5.590   2.808   3.900  0.2832  1.3748 -0.4826
 7210TIP3   OH243120   3.948   5.209  12.316 -0.8226  0.0105 -0.4620
 7210TIP3    H143121   3.882   5.264  12.274 -1.2043 -0.7291 -0.8395
 7210TIP3    H243122   3.920   5.204  12.408 -0.7664  0.4653 -0.4177
 7211TIP3   OH243123   1.906   0.036  15.384  0.2673 -0.2388  1.0112
 7211TIP3    H143124   1.946   0.096  15.446 -0.5101 -0.3288  1.6142
 7211TIP3    H243125   1.980  -0.000  15.334  0.6869  1.8944 -0.0242
 7212TIP3   OH243126   5.059   3.338  13.358 -0.2583  0.4793  0.0354
 7212TIP3    H143127   4.988   3.384  13.313 -0.7247  1.4130  1.6547
 7212TIP3    H243128   5.092   3.276  13.293 -1.4462  1.1869 -1.3021
 7213TIP3   OH243129   1.263   0.407  11.087  0.0288  0.0319 -0.0469
 7213TIP3    H143130   1.298   0.321  11.108 -0.4206 -0.3478 -0.8158
 7213TIP3    H243131   1.226   0.398  10.999  0.5479  1.1768 -0.4065
 7214TIP3   OH243132   1.968   2.743  16.891 -0.4240 -0.2650  0.4347
 7214TIP3    H143133   1.992   2.733  16.799  3.3436  1.6506  1.0615
 7214TIP3    H243134   1.888   2.795  16.889 -0.3587 -0.1527 -1.7214
 7215TIP3   OH243135   2.942   3.158   2.086 -0.1034 -0.5695 -0.0142
 7215TIP3    H143136   2.900   3.079   2.051 -1.9237  0.4453 -0.2671
 7215TIP3    H243137   2.873   3.224   2.084  0.4634  0.2792  2.9263
 7216TIP3   OH243138   6.299   5.379   6.051  0.2404  0.5340 -0.5268
 7216TIP3    H143139   6.350   5.311   6.098 -1.3454 -0.3511 -0.0168
 7216TIP3    H243140   6.250   5.423   6.120 -2.1519 -0.7964 -1.2811
 7217TIP3   OH243141   2.316   4.886   3.978  0.3768  0.1205 -0.1194
 7217TIP3    H143142   2.356   4.968   4.006 -1.5782  0.9281  0.5154
 7217TIP3    H243143   2.303   4.896   3.884  1.6329 -0.1725 -0.3410
 7218TIP3   OH243144   1.999   2.607  12.101 -0.1086  0.1062 -0.3610
 7218TIP3    H143145   2.008   2.576  12.011  0.2820 -1.1562  0.0881
 7218TIP3    H243146   2.089   2.614  12.133 -0.2504  0.3688 -0.0174
 7219TIP3   OH243147   4.764   5.721  14.659 -0.3389 -0.1848  0.2150
 7219TIP3    H143148   4.703   5.648  14.646 -0.1059 -0.3182 -0.1634
 7219TIP3    H243149   4.831   5.707  14.592 -0.2981  0.3841  0.1366
 7220TIP3   OH243150   0.061   2.530   4.261  0.3900  0.9732  0.2845
 7220TIP3    H143151   0.069   2.474   4.338  1.9334  0.9229  0.1150
 7220TIP3    H243152  -0.009   2.489   4.209  1.1726 -0.5798  0.3759
 7221TIP3   OH243153   1.790   4.666   0.774  0.0143  0.4155 -0.3583
 7221TIP3    H143154   1.729   4.737   0.792  0.3850  0.1813  2.2307
 7221TIP3    H243155   1.870   4.711   0.746 -0.2621  0.9258 -0.3541
 7222TIP3   OH243156   0.079   6.279  13.342 -0.0431 -0.4418  0.0184
 7222TIP3    H143157   0.044   6.248  13.426 -1.5051 -1.5861 -0.9749
 7222TIP3    H243158   0.034   6.362  13.327  0.5137 -0.0346  0.5222
 7223TIP3   OH243159   4.360   1.779   4.449  0.3330  0.3303 -0.0836
 7223TIP3    H143160   4.420   1.758   4.521 -0.3816  2.3369  1.1809
 7223TIP3    H243161   4.416   1.816   4.381  0.8446 -0.2717  0.0045
 7224TIP3   OH243162   2.121   4.428   0.061  0.1173 -0.3720 -0.2106
 7224TIP3    H143163   2.089   4.482  -0.012 -0.0364  0.6946  0.6218
 7224TIP3    H243164   2.208   4.465   0.081 -0.1439 -0.1944  0.6037
 7225TIP3   OH243165   4.286   0.143  16.805 -0.6966  0.1634  0.3979
 7225TIP3    H143166   4.202   0.184  16.783 -1.0342  1.0137  2.8762
 7225TIP3    H243167   4.343   0.163  16.731 -2.8909 -1.3009 -1.8575
 7226TIP3   OH243168   4.797   2.447   3.633  0.0559  0.4656  0.1782
 7226TIP3    H143169   4.877   2.497   3.617  0.0674  0.5730  0.5529
 7226TIP3    H243170   4.784   2.453   3.728  0.1785 -0.4316  0.2617
 7227TIP3   OH243171   2.784   3.746   4.920 -0.1653  0.0806  0.6017
 7227TIP3    H143172   2.726   3.680   4.881  0.0257  0.8079 -1.0212
 7227TIP3    H243173   2.872   3.715   4.900  0.0017  2.3570 -3.3183
 7228TIP3   OH243174   3.579   6.372  16.515 -0.0710 -0.8869 -0.5584
 7228TIP3    H143175   3.631   6.296  16.540  0.0930 -0.1754  1.4578
 7228TIP3    H243176   3.634   6.447  16.537 -1.2661 -0.1532  0.0604
 7229TIP3   OH243177   0.038   5.261   2.921 -0.0887  0.4282  0.1585
 7229TIP3    H143178   0.045   5.268   3.016 -0.3964 -0.1353  0.2291
 7229TIP3    H243179   0.127   5.242   2.891  0.1793  1.5157  0.2441
 7230TIP3   OH243180   0.988   3.240  16.864  0.1372  0.0128  0.3658
 7230TIP3    H143181   0.985   3.164  16.922  0.3435  1.2483  2.0548
 7230TIP3    H243182   0.997   3.315  16.923 -0.0208  1.3553 -1.2548
 7231TIP3   OH243183   1.687   4.518   2.151  0.2026  0.8415 -0.5831
 7231TIP3    H143184   1.642   4.576   2.213  1.0492  1.3604 -0.4428
 7231TIP3    H243185   1.703   4.437   2.201 -0.2254  0.7945 -0.5176
 7232TIP3   OH243186   6.403   1.556   2.745  0.0211  0.5887 -0.1450
 7232TIP3    H143187   6.386   1.642   2.784 -1.6053 -0.0176  0.5853
 7232TIP3    H243188   6.366   1.563   2.656  0.0996  0.7125 -0.1688
 7233TIP3   OH243189   2.904   5.433  11.112  0.3094 -0.6985 -0.9695
 7233TIP3    H143190   2.841   5.408  11.044 -0.2490 -0.9971 -0.3605
 7233TIP3    H243191   2.975   5.369  11.105 -0.0412 -1.1039 -0.8798
 7234TIP3   OH243192   5.598   0.397  14.695  0.1369  0.0677  0.3790
 7234TIP3    H143193   5.574   0.314  14.737  0.0355 -0.7326 -1.1957
 7234TIP3    H243194   5.516   0.431  14.659  0.5358 -0.3036 -0.9269
 7235TIP3   OH243195   2.391   4.868   2.384 -0.4853 -0.1889  0.1583
 7235TIP3    H143196   2.413   4.949   2.429 -0.8551  0.1277 -0.2177
 7235TIP3    H243197   2.405   4.799   2.449 -0.9487  0.2493  0.7345
 7236TIP3   OH243198   1.464   6.493   0.084 -0.0151  0.3336  0.4990
 7236TIP3    H143199   1.553   6.527   0.070 -0.3321  0.8168 -0.4444
 7236TIP3    H243200   1.425   6.494  -0.003 -0.6402 -0.7805  0.7617
 7237TIP3   OH243201   0.279   5.626  11.880 -0.1217  0.0011 -0.5370
 7237TIP3    H143202   0.327   5.559  11.833 -1.0486 -0.2066 -1.2122
 7237TIP3    H243203   0.222   5.666  11.814 -0.0239  1.0423 -0.0171
 7238TIP3   OH243204   5.462   0.280   1.412  0.4169 -0.1829  0.4715
 7238TIP3    H143205   5.472   0.345   1.482  2.0355  0.7829 -0.5780
 7238TIP3    H243206   5.505   0.320   1.337 -0.7253 -1.4572 -0.9212
 7239TIP3   OH243207   0.868   3.004  15.230 -0.4831 -0.7800 -0.4133
 7239TIP3    H143208   0.842   3.052  15.151 -2.1520  2.8967  2.0467
 7239TIP3    H243209   0.785   2.975  15.268  0.1997 -1.6645  0.4426
 7240TIP3   OH243210   5.286   1.120  10.565  0.1434 -0.2152 -0.2408
 7240TIP3    H143211   5.208   1.070  10.541  0.1573 -0.0365 -0.6644
 7240TIP3    H243212   5.265   1.158  10.650 -0.2866 -0.0582 -0.4146
 7241TIP3   OH243213   0.346   2.603  13.320 -0.1741  0.1632  0.4219
 7241TIP3    H143214   0.329   2.536  13.386  0.8102 -0.1590  0.3662
 7241TIP3    H243215   0.261   2.643  13.303 -0.3024  0.9313  2.6044
 7242TIP3   OH243216   0.399   5.862  14.818 -0.5925  0.2312 -0.4262
 7242TIP3    H143217   0.415   5.844  14.911  0.9708 -0.1583 -0.7523
 7242TIP3    H243218   0.450   5.940  14.799 -2.0188  1.1515 -0.6512
 7243TIP3   OH243219   2.691   0.276   4.445  0.0714  0.2072  0.1452
 7243TIP3    H143220   2.765   0.315   4.399 -0.3011 -0.4170 -1.0307
 7243TIP3    H243221   2.716   0.185   4.459 -0.4170  0.0250 -0.1325
 7244TIP3   OH243222   2.236   6.068  15.238  0.9685  0.5280 -0.1306
 7244TIP3    H143223   2.331   6.069  15.249  1.0763  1.8708 -0.9222
 7244TIP3    H243224   2.223   6.024  15.154  0.8481 -0.0172  0.1665
 7245TIP3   OH243225   2.134   2.172   6.077 -0.0705  0.1614  0.3515
 7245TIP3    H143226   2.135   2.168   5.982  2.9653  1.8436  0.1941
 7245TIP3    H243227   2.208   2.116   6.104  0.2942  1.1931  1.5684
 7246TIP3   OH243228   2.026   2.281   5.108 -0.9616 -0.2488  0.0074
 7246TIP3    H143229   1.971   2.344   5.062  0.9033 -0.0040 -2.1090
 7246TIP3    H243230   2.088   2.334   5.157  0.5911 -0.2933 -1.7502
 7247TIP3   OH243231   3.092   0.099   6.696  0.0881 -0.5996  0.0012
 7247TIP3    H143232   3.164   0.123   6.638 -0.7880  0.6735 -0.6369
 7247TIP3    H243233   3.078   0.178   6.749 -1.7741 -0.2364 -0.9374
 7248TIP3   OH243234   2.374   0.006  14.929 -0.0490 -0.6575 -0.1067
 7248TIP3    H143235   2.330  -0.073  14.898 -0.5815  0.0725 -1.2854
 7248TIP3    H243236   2.459   0.004  14.885 -0.6600  0.1862 -1.3963
 7249TIP3   OH243237   6.092   4.254  16.315  0.2551  0.5974 -0.3347
 7249TIP3    H143238   6.011   4.224  16.273  0.1302 -1.7831  1.4053
 7249TIP3    H243239   6.075   4.346  16.337 -1.0602  0.8212 -2.0433
 7250TIP3   OH243240   3.083   6.713   4.335  0.9415  0.4968  0.6389
 7250TIP3    H143241   3.176   6.689   4.331  0.4579 -1.3333 -1.5581
 7250TIP3    H243242   3.054   6.681   4.421  1.9526 -0.5332  0.6312
 7251TIP3   OH243243   6.505   6.241   5.401  0.0732  1.1263  0.1338
 7251TIP3    H143244   6.562   6.168   5.379 -0.1313  1.2568 -0.8555
 7251TIP3    H243245   6.554   6.289   5.468 -0.6719 -1.0198  2.3666
 7252TIP3   OH243246   4.268   3.852   0.911  0.3485  0.1627  0.4177
 7252TIP3    H143247   4.250   3.941   0.880 -0.5546 -0.2662 -0.3474
 7252TIP3    H243248   4.206   3.839   0.983 -0.1834 -0.1592 -0.0825
 7253TIP3   OH243249   4.771   3.334   5.757 -0.1271 -0.2009  0.7281
 7253TIP3    H143250   4.784   3.421   5.794 -2.0935  0.0475  0.9452
 7253TIP3    H243251   4.752   3.350   5.664 -2.2900 -0.1937  1.1275
 7254TIP3   OH243252   4.541   5.402   2.190  0.2876 -0.3764  0.4649
 7254TIP3    H143253   4.620   5.383   2.139  0.5934  0.1800  0.7186
 7254TIP3    H243254   4.496   5.470   2.140  0.3927 -0.1039  0.7395
 7255TIP3   OH243255   2.055   4.250   5.634 -0.0970  0.1984  0.2618
 7255TIP3    H143256   2.094   4.175   5.590 -0.2940 -0.2584  0.8479
 7255TIP3    H243257   2.081   4.241   5.726  1.3291  1.7952  0.0742
 7256TIP3   OH243258   4.798   6.743   0.427  0.3455 -0.1444  0.4326
 7256TIP3    H143259   4.762   6.691   0.355 -1.1339 -0.1700  1.1558
 7256TIP3    H243260   4.735   6.813   0.440 -0.6729 -1.3866  3.1438
 7257TIP3   OH243261   4.294   0.086  11.159  0.1043  0.1479  0.2685
 7257TIP3    H143262   4.278   0.124  11.073 -0.9328  0.8395  0.7558
 7257TIP3    H243263   4.385   0.110  11.179 -0.0691  1.1320 -0.0670
 7258TIP3   OH243264   1.863   0.941  12.428  0.2067  0.1961  0.3454
 7258TIP3    H143265   1.779   0.917  12.468  0.0636 -0.8325 -0.5205
 7258TIP3    H243266   1.928   0.923  12.496 -0.3136  1.7853  1.3230
 7259TIP3   OH243267   0.879   0.338  13.036  0.3027 -0.4356 -0.3115
 7259TIP3    H143268   0.865   0.246  13.058  0.6030 -0.7974 -1.5307
 7259TIP3    H243269   0.868   0.385  13.119 -0.1206 -1.5357  0.2728
 7260TIP3   OH243270   4.364   3.058  13.208  0.1544  0.0604 -0.5179
 7260TIP3    H143271   4.276   3.093  13.194 -0.4859 -1.1319  0.2989
 7260TIP3    H243272   4.394   3.100  13.289 -0.2440 -0.5334 -0.0439
 7261TIP3   OH243273   1.556   1.960  14.008 -0.5347 -0.0779 -0.3814
 7261TIP3    H143274   1.651   1.957  14.016 -0.5883  1.1642  1.5572
 7261TIP3    H243275   1.524   1.902  14.078 -1.1838  0.1973 -0.4423
 7262TIP3   OH243276   2.663   2.669  11.630  0.5217  0.2481  0.4345
 7262TIP3    H143277   2.609   2.721  11.690 -1.6549 -2.0816  0.6320
 7262TIP3    H243278   2.669   2.721  11.551 -3.0766  0.1525 -0.0210
 7263TIP3   OH243279   6.693   1.450  15.570  0.1821  0.1428  0.0069
 7263TIP3    H143280   6.606   1.437  15.608  0.8472 -0.4632  1.4009
 7263TIP3    H243281   6.676   1.469  15.478 -1.6083  2.9635  0.7749
 7264TIP3   OH243282   0.457   4.843   5.304 -0.2229 -0.2134  0.0032
 7264TIP3    H143283   0.449   4.927   5.258 -1.5489 -0.6487 -0.5827
 7264TIP3    H243284   0.547   4.843   5.337 -0.3021  1.5847  0.3017
 7265TIP3   OH243285   1.359   3.694   0.128 -0.2800 -0.4259  0.5641
 7265TIP3    H143286   1.307   3.730   0.200 -0.0042 -0.2466  0.6736
 7265TIP3    H243287   1.450   3.705   0.156 -0.1766 -0.5171  0.2659
 7266TIP3   OH243288   5.265   2.441  15.255  0.4418  0.0715  0.0686
 7266TIP3    H143289   5.355   2.472  15.243 -0.4753  3.0372 -0.0128
 7266TIP3    H243290   5.233   2.490  15.330 -0.8263 -1.7158  0.7595
 7267TIP3   OH243291   4.187   6.372   2.132 -0.1488 -0.1146  0.1088
 7267TIP3    H143292   4.146   6.457   2.147 -0.5627 -0.1658 -0.6660
 7267TIP3    H243293   4.201   6.335   2.219 -1.2003  0.1681  0.4008
 7268TIP3   OH243294   3.152   4.890   4.349  0.7579  0.4989 -0.0479
 7268TIP3    H143295   3.104   4.891   4.266  1.9024  1.0167 -0.7304
 7268TIP3    H243296   3.241   4.916   4.326  1.3564 -0.3220  1.1997
 7269TIP3   OH243297   6.538   0.264  14.980  0.0839 -0.3056 -0.4059
 7269TIP3    H143298   6.626   0.299  14.986  0.2087 -0.8213  1.1096
 7269TIP3    H243299   6.550   0.169  14.982 -0.4695 -0.4031 -1.0215
 7270TIP3   OH243300   5.250   6.143  12.084  0.1757 -0.0747 -0.2553
 7270TIP3    H143301   5.341   6.127  12.106 -0.3275  0.3419  2.4185
 7270TIP3    H243302   5.216   6.057  12.059  0.5728 -0.8546  1.7455
 7271TIP3   OH243303   2.536   5.693   0.287 -0.2335 -0.0304  0.1375
 7271TIP3    H143304   2.545   5.613   0.338 -0.6836 -0.0281  0.2284
 7271TIP3    H243305   2.446   5.691   0.254  0.2981 -0.4727 -1.3961
 7272TIP3   OH243306   3.090   1.514   1.084 -0.1565  0.4566  0.3550
 7272TIP3    H143307   3.117   1.604   1.063 -0.0680  0.6895  1.3937
 7272TIP3    H243308   3.017   1.526   1.145 -1.8247 -0.1711 -1.4252
 7273TIP3   OH243309   4.481   0.976  14.731  0.5250 -0.6670 -0.5850
 7273TIP3    H143310   4.501   1.069  14.738 -0.2357 -0.5421  0.2139
 7273TIP3    H243311   4.512   0.939  14.814 -0.4988 -0.8526 -0.2717
 7274TIP3   OH243312   4.125   0.629  14.916  0.2231  0.0586 -0.1026
 7274TIP3    H143313   4.209   0.650  14.877 -0.3736  1.0410 -0.9029
 7274TIP3    H243314   4.064   0.692  14.879 -0.8645 -0.5841  0.5127
 7275TIP3   OH243315   4.239   4.938   3.594  0.2455 -0.4232 -0.2941
 7275TIP3    H143316   4.210   4.863   3.645 -1.6553 -0.2264 -0.9891
 7275TIP3    H243317   4.276   4.901   3.514  1.3714 -0.6577  0.3109
 7276TIP3   OH243318   2.781   5.789   5.421  0.4903 -0.6355  0.0821
 7276TIP3    H143319   2.832   5.868   5.405 -0.3085  0.1463  1.2011
 7276TIP3    H243320   2.780   5.779   5.516 -0.7010 -1.1082  0.0504
 7277TIP3   OH243321   6.403   2.417   0.026 -0.1097 -0.4188 -0.5887
 7277TIP3    H143322   6.497   2.405   0.011 -0.1636 -0.7574 -0.6567
 7277TIP3    H243323   6.395   2.508   0.056  0.5627 -1.1438  2.0681
 7278TIP3   OH243324   3.338   5.569  12.871  0.2595 -0.1531 -0.4337
 7278TIP3    H143325   3.382   5.654  12.862  0.2438 -0.3300 -3.4389
 7278TIP3    H243326   3.281   5.564  12.794  0.3314 -2.9104 -0.4061
 7279TIP3   OH243327   0.479   4.926   3.449 -0.3882 -0.7698 -0.1616
 7279TIP3    H143328   0.438   4.895   3.368 -3.1682  1.7531  0.1249
 7279TIP3    H243329   0.520   5.008   3.424  0.7430 -1.0965  0.5562
 7280TIP3   OH243330   0.555   5.164  10.802  0.1133  0.5034  0.0207
 7280TIP3    H143331   0.519   5.252  10.795 -1.7433 -0.3580 -2.5315
 7280TIP3    H243332   0.538   5.124  10.717  0.1515 -2.6133  1.3427
 7281TIP3   OH243333   3.047   4.433  16.588  0.4334 -0.0433  0.2202
 7281TIP3    H143334   3.141   4.418  16.580  0.6884  1.7101 -0.4255
 7281TIP3    H243335   3.008   4.382  16.517  0.9703 -0.0853 -0.0497
 7282TIP3   OH243336   0.315   0.843   0.003  0.2046  0.1741  0.2571
 7282TIP3    H143337   0.297   0.763  -0.046 -0.1119  1.5129 -1.9037
 7282TIP3    H243338   0.347   0.812   0.088 -1.6901 -2.2323  0.1917
 7283TIP3   OH243339   1.688   5.594  16.578  0.2753 -0.7226  0.0958
 7283TIP3    H143340   1.737   5.666  16.539  0.8367 -1.3050 -0.2933
 7283TIP3    H243341   1.712   5.596  16.671  0.1002 -0.2625  0.1321
 7284TIP3   OH243342   4.734   0.849  13.386  0.2569  0.5218 -0.0163
 7284TIP3    H143343   4.752   0.853  13.292 -1.0624  2.8681 -0.2563
 7284TIP3    H243344   4.740   0.756  13.408  1.0333 -0.0362 -2.3195
 7285TIP3   OH243345   0.847   4.248  15.522  0.2507  0.0683  0.1981
 7285TIP3    H143346   0.918   4.300  15.485 -0.5143 -0.1462 -1.6824
 7285TIP3    H243347   0.820   4.297  15.600  0.8815  1.4143 -0.3885
 7286TIP3   OH243348   1.278   5.844   2.203  0.3674  0.3207  0.3634
 7286TIP3    H143349   1.358   5.854   2.152  0.1569 -2.6774 -0.7861
 7286TIP3    H243350   1.210   5.826   2.137 -0.9483  1.2156  1.4149
 7287TIP3   OH243351   3.440   3.483  15.247 -0.2443  0.0901 -0.0561
 7287TIP3    H143352   3.357   3.468  15.201 -0.9011  1.8284  0.4846
 7287TIP3    H243353   3.423   3.560  15.302  2.1502  1.3285 -0.9406
 7288TIP3   OH243354   2.496   6.669  12.251  0.1737 -0.2466  1.0391
 7288TIP3    H143355   2.483   6.583  12.211 -0.5914 -0.2359  1.2453
 7288TIP3    H243356   2.466   6.731  12.185  0.1682 -0.1662  1.1165
 7289TIP3   OH243357   3.226   5.531  16.267 -0.4422  0.0845 -0.2484
 7289TIP3    H143358   3.187   5.597  16.325 -1.2961 -0.6773  0.0619
 7289TIP3    H243359   3.179   5.450  16.287  1.5514 -0.9854  0.4134
 7290TIP3   OH243360   2.517   2.679   2.018 -0.0943 -0.3548  0.3636
 7290TIP3    H143361   2.429   2.701   2.050  0.0414 -1.2929  1.4340
 7290TIP3    H243362   2.573   2.750   2.050 -0.1404 -0.7476  1.3473
 7291TIP3   OH243363   4.139   2.985  16.852 -0.4049  0.0729  0.2085
 7291TIP3    H143364   4.080   2.984  16.928  0.0276 -1.3289  0.5496
 7291TIP3    H243365   4.088   3.027  16.783 -1.1617  0.4839  0.9872
 7292TIP3   OH243366   4.379   3.171   3.028  0.4893 -0.2259 -0.5406
 7292TIP3    H143367   4.437   3.189   2.954  0.3823 -2.8311 -1.3839
 7292TIP3    H243368   4.438   3.154   3.101  0.6788  0.0300 -0.6318
 7293TIP3   OH243369   6.577   5.613   2.329 -0.2496 -0.3247  0.1004
 7293TIP3    H143370   6.526   5.674   2.275  0.3451  2.4417  2.4202
 7293TIP3    H243371   6.626   5.561   2.266  0.3516  2.6224 -2.1046
 7294TIP3   OH243372   3.035   6.382   4.105  0.0280 -0.6324 -0.3148
 7294TIP3    H143373   2.997   6.403   4.191  0.3892 -0.4442 -0.1959
 7294TIP3    H243374   2.967   6.334   4.059 -0.3711 -0.2508 -0.1271
 7295TIP3   OH243375   1.392   1.554   5.814  0.5086  0.0943  0.7172
 7295TIP3    H143376   1.365   1.630   5.762  0.7704  0.3202  0.9066
 7295TIP3    H243377   1.451   1.590   5.881  0.9470 -0.3278  0.5694
 7296TIP3   OH243378   1.650   5.810   4.417 -0.1121  0.2727 -0.8561
 7296TIP3    H143379   1.658   5.793   4.511 -0.3293  1.7275 -0.5442
 7296TIP3    H243380   1.582   5.749   4.388 -0.7678  0.4916  0.1473
 7297TIP3   OH243381   0.793   6.678   4.622  0.5311 -0.0572 -0.1091
 7297TIP3    H143382   0.759   6.765   4.642 -0.4540 -0.3253 -0.5554
 7297TIP3    H243383   0.800   6.676   4.527  1.1209 -0.2608 -0.0652
 7298TIP3   OH243384   3.925   3.760  12.176  0.6080  0.2639  0.4579
 7298TIP3    H143385   3.898   3.797  12.092  2.6142 -0.4768 -0.5925
 7298TIP3    H243386   3.946   3.669  12.156  0.1002 -0.2293  2.0154
 7299TIP3   OH243387   4.690   2.031   4.529 -0.0276 -0.3907 -0.5432
 7299TIP3    H143388   4.665   2.086   4.455  0.3225 -0.0130 -0.3860
 7299TIP3    H243389   4.619   2.043   4.593  1.4569  2.3374  0.7842
 7300TIP3   OH243390   0.191   6.384  14.891  0.5620  0.3186 -0.2369
 7300TIP3    H143391   0.104   6.363  14.925 -0.0762 -1.5606 -2.7530
 7300TIP3    H243392   0.190   6.479  14.879 -0.0975  0.7085  2.2427
 7301TIP3   OH243393   1.353   2.624   0.573  0.8652  0.1479 -0.4839
 7301TIP3    H143394   1.391   2.701   0.615 -1.7777  0.4380  1.6592
 7301TIP3    H243395   1.259   2.641   0.574  0.1951 -2.9803 -0.1314
 7302TIP3   OH243396   0.148   0.395  13.098 -0.1231  0.0042  0.2103
 7302TIP3    H143397   0.136   0.367  13.188  1.1814 -0.7787  0.1673
 7302TIP3    H243398   0.108   0.483  13.094 -2.6605 -1.0301  0.8186
 7303TIP3   OH243399   1.011   1.920  12.204 -0.3122  0.0036  0.3535
 7303TIP3    H143400   1.066   1.908  12.281 -0.9391  0.2819  0.8641
 7303TIP3    H243401   0.966   1.837  12.193 -1.1501  0.3455  1.0529
 7304TIP3   OH243402   0.491   2.777  13.469  0.3407 -0.1449  0.4412
 7304TIP3    H143403   0.568   2.779  13.413 -0.6459 -0.9886 -0.9958
 7304TIP3    H243404   0.447   2.695  13.448 -0.6858  0.0621  1.6247
 7305TIP3   OH243405   0.619   4.756   4.564  0.4170  0.2012  0.2627
 7305TIP3    H143406   0.619   4.810   4.643 -0.9460  0.2314  0.2713
 7305TIP3    H243407   0.711   4.752   4.537  0.8255  0.6370  1.5369
 7306TIP3   OH243408   2.626   4.024  11.671 -0.1350  0.1635  0.1746
 7306TIP3    H143409   2.642   3.931  11.690 -1.7749 -0.2126 -0.1181
 7306TIP3    H243410   2.539   4.040  11.705  0.0570  1.5713  0.0406
 7307TIP3   OH243411   0.933   1.437   3.724 -0.3348 -0.3971  0.1776
 7307TIP3    H143412   0.846   1.453   3.687 -1.4969 -0.6654  2.5961
 7307TIP3    H243413   0.987   1.508   3.691 -1.9867  0.9051  0.1567
 7308TIP3   OH243414   5.891   0.247   3.765 -0.1152 -0.0253 -0.2245
 7308TIP3    H143415   5.929   0.331   3.788  1.3150 -0.1155 -2.0414
 7308TIP3    H243416   5.894   0.196   3.846 -0.0829  1.3232  0.6446
 7309TIP3   OH243417   3.180   5.782  15.391 -0.2849  0.0685 -0.6292
 7309TIP3    H143418   3.134   5.829  15.461 -1.3372 -0.9094 -0.6198
 7309TIP3    H243419   3.269   5.771  15.424 -0.4148  0.7796 -0.0162
 7310TIP3   OH243420   3.464   3.902  11.146 -0.2093  0.0501  0.2176
 7310TIP3    H143421   3.383   3.894  11.096 -0.6503  0.7757  0.7905
 7310TIP3    H243422   3.496   3.813  11.154  0.6177  0.0017 -2.5219
 7311TIP3   OH243423   1.694   4.132  11.836 -0.1560 -0.4020 -0.1174
 7311TIP3    H143424   1.739   4.215  11.819 -2.3180  1.2261  1.5004
 7311TIP3    H243425   1.765   4.069  11.848  1.5667  0.9707 -2.1808
 7312TIP3   OH243426   5.146   0.709   2.706  0.9573  0.2418 -0.5070
 7312TIP3    H143427   5.100   0.739   2.628 -0.9894 -0.0635  0.4539
 7312TIP3    H243428   5.188   0.627   2.679 -0.7530 -0.5371 -0.9500
 7313TIP3   OH243429   3.444   0.943  11.398 -0.3114 -0.0064 -0.0257
 7313TIP3    H143430   3.384   1.017  11.396  0.3793  0.5695 -0.0575
 7313TIP3    H243431   3.475   0.934  11.307  1.3811  1.1837  0.3860
 7314TIP3   OH243432   2.153   3.271  14.622  0.2680 -0.2841 -0.7320
 7314TIP3    H143433   2.117   3.198  14.572  1.4820 -0.8209 -0.8600
 7314TIP3    H243434   2.146   3.346  14.563 -1.7235 -0.0792 -0.3084
 7315TIP3   OH243435   6.592   1.149  12.299 -0.2075 -0.4870  0.0777
 7315TIP3    H143436   6.662   1.159  12.234 -1.4785 -0.6617 -1.3718
 7315TIP3    H243437   6.566   1.239  12.320 -1.8954 -0.3808 -2.0878
 7316TIP3   OH243438   4.116   6.654  14.279  0.4485 -0.0866 -0.0902
 7316TIP3    H143439   4.077   6.598  14.346 -0.5554 -0.4687 -0.9714
 7316TIP3    H243440   4.147   6.731  14.328  0.3948 -0.6838  0.9075
 7317TIP3   OH243441   3.044   0.419   3.281 -0.2786 -0.3373 -0.6406
 7317TIP3    H143442   3.115   0.360   3.306  1.5186  1.9851  0.1002
 7317TIP3    H243443   2.964   0.376   3.313  0.8512 -2.5172 -0.5313
 7318TIP3   OH243444   1.769   4.831  17.071 -0.3466 -0.1302  0.5968
 7318TIP3    H143445   1.769   4.761  17.006 -0.8346 -1.3210  1.8406
 7318TIP3    H243446   1.845   4.813  17.126  0.8758  1.6423 -0.3793
 7319TIP3   OH243447   2.327   1.887   3.737  0.2640 -0.9207 -0.6748
 7319TIP3    H143448   2.363   1.835   3.665 -0.1488 -1.3166 -0.5989
 7319TIP3    H243449   2.328   1.977   3.704 -0.1557 -1.1287 -1.2798
 7320TIP3   OH243450   0.316   1.716   5.839 -0.5950  0.5292 -0.0536
 7320TIP3    H143451   0.336   1.779   5.770  0.3391  0.7386  0.4055
 7320TIP3    H243452   0.274   1.768   5.908  0.7535  0.7813  0.5973
 7321TIP3   OH243453   3.864   0.273   2.770 -0.2409  0.4190  0.4974
 7321TIP3    H143454   3.846   0.366   2.754 -0.4735  0.4759  1.0727
 7321TIP3    H243455   3.802   0.226   2.713  0.4671  0.6027 -0.4573
 7322TIP3   OH243456   1.426   3.525  14.778 -0.6515 -0.0688 -0.2478
 7322TIP3    H143457   1.455   3.616  14.771  0.3398 -0.3743 -0.2681
 7322TIP3    H243458   1.395   3.517  14.868  0.2031  0.0323  0.0670
 7323TIP3   OH243459   6.449   5.032   0.816  0.3968 -0.5186  0.1270
 7323TIP3    H143460   6.471   5.104   0.875  1.4590  0.1293 -1.0088
 7323TIP3    H243461   6.448   5.072   0.729  1.2780 -1.9174 -0.5559
 7324TIP3   OH243462   4.206   4.534  14.402 -0.0115  0.0810 -0.1116
 7324TIP3    H143463   4.271   4.531  14.332 -0.0720  1.6713 -0.2652
 7324TIP3    H243464   4.130   4.488  14.367 -0.3171  1.4861 -1.4260
 7325TIP3   OH243465   2.665   3.668   0.696 -0.2113 -0.1428  0.4126
 7325TIP3    H143466   2.700   3.723   0.626  1.0714 -1.9736 -0.4422
 7325TIP3    H243467   2.722   3.686   0.771 -0.2742  0.2395  0.3734
 7326TIP3   OH243468   3.160   0.107   5.969  0.0295  0.7910  0.2313
 7326TIP3    H143469   3.235   0.052   5.993  0.8422  1.3271 -0.9809
 7326TIP3    H243470   3.098   0.046   5.930 -0.1670  0.3470  1.2089
 7327TIP3   OH243471   3.624   5.538  16.082  0.1138 -0.1566 -0.2064
 7327TIP3    H143472   3.675   5.519  16.003 -0.5947 -1.1766 -0.4375
 7327TIP3    H243473   3.674   5.498  16.153  0.4313  0.2183 -0.2149
 7328TIP3   OH243474   3.349   1.216   1.900 -0.0609  0.1034  0.1585
 7328TIP3    H143475   3.319   1.178   1.817  1.7195  0.6239 -0.7742
 7328TIP3    H243476   3.384   1.302   1.876  2.1064 -0.4346  1.1100
 7329TIP3   OH243477   0.589   0.990  15.080 -0.4751 -0.3601  0.6375
 7329TIP3    H143478   0.652   0.974  15.011  0.9773 -0.7836  1.9977
 7329TIP3    H243479   0.638   1.039  15.147 -1.2568 -1.5876  2.1793
 7330TIP3   OH243480   0.277   2.575  11.691 -0.8299 -0.1582  0.1872
 7330TIP3    H143481   0.253   2.667  11.682  2.5070  0.9352  1.0938
 7330TIP3    H243482   0.323   2.570  11.775  0.6945 -2.2380 -0.6891
 7331TIP3   OH243483   3.079   4.102   0.519 -0.3620 -0.0569  0.1181
 7331TIP3    H143484   3.149   4.137   0.464  0.8723 -1.7863  0.4877
 7331TIP3    H243485   2.999   4.125   0.474  0.6074 -1.6865 -2.6495
 7332TIP3   OH243486   2.181   5.408   5.194 -0.3761  0.0031  0.4522
 7332TIP3    H143487   2.164   5.421   5.287 -0.4226 -0.5792  0.5311
 7332TIP3    H243488   2.221   5.490   5.165 -0.6386  0.3003  0.9155
 7333TIP3   OH243489   4.122   4.104   1.259  0.0202 -0.1402  0.3360
 7333TIP3    H143490   4.037   4.061   1.266  0.5023 -1.4043 -0.9420
 7333TIP3    H243491   4.103   4.197   1.265 -1.1108 -0.4449  2.8205
 7334TIP3   OH243492   1.790   4.753   3.785  0.0602 -0.8272 -0.4386
 7334TIP3    H143493   1.737   4.801   3.849  1.3468 -1.0498  0.8426
 7334TIP3    H243494   1.785   4.662   3.813 -2.0154 -1.4849 -2.6104
 7335TIP3   OH243495   6.616   5.687  14.783  0.0950 -0.4732 -0.1418
 7335TIP3    H143496   6.644   5.611  14.834  0.4180 -0.4490 -0.2756
 7335TIP3    H243497   6.698   5.727  14.754  0.0430 -2.4799 -3.6743
 7336TIP3   OH243498   2.747   4.881  14.904 -0.3044  0.6572  0.4685
 7336TIP3    H143499   2.748   4.974  14.928 -1.6823  1.4139 -2.0015
 7336TIP3    H243500   2.825   4.871  14.848 -0.5584  0.5211  0.1370
 7337TIP3   OH243501   5.290   0.001   4.388 -0.0739  0.3183  0.3845
 7337TIP3    H143502   5.290  -0.092   4.365  0.4157 -0.6515  3.7812
 7337TIP3    H243503   5.259   0.045   4.308 -0.2997 -2.7021 -1.3655
 7338TIP3   OH243504   2.655   1.852  15.492 -0.0226  0.0601  0.1021
 7338TIP3    H143505   2.714   1.858  15.568  0.4069 -0.0311 -0.2202
 7338TIP3    H243506   2.583   1.911  15.514 -0.3130 -0.5735  0.9388
 7339TIP3   OH243507   5.707   3.394   0.100  0.1301 -0.2527  0.2397
 7339TIP3    H143508   5.622   3.359   0.074 -0.5461  2.3291 -1.3405
 7339TIP3    H243509   5.696   3.489   0.102  3.0720  0.2331 -0.5881
 7340TIP3   OH243510   3.805   0.545   0.966 -0.0351  0.0324  0.0020
 7340TIP3    H143511   3.782   0.454   0.984 -1.2471  0.6788  2.0116
 7340TIP3    H243512   3.777   0.559   0.875 -0.2293 -1.4354 -0.1953
 7341TIP3   OH243513   0.481   4.292  15.754 -0.8089  0.6221 -0.4652
 7341TIP3    H143514   0.402   4.262  15.710 -0.5365 -1.8714  0.5457
 7341TIP3    H243515   0.477   4.250  15.840  1.7393  0.1516 -0.5008
 7342TIP3   OH243516   1.546   2.971  12.120  0.2694 -0.2503 -0.1196
 7342TIP3    H143517   1.500   3.023  12.186 -0.6051 -1.1084 -0.0346
 7342TIP3    H243518   1.483   2.903  12.095  0.9591 -0.5428 -1.1013
 7343TIP3   OH243519   5.100   2.113  12.857  0.1977 -0.1741  0.0947
 7343TIP3    H143520   5.092   2.134  12.950  1.7106  2.5916 -0.2846
 7343TIP3    H243521   5.019   2.146  12.818  0.6558  1.0421  0.1279
 7344TIP3   OH243522   3.681   4.382  12.968 -0.0153 -0.0422  0.3084
 7344TIP3    H143523   3.734   4.400  13.046  1.1451 -1.7433 -0.0338
 7344TIP3    H243524   3.744   4.353  12.902 -1.1077  0.3318 -0.9410
 7345TIP3   OH243525   4.053   4.471  11.897 -0.2136 -0.0177  0.1019
 7345TIP3    H143526   4.083   4.403  11.837 -0.5633  0.3835 -0.5324
 7345TIP3    H243527   4.043   4.425  11.981  1.4942 -0.3018  0.1816
 7346TIP3   OH243528   2.893   0.748   6.490 -0.3948  0.4756 -0.1044
 7346TIP3    H143529   2.871   0.841   6.501  0.7632  1.3066 -3.5466
 7346TIP3    H243530   2.961   0.733   6.556 -1.0255  1.8641  0.9332
 7347TIP3   OH243531   2.062   3.983   5.492 -0.1411  0.3373  0.6394
 7347TIP3    H143532   2.039   3.934   5.571  0.1328 -0.5180  0.2074
 7347TIP3    H243533   2.052   3.919   5.421 -0.0946  1.0085  0.0200
 7348TIP3   OH243534   5.871   6.563  11.849 -0.6116 -0.2481  0.1917
 7348TIP3    H143535   5.811   6.551  11.775 -1.4127 -0.5828  0.8743
 7348TIP3    H243536   5.814   6.583  11.923 -0.0624 -2.3168  1.2516
 7349TIP3   OH243537   1.029   2.796   1.676  0.4004 -0.1971  0.0479
 7349TIP3    H143538   0.945   2.806   1.721  1.3735 -1.2870  2.2337
 7349TIP3    H243539   1.089   2.855   1.721  1.2660 -0.8458 -0.2197
 7350TIP3   OH243540   4.243   4.262  16.014 -0.0316  0.9021 -0.5595
 7350TIP3    H143541   4.182   4.189  16.013  0.4420  0.5037 -1.1412
 7350TIP3    H243542   4.212   4.318  16.085 -0.6033  0.3137 -0.3327
 7351TIP3   OH243543   2.035   0.306  14.416  0.0971  0.3360 -0.6298
 7351TIP3    H143544   2.015   0.213  14.423 -0.1984  0.1588 -3.1391
 7351TIP3    H243545   1.954   0.350  14.440 -0.4192 -0.1200 -1.5202
 7352TIP3   OH243546   2.445   1.038  14.656  0.2516  0.0487 -0.0623
 7352TIP3    H143547   2.362   1.018  14.699  0.0059 -0.6634 -0.8444
 7352TIP3    H243548   2.423   1.104  14.591  0.4128  0.2967  0.1332
 7353TIP3   OH243549   5.809   0.061   4.825 -0.3178  0.0109 -0.3066
 7353TIP3    H143550   5.806   0.147   4.865  0.7351 -0.2140  0.2740
 7353TIP3    H243551   5.724   0.053   4.780 -0.8196  0.9472  0.4370
 7354TIP3   OH243552   6.757   6.063  16.350  0.1479  0.2651  0.6602
 7354TIP3    H143553   6.849   6.054  16.374  0.8117  1.4786 -1.2043
 7354TIP3    H243554   6.738   6.156  16.360 -0.3614  0.3178 -0.5460
 7355TIP3   OH243555   3.966   4.242  12.017 -0.2977  0.4628 -0.2062
 7355TIP3    H143556   3.947   4.206  11.931 -0.1389  0.8087 -0.3857
 7355TIP3    H243557   3.888   4.221  12.069 -0.5703  0.6220 -0.5493
 7356TIP3   OH243558   6.346   0.641  15.272 -0.1849  0.5591 -0.5874
 7356TIP3    H143559   6.361   0.556  15.313 -0.3504 -0.2359 -2.0738
 7356TIP3    H243560   6.286   0.622  15.200 -0.4529  1.9976 -0.7735
 7357TIP3   OH243561   4.639   1.485   2.615  0.2382 -0.4107  0.2746
 7357TIP3    H143562   4.647   1.574   2.581  0.6670 -0.4030  0.3895
 7357TIP3    H243563   4.663   1.493   2.708 -1.1806 -0.3790  0.6583
 7358TIP3   OH243564   5.853   0.895  12.956 -0.3524  0.5192  0.4886
 7358TIP3    H143565   5.934   0.866  12.915 -0.9811 -0.4953 -0.0785
 7358TIP3    H243566   5.866   0.989  12.972  0.6978  0.4872 -0.1136
 7359TIP3   OH243567   0.536   6.134   3.428 -0.3370 -0.2829 -0.1771
 7359TIP3    H143568   0.457   6.095   3.465  0.0325 -0.8100  0.0787
 7359TIP3    H243569   0.505   6.188   3.356 -0.9438 -0.3593  0.0241
 7360TIP3   OH243570   0.549   3.107   1.226  0.6296 -0.6559  0.0994
 7360TIP3    H143571   0.594   3.192   1.225  0.3242 -0.4787  0.9064
 7360TIP3    H243572   0.564   3.072   1.138  1.4346 -0.1211  0.0035
 7361TIP3   OH243573   4.727   3.628   5.066  0.0510  0.2239  0.1364
 7361TIP3    H143574   4.731   3.709   5.015 -1.3244  0.2849  0.0848
 7361TIP3    H243575   4.676   3.568   5.013  0.4575 -0.4426  0.4896
 7362TIP3   OH243576   6.254   0.406   1.680 -0.1802 -0.2418  0.0769
 7362TIP3    H143577   6.323   0.385   1.743 -1.5143  1.4859  2.2343
 7362TIP3    H243578   6.190   0.336   1.691 -0.2154 -0.1701  0.3360
 7363TIP3   OH243579   6.272   6.311  15.438  0.6892 -0.0926 -0.2512
 7363TIP3    H143580   6.241   6.228  15.402  1.9483 -0.1707 -1.2152
 7363TIP3    H243581   6.292   6.291  15.529  2.3588 -1.2772 -0.8198
 7364TIP3   OH243582   1.998   5.381  12.487  0.0191 -0.5013 -0.0443
 7364TIP3    H143583   1.972   5.402  12.398 -0.3378 -1.1426 -0.0938
 7364TIP3    H243584   2.084   5.339  12.478 -0.1343 -0.8044 -0.1127
 7365TIP3   OH243585   1.313   4.876   4.944  0.4795  0.3992  0.0509
 7365TIP3    H143586   1.293   4.958   4.899  2.3591  0.7611 -0.2017
 7365TIP3    H243587   1.272   4.808   4.891  0.3555  1.0420 -0.6806
 7366TIP3   OH243588   4.736   6.293  16.317  0.0851  0.3504 -0.2688
 7366TIP3    H143589   4.751   6.201  16.340  1.3821  0.0798 -1.9460
 7366TIP3    H243590   4.791   6.343  16.378 -1.3032  0.1076  1.2333
 7367TIP3   OH243591   3.744   3.108   5.987  0.2056 -0.2440 -0.1411
 7367TIP3    H143592   3.663   3.120   5.938  0.6182 -1.2559 -1.1210
 7367TIP3    H243593   3.743   3.016   6.013 -0.5555  0.5063  2.8454
 7368TIP3   OH243594   5.982   2.334  12.405 -0.1738 -0.3750 -0.0133
 7368TIP3    H143595   5.932   2.295  12.476 -1.7710  0.6600 -0.5093
 7368TIP3    H243596   6.047   2.389  12.449 -0.2372 -0.8205  0.6482
 7369TIP3   OH243597   3.207   2.517   0.164 -0.3731  0.5999 -0.5751
 7369TIP3    H143598   3.242   2.534   0.077 -0.6925  1.5368 -0.5340
 7369TIP3    H243599   3.119   2.483   0.149  0.5993 -2.1092 -0.6914
 7370TIP3   OH243600   1.871   1.557  11.132 -0.1480 -0.0516 -0.5396
 7370TIP3    H143601   1.802   1.588  11.190  0.4683  2.1438 -0.8918
 7370TIP3    H243602   1.825   1.516  11.058 -0.9576 -1.6585  0.7851
 7371TIP3   OH243603   3.588   5.460  10.540 -0.0215  0.1920 -0.0429
 7371TIP3    H143604   3.676   5.429  10.517  0.2911  1.4349 -0.6221
 7371TIP3    H243605   3.530   5.390  10.513  0.8236 -0.8949  0.8553
 7372TIP3   OH243606   4.295   0.906   2.963  0.1483 -0.2606  0.0490
 7372TIP3    H143607   4.351   0.953   2.901 -0.2132  1.0286  0.6715
 7372TIP3    H243608   4.316   0.944   3.048  0.5422 -1.9218  0.7337
 7373TIP3   OH243609   0.830   0.893   5.768  0.4444  0.0690 -0.4067
 7373TIP3    H143610   0.907   0.919   5.718  1.0353 -0.3509  0.2575
 7373TIP3    H243611   0.831   0.951   5.845  1.0323 -1.0009  0.4202
 7374TIP3   OH243612   5.984   6.387  12.407 -0.1695  0.0799  0.0396
 7374TIP3    H143613   5.903   6.407  12.360 -0.5007  0.4151  0.7451
 7374TIP3    H243614   5.973   6.428  12.492  0.8540  0.3396  0.0521
 7375TIP3   OH243615   2.864   1.227  11.374 -0.2102  0.3724 -0.3081
 7375TIP3    H143616   2.781   1.201  11.413 -0.3992  0.2330 -0.7963
 7375TIP3    H243617   2.892   1.303  11.426  0.0834 -0.4556  0.7711
 7376TIP3   OH243618   2.840   6.081   0.345  0.2092  0.1845 -0.4086
 7376TIP3    H143619   2.867   5.999   0.303  1.3012  0.1162  0.3904
 7376TIP3    H243620   2.818   6.057   0.435  2.1978  0.9958  0.3495
 7377TIP3   OH243621   6.215   1.024   2.228  0.1188 -0.3422  0.3832
 7377TIP3    H143622   6.247   0.937   2.250 -0.1116 -0.6341 -0.4054
 7377TIP3    H243623   6.280   1.060   2.169  0.4779  0.2408  1.1105
 7378TIP3   OH243624   0.400   2.621  15.705 -0.2187  0.0431 -0.4049
 7378TIP3    H143625   0.344   2.697  15.693 -0.3535  0.2163  1.1092
 7378TIP3    H243626   0.377   2.588  15.792  1.6549 -0.1746  0.0507
 7379TIP3   OH243627   2.363   2.595   1.098 -0.2675 -0.5807 -0.1374
 7379TIP3    H143628   2.364   2.531   1.169  1.6949  1.0114  1.3873
 7379TIP3    H243629   2.290   2.654   1.120  0.4531  0.0194  0.7127
 7380TIP3   OH243630   4.305   0.826  14.148 -0.8604 -0.0355  0.6861
 7380TIP3    H143631   4.386   0.784  14.119 -0.7035  0.8170 -0.1608
 7380TIP3    H243632   4.254   0.755  14.187  0.7013 -0.4043  2.1853
 7381TIP3   OH243633   5.526   1.283   2.614  0.2316 -0.5157  0.5560
 7381TIP3    H143634   5.487   1.364   2.581  0.5302  0.8603  3.2860
 7381TIP3    H243635   5.456   1.243   2.667  0.4847 -1.4430  0.2111
 7382TIP3   OH243636   4.425   3.698  16.054 -0.3652 -0.3013  0.1064
 7382TIP3    H143637   4.490   3.763  16.025 -0.6460  0.7347  1.6400
 7382TIP3    H243638   4.477   3.620  16.073  0.3789  0.3193  0.7162
 7383TIP3   OH243639   6.177   1.678  14.467  0.2752  0.0946 -0.1902
 7383TIP3    H143640   6.258   1.627  14.467 -0.4656 -1.1057  0.3898
 7383TIP3    H243641   6.200   1.758  14.516  1.4957  0.4592 -1.2923
 7384TIP3   OH243642   1.298   3.306   1.198 -0.0359  0.2406 -0.0668
 7384TIP3    H143643   1.296   3.288   1.292  2.1664 -0.5715 -0.1192
 7384TIP3    H243644   1.297   3.219   1.157  1.6361  0.4636 -0.6681
 7385TIP3   OH243645   3.011   1.114   4.422  0.8267  0.7322  0.0563
 7385TIP3    H143646   2.995   1.054   4.349 -0.0047  3.4672 -2.1850
 7385TIP3    H243647   2.940   1.095   4.484  1.7117 -1.8384  0.3880
 7386TIP3   OH243648   2.323   4.025  13.342 -0.6052  0.2714  0.3894
 7386TIP3    H143649   2.371   4.036  13.260  1.7615 -0.4298  1.6205
 7386TIP3    H243650   2.346   4.101  13.394 -0.3195 -0.3773  1.2325
 7387TIP3   OH243651   1.767   1.971   6.225 -0.3829  0.0405 -0.6105
 7387TIP3    H143652   1.749   1.934   6.312  0.8908  1.1189  0.1457
 7387TIP3    H243653   1.691   2.027   6.207 -1.2904 -1.2021 -0.8215
 7388TIP3   OH243654   6.466   6.194   6.260 -0.4682 -0.3162 -0.0416
 7388TIP3    H143655   6.390   6.138   6.246 -0.7118 -0.0142  0.0618
 7388TIP3    H243656   6.512   6.192   6.175 -0.2765 -0.9530  0.0692
 7389TIP3   OH243657   0.525   0.211   3.165  0.4756 -0.7333 -0.4070
 7389TIP3    H143658   0.498   0.291   3.119  0.9562 -0.0917  0.4056
 7389TIP3    H243659   0.493   0.140   3.109 -2.9343 -0.0682  0.4882
 7390TIP3   OH243660   4.704   1.060   2.837 -0.3274  0.2969 -0.3614
 7390TIP3    H143661   4.702   1.112   2.756 -0.6850  2.1689  0.7855
 7390TIP3    H243662   4.687   1.124   2.907  0.5482 -1.1485  1.2523
 7391TIP3   OH243663   3.425   1.331   6.065  0.2289  0.2039 -1.1769
 7391TIP3    H143664   3.360   1.363   6.003 -1.6064  0.4069  0.7415
 7391TIP3    H243665   3.374   1.286   6.132  2.2618 -1.4162 -0.6159
 7392TIP3   OH243666   2.621   6.832  10.092  0.0142  0.2197 -0.0732
 7392TIP3    H143667   2.552   6.770  10.069  2.3293 -2.1940 -0.9325
 7392TIP3    H243668   2.651   6.867  10.009  0.6677  0.2919  0.1839
 7393TIP3   OH243669   4.548   3.940  12.134  0.4100  0.4009 -0.0822
 7393TIP3    H143670   4.508   4.014  12.179  1.0174 -0.6804  2.3984
 7393TIP3    H243671   4.632   3.927  12.178  0.0844 -2.0962 -0.0459
 7394TIP3   OH243672   2.907   2.368   2.338 -0.0278  0.5016 -0.3432
 7394TIP3    H143673   2.978   2.346   2.398 -0.4661 -2.4457 -0.7586
 7394TIP3    H243674   2.836   2.309   2.362 -1.2893  1.3038 -1.8675
 7395TIP3   OH243675   0.490   1.624   5.365  0.1725 -0.2451  0.7293
 7395TIP3    H143676   0.540   1.630   5.283 -0.1839 -2.2477  0.3122
 7395TIP3    H243677   0.524   1.545   5.408 -2.0857 -1.2641  0.7746
 7396TIP3   OH243678   4.570   5.162   1.069 -0.1918  0.2809 -0.1463
 7396TIP3    H143679   4.624   5.161   1.148 -0.5554  1.0589  0.1186
 7396TIP3    H243680   4.482   5.143   1.101 -0.5688  1.8976 -0.1722
 7397TIP3   OH243681   5.405   4.129  15.482  0.1999  0.3661 -0.1407
 7397TIP3    H143682   5.381   4.046  15.442 -2.2013  0.3609  1.0999
 7397TIP3    H243683   5.456   4.105  15.559  0.7638  0.1415 -0.5765
 7398TIP3   OH243684   0.785   2.360   6.580 -0.2510 -0.0826 -0.1923
 7398TIP3    H143685   0.733   2.306   6.521  0.6217 -1.3233  0.1489
 7398TIP3    H243686   0.757   2.450   6.561 -3.8308 -0.7044  1.1507
 7399TIP3   OH243687   0.734   5.585   0.100  0.3231 -0.4965 -0.0976
 7399TIP3    H143688   0.730   5.679   0.086  0.9614 -0.7038 -2.0091
 7399TIP3    H243689   0.649   5.552   0.072  0.1651 -0.5025  0.3923
 7400TIP3   OH243690   1.641   6.199   2.847  0.1196  0.2101 -0.5600
 7400TIP3    H143691   1.710   6.140   2.879  0.3606 -0.0720 -1.5458
 7400TIP3    H243692   1.687   6.280   2.826 -0.2390  0.8264  0.9474
 7401TIP3   OH243693   3.898   3.000   4.348  0.0443 -0.0471 -0.3968
 7401TIP3    H143694   3.896   2.904   4.343  0.6346 -0.0642 -0.3385
 7401TIP3    H243695   3.844   3.028   4.274  0.3946 -0.4185 -0.7986
 7402TIP3   OH243696   6.279   2.662  11.391  0.0058  0.3334 -0.0379
 7402TIP3    H143697   6.368   2.681  11.361 -0.2845  1.0219 -0.4832
 7402TIP3    H243698   6.283   2.675  11.486  0.1293  1.4463 -0.1803
 7403TIP3   OH243699   3.592   3.783   3.945  0.7511  0.4840  0.1207
 7403TIP3    H143700   3.642   3.863   3.961  0.7294  0.2476  1.5288
 7403TIP3    H243701   3.644   3.714   3.985  1.8966 -0.6268 -2.9804
 7404TIP3   OH243702   6.711   1.842  13.922 -0.0966 -0.5992  0.1657
 7404TIP3    H143703   6.795   1.813  13.887  0.1572 -0.8709  0.9870
 7404TIP3    H243704   6.697   1.928  13.882  0.2777 -0.8187 -0.4467
 7405TIP3   OH243705   3.851   0.826   3.341  0.0079 -0.4301 -0.2615
 7405TIP3    H143706   3.943   0.849   3.348 -0.0109 -0.4350  0.0000
 7405TIP3    H243707   3.809   0.868   3.416 -0.4739  0.9020 -1.2489
 7406TIP3   OH243708   1.878   4.992   5.281 -0.6106 -0.6078  0.1429
 7406TIP3    H143709   1.961   5.036   5.302 -1.1100  1.6660 -2.0878
 7406TIP3    H243710   1.814   5.033   5.339 -0.8024  0.6528 -0.8938
 7407TIP3   OH243711   1.524   0.222  10.285 -0.2861 -0.3321  0.0574
 7407TIP3    H143712   1.568   0.290  10.336  0.9519 -0.3652 -0.8893
 7407TIP3    H243713   1.475   0.170  10.349 -0.7283  1.0526  0.8767
 7408TIP3   OH243714   1.930   3.180  14.208  0.2255  0.3634 -0.1891
 7408TIP3    H143715   1.991   3.214  14.143  1.6092  1.0263  1.3777
 7408TIP3    H243716   1.872   3.121  14.159  3.0148 -1.4456 -1.5352
 7409TIP3   OH243717   5.162   3.758   0.587  0.8037  0.4445  0.6975
 7409TIP3    H143718   5.212   3.816   0.530 -0.9735  0.8344 -0.5512
 7409TIP3    H243719   5.185   3.670   0.557  1.0829  0.6061  0.4334
 7410TIP3   OH243720   4.286   3.723   3.014 -0.0171 -0.1144  0.6099
 7410TIP3    H143721   4.337   3.655   3.058 -0.2534  0.0355  1.1210
 7410TIP3    H243722   4.349   3.790   2.990  0.4194 -1.0281 -0.9468
 7411TIP3   OH243723   0.130   2.969   0.710 -0.0633 -0.1991 -0.5160
 7411TIP3    H143724   0.077   2.985   0.632 -0.3251  2.4844  0.1346
 7411TIP3    H243725   0.072   2.988   0.783  0.3192 -2.2554  0.3911
 7412TIP3   OH243726   3.577   0.916   5.795  0.2302  0.0284  0.6548
 7412TIP3    H143727   3.533   0.981   5.850  1.2326  1.2505  0.0574
 7412TIP3    H243728   3.634   0.967   5.737  0.3729 -1.3192 -0.4686
 7413TIP3   OH243729   0.872   0.964   0.487 -0.3817  0.2668 -0.2126
 7413TIP3    H143730   0.948   0.913   0.516 -1.2507 -0.5934  0.6296
 7413TIP3    H243731   0.906   1.052   0.474  0.7749 -0.1109  0.1044
 7414TIP3   OH243732   0.830   0.336  11.375 -0.4865 -0.2485  0.1053
 7414TIP3    H143733   0.742   0.351  11.340 -0.0126 -1.1943 -1.6129
 7414TIP3    H243734   0.880   0.413  11.348 -0.4076 -0.4409 -0.3047
 7415TIP3   OH243735   0.499   5.038  14.017  0.6368 -0.1478  0.2468
 7415TIP3    H143736   0.465   4.984  14.088  0.9203  0.5609  0.9424
 7415TIP3    H243737   0.465   5.126  14.036  0.6484  0.0280 -0.5370
 7416TIP3   OH243738   1.775   0.376   2.454  0.0213  0.1962 -0.1983
 7416TIP3    H143739   1.687   0.359   2.486 -0.2949  0.3984 -0.9409
 7416TIP3    H243740   1.832   0.329   2.514 -0.5709  0.3514  0.4985
 7417TIP3   OH243741   2.106   4.840  13.625  0.5230 -0.6232 -0.6723
 7417TIP3    H143742   2.018   4.870  13.604  0.7523  0.2763 -0.4017
 7417TIP3    H243743   2.114   4.755  13.583 -1.2578 -1.7595  1.1193
 7418TIP3   OH243744   0.029   1.905   2.542  0.7079 -0.1236 -0.8002
 7418TIP3    H143745   0.061   1.938   2.626  0.4724 -0.3120 -0.6384
 7418TIP3    H243746   0.098   1.845   2.513  1.2478  0.6579 -1.2015
 7419TIP3   OH243747   1.854   4.457   1.660 -0.3912  0.3627  0.1357
 7419TIP3    H143748   1.848   4.461   1.755 -0.2062 -1.1628  0.2280
 7419TIP3    H243749   1.944   4.482   1.640 -0.7192  1.7388  0.2612
 7420TIP3   OH243750   0.517   5.168  14.504  0.3100  0.0865  0.5461
 7420TIP3    H143751   0.531   5.259  14.479 -0.7383  0.4601  1.2486
 7420TIP3    H243752   0.559   5.117  14.435  0.9706  1.0966  0.1778
 7421TIP3   OH243753   1.699   1.132  14.415 -0.3559  0.3510  0.2503
 7421TIP3    H143754   1.631   1.067  14.396  1.3483 -1.9947  1.6056
 7421TIP3    H243755   1.744   1.145  14.331  0.8650 -2.2785  0.3984
 7422TIP3   OH243756   3.529   3.753  15.906 -0.2849 -0.2096  0.0776
 7422TIP3    H143757   3.574   3.837  15.895  0.1701 -0.5502 -0.8199
 7422TIP3    H243758   3.577   3.693  15.848 -0.5056 -1.1249  0.8269
 7423TIP3   OH243759   3.314   0.070   5.351 -0.0386  0.3772  0.3473
 7423TIP3    H143760   3.333   0.067   5.258 -1.7948  1.8698 -0.1164
 7423TIP3    H243761   3.259  -0.007   5.367 -0.8156  0.8200 -0.1450
 7424TIP3   OH243762   1.908   1.174   3.858 -0.1332  0.5962  0.3781
 7424TIP3    H143763   1.902   1.136   3.770  0.0276  1.2474  0.0834
 7424TIP3    H243764   2.002   1.190   3.871  0.1225 -1.4762  1.5260
 7425TIP3   OH243765   2.184   4.465  12.526  0.8528 -0.3926  0.5152
 7425TIP3    H143766   2.203   4.524  12.453 -0.8448 -1.4425 -0.8492
 7425TIP3    H243767   2.118   4.511  12.578 -0.2896 -0.9455 -0.4131
 7426TIP3   OH243768   5.465   3.326   2.615  0.3220 -0.3310  0.1231
 7426TIP3    H143769   5.375   3.310   2.642  0.3026 -0.8938 -0.2599
 7426TIP3    H243770   5.462   3.325   2.519  0.9580 -1.7609  0.0903
 7427TIP3   OH243771   1.420   4.335  13.932  0.3074  0.2645  0.1617
 7427TIP3    H143772   1.437   4.259  13.877 -0.6357 -0.6090  1.0452
 7427TIP3    H243773   1.406   4.407  13.870  1.3897 -0.2190 -0.6788
 7428TIP3   OH243774   1.369   0.808   1.442  0.8127 -0.2536  0.2361
 7428TIP3    H143775   1.330   0.726   1.412 -0.6100  0.3979  0.2648
 7428TIP3    H243776   1.431   0.832   1.373  0.7257 -0.9839 -0.1026
 7429TIP3   OH243777   6.204   6.227   0.403  0.1364 -0.1009  0.1731
 7429TIP3    H143778   6.123   6.262   0.442 -0.1258 -0.0764 -0.3869
 7429TIP3    H243779   6.202   6.134   0.423 -0.8769 -0.4161 -1.2798
 7430TIP3   OH243780   0.542   6.135   4.423 -0.1121  0.1849  0.6230
 7430TIP3    H143781   0.555   6.198   4.352  0.9316 -0.8982 -0.1896
 7430TIP3    H243782   0.593   6.170   4.496 -1.4051  1.4447  0.9630
 7431TIP3   OH243783   3.946   1.591   5.533  0.0307 -0.0936 -0.2133
 7431TIP3    H143784   3.930   1.686   5.533  0.9883  0.0868  0.6527
 7431TIP3    H243785   3.922   1.563   5.445 -0.3650  0.9406 -0.4536
 7432TIP3   OH243786   1.320   5.903   4.767 -0.1574 -0.3645 -0.1478
 7432TIP3    H143787   1.363   5.844   4.830 -1.2571 -1.5100 -0.4252
 7432TIP3    H243788   1.230   5.872   4.764 -0.6092  0.9676 -0.7888
 7433TIP3   OH243789   1.029   6.444   2.869 -0.6226  0.1752 -0.4669
 7433TIP3    H143790   1.116   6.406   2.862 -0.6804  0.2999 -2.7083
 7433TIP3    H243791   1.040   6.536   2.844 -1.1519  0.6094  0.8161
 7434TIP3   OH243792   0.918   5.299   0.749 -0.1079 -0.4163 -0.1780
 7434TIP3    H143793   0.840   5.297   0.693 -1.2405  0.1496  1.2983
 7434TIP3    H243794   0.884   5.320   0.836  1.5550 -1.5660  0.7958
 7435TIP3   OH243795   2.939   2.796   1.705 -0.1608  0.4182 -0.7103
 7435TIP3    H143796   3.029   2.778   1.676  0.3954  1.3791  0.3313
 7435TIP3    H243797   2.897   2.710   1.707  0.8298 -0.0876 -0.9178
 7436TIP3   OH243798   1.971   5.331   3.664 -0.0148 -0.4086 -0.0466
 7436TIP3    H143799   2.064   5.341   3.688 -0.7533 -0.8559  3.6544
 7436TIP3    H243800   1.930   5.411   3.698 -1.1146 -0.5648 -0.9674
 7437TIP3   OH243801   0.071   2.618   0.643  0.0094 -0.2054  0.3941
 7437TIP3    H143802   0.066   2.599   0.736  1.6429  1.0056  0.7713
 7437TIP3    H243803   0.165   2.624   0.625 -0.2377 -1.2620 -1.5201
 7438TIP3   OH243804   1.863   5.027  13.288 -0.6232  0.0804  0.0458
 7438TIP3    H143805   1.908   5.069  13.361 -1.2672 -0.7104  0.9118
 7438TIP3    H243806   1.784   4.989  13.326 -0.4166 -1.3022 -0.8445
 7439TIP3   OH243807   3.015   3.119  12.607  0.2713  0.1904 -0.0513
 7439TIP3    H143808   2.961   3.108  12.529  1.0863 -1.1899 -0.4555
 7439TIP3    H243809   3.008   3.212  12.628 -2.2572  0.0928 -0.0656
 7440TIP3   OH243810   2.573   4.724   6.048  0.2695 -0.0764 -0.2925
 7440TIP3    H143811   2.490   4.771   6.051 -1.0593 -2.2185 -1.2804
 7440TIP3    H243812   2.621   4.757   6.124 -2.9923 -1.3914  2.6418
 7441TIP3   OH243813   1.227   1.836  14.997  0.5056 -0.5925  0.3738
 7441TIP3    H143814   1.278   1.764  14.959  0.7883 -0.5201  0.6148
 7441TIP3    H243815   1.290   1.905  15.012 -0.0050  0.2830 -1.2392
 7442TIP3   OH243816   2.184   3.695  12.443  0.1103  0.5704  0.0422
 7442TIP3    H143817   2.147   3.647  12.370 -0.6749 -1.4482  1.6679
 7442TIP3    H243818   2.248   3.635  12.481 -1.6564  0.2677  2.7907
 7443TIP3   OH243819   6.702   6.187   3.233  0.3342  0.5216  0.2253
 7443TIP3    H143820   6.666   6.245   3.167  0.3898 -0.4722 -0.7162
 7443TIP3    H243821   6.758   6.126   3.184 -0.4705 -0.9228  1.0158
 7444TIP3   OH243822   0.669   1.920  11.209 -0.7798  0.5576 -0.1071
 7444TIP3    H143823   0.743   1.862  11.192 -1.3753 -1.0266  2.1544
 7444TIP3    H243824   0.630   1.936  11.123  1.2040  0.1068 -1.1472
 7445TIP3   OH243825   3.872   4.914   3.748 -0.3344  0.0265 -0.0358
 7445TIP3    H143826   3.820   4.962   3.813 -1.1315 -0.2684 -0.4370
 7445TIP3    H243827   3.865   4.966   3.668  0.7191  0.4364  0.1300
 7446TIP3   OH243828   5.637   5.603  15.213 -0.1586  0.0214 -0.1270
 7446TIP3    H143829   5.602   5.676  15.161  3.8003  1.1395 -1.5874
 7446TIP3    H243830   5.590   5.526  15.180 -2.8595  1.5589 -0.1378
 7447TIP3   OH243831   2.511   1.931   1.438  0.1485 -0.3029  0.0509
 7447TIP3    H143832   2.565   1.853   1.454 -0.9023 -0.9580  0.5713
 7447TIP3    H243833   2.444   1.901   1.376 -0.6991 -0.0307  0.8076
 7448TIP3   OH243834   2.691   3.469  15.914 -0.6341 -0.6176 -0.3470
 7448TIP3    H143835   2.706   3.380  15.947 -1.7824 -0.3300  1.0408
 7448TIP3    H243836   2.598   3.471  15.893 -1.2494  0.9851  2.1308
 7449TIP3   OH243837   6.710   2.245  12.090  0.5488 -0.0082  0.0329
 7449TIP3    H143838   6.697   2.330  12.048  1.5627  1.0395  1.7337
 7449TIP3    H243839   6.661   2.251  12.173  0.0399 -1.3648 -0.1340
 7450TIP3   OH243840   5.863   0.625  16.215  0.2549 -0.3697 -0.1766
 7450TIP3    H143841   5.946   0.668  16.195  1.3091 -0.9038  2.5983
 7450TIP3    H243842   5.801   0.698  16.224  0.7387  0.1417 -0.8283
 7451TIP3   OH243843   3.941   5.235  16.188 -0.0185 -0.0319  0.4140
 7451TIP3    H143844   4.034   5.215  16.195  0.0049  0.2070  0.8154
 7451TIP3    H243845   3.925   5.298  16.258  0.0303  1.8428 -1.1837
 7452TIP3   OH243846   1.804   4.337   5.375 -0.7584 -0.5376  0.7334
 7452TIP3    H143847   1.881   4.281   5.373 -0.2430  0.0918  1.7297
 7452TIP3    H243848   1.763   4.325   5.290  1.5193  0.5775 -0.6214
 7453TIP3   OH243849   0.587   6.342  13.064 -0.0003 -0.1245 -0.3395
 7453TIP3    H143850   0.650   6.273  13.042  2.4926  2.2597 -1.1607
 7453TIP3    H243851   0.621   6.380  13.146 -1.7655 -0.3136  0.5240
 7454TIP3   OH243852   1.775   1.094   5.292  0.1920 -0.1481 -0.2836
 7454TIP3    H143853   1.698   1.152   5.295 -1.0743 -1.7850  0.5465
 7454TIP3    H243854   1.745   1.017   5.244  0.7589 -1.5552  1.5114
 7455TIP3   OH243855   5.642   0.550   5.445  0.1950 -0.0261  0.1160
 7455TIP3    H143856   5.633   0.457   5.422  1.1446 -0.2994  0.7780
 7455TIP3    H243857   5.556   0.574   5.479 -0.5518 -0.2093 -1.5658
 7456TIP3   OH243858   3.763   2.824  16.713 -0.2498 -0.0326 -0.1495
 7456TIP3    H143859   3.668   2.836  16.706 -0.3563 -0.4064  0.6059
 7456TIP3    H243860   3.774   2.738  16.752  0.4300 -0.4311 -1.1715
 7457TIP3   OH243861   5.129   2.829   4.776 -0.0474  0.2349 -0.3330
 7457TIP3    H143862   5.076   2.884   4.835  0.1142 -0.2752  0.3037
 7457TIP3    H243863   5.197   2.887   4.744  0.4122  0.2995  0.7177
 7458TIP3   OH243864   1.606   5.908  13.902 -0.4923 -0.1192  0.2195
 7458TIP3    H143865   1.687   5.925  13.854  0.4748  0.3247  1.8991
 7458TIP3    H243866   1.602   5.979  13.967 -0.1422 -2.2252  2.7132
 7459TIP3   OH243867   4.923   4.558  11.212  0.4986 -0.1190 -0.4101
 7459TIP3    H143868   4.961   4.499  11.147  1.9524  0.2739  0.0280
 7459TIP3    H243869   4.860   4.611  11.163  0.3178 -0.9723 -1.1254
 7460TIP3   OH243870   2.334   5.190   0.526 -0.3484 -0.1590 -0.0803
 7460TIP3    H143871   2.363   5.201   0.435  2.8051  2.6102  1.0074
 7460TIP3    H243872   2.275   5.264   0.541 -0.8754 -0.6201  0.1549
 7461TIP3   OH243873   5.391   6.563   1.651  0.6256  0.3181 -0.1571
 7461TIP3    H143874   5.411   6.540   1.560  0.0308 -0.7910 -0.0255
 7461TIP3    H243875   5.451   6.509   1.703  0.8282  0.8049  0.1245
 7462TIP3   OH243876   4.146   5.259  17.095  0.5092 -0.6374 -0.8299
 7462TIP3    H143877   4.078   5.301  17.148 -0.3411 -2.4976 -0.3476
 7462TIP3    H243878   4.157   5.315  17.019  0.2279  0.9980  0.2979
 7463TIP3   OH243879   6.041   6.226  13.195 -0.4594  0.8589  0.7096
 7463TIP3    H143880   6.102   6.179  13.252  3.4162  2.0535 -2.0240
 7463TIP3    H243881   6.044   6.316  13.226 -1.4911  0.8113  0.9856
 7464TIP3   OH243882   0.057   4.492   2.642  0.0675  0.4004  0.3642
 7464TIP3    H143883   0.029   4.485   2.551 -0.6054  0.4502  0.5662
 7464TIP3    H243884   0.124   4.424   2.652 -1.8470 -1.5520  0.5923
 7465TIP3   OH243885   0.945   5.421   4.911 -0.0828  0.1733 -0.5736
 7465TIP3    H143886   0.979   5.403   4.999  2.5605 -2.1241 -1.9363
 7465TIP3    H243887   1.012   5.477   4.871 -0.9754  0.7104 -1.3422
 7466TIP3   OH243888   6.493   6.458   4.083  0.6281  0.2964  0.3167
 7466TIP3    H143889   6.587   6.477   4.085  0.5706  0.5880  2.0232
 7466TIP3    H243890   6.467   6.460   4.175 -1.2811  1.3563 -0.2061
 7467TIP3   OH243891   1.115   2.933  15.320  0.5233 -0.6818 -0.3076
 7467TIP3    H143892   1.098   2.909  15.411 -0.1664 -2.8032 -0.9263
 7467TIP3    H243893   1.029   2.958  15.285  0.6828 -0.4142 -0.5114
 7468TIP3   OH243894   2.656   6.245  14.394  0.4392  0.3442 -0.2808
 7468TIP3    H143895   2.744   6.229  14.428  1.5532  2.5031 -1.8790
 7468TIP3    H243896   2.667   6.246  14.299 -1.4888 -0.1213 -0.5466
 7469TIP3   OH243897   4.775   6.779  13.806  0.5116  0.0752 -0.2270
 7469TIP3    H143898   4.867   6.762  13.827  0.6765 -0.3055 -1.2265
 7469TIP3    H243899   4.727   6.714  13.857  0.7916  0.2274  0.2444
 7470TIP3   OH243900   5.517   2.947  12.007 -0.8294  0.1107 -0.1969
 7470TIP3    H143901   5.466   2.880  11.962  1.1568 -1.9755  0.4329
 7470TIP3    H243902   5.581   2.976  11.942 -2.4359  2.4461 -0.8709
 7471TIP3   OH243903   4.364   0.666   3.286  0.0568 -0.1233 -0.2926
 7471TIP3    H143904   4.322   0.742   3.327  1.2359  1.0958 -1.2890
 7471TIP3    H243905   4.314   0.591   3.320 -0.4311  0.9801  1.5927
 7472TIP3   OH243906   2.602   4.959   3.755 -0.0485 -0.2822 -0.4581
 7472TIP3    H143907   2.523   4.941   3.806 -0.0198 -0.5931 -0.5221
 7472TIP3    H243908   2.582   4.927   3.667  0.3615 -0.8982 -0.3293
 7473TIP3   OH243909   6.785   0.873  16.744 -0.2526 -0.0604 -0.1092
 7473TIP3    H143910   6.842   0.906  16.813 -0.5847  0.5211 -0.1060
 7473TIP3    H243911   6.728   0.810  16.789  0.5295 -0.8199 -0.1612
 7474TIP3   OH243912   1.817   5.097   3.750 -0.0913  0.1496 -0.2617
 7474TIP3    H143913   1.868   5.174   3.723  0.2443  0.1047  0.2172
 7474TIP3    H243914   1.825   5.036   3.677  1.1242 -0.1266  0.0663
 7475TIP3   OH243915   1.971   5.617  15.266 -0.1175  0.2403 -0.3528
 7475TIP3    H143916   1.958   5.522  15.256  2.6472 -0.5955  2.3810
 7475TIP3    H243917   2.061   5.632  15.236 -0.3556  1.9374 -0.3003
 7476TIP3   OH243918   0.264   6.431  15.825  0.5045  0.0267 -0.3415
 7476TIP3    H143919   0.197   6.470  15.768  2.5472  2.8695 -1.0388
 7476TIP3    H243920   0.308   6.367  15.769  0.5361  0.6086 -1.0016
 7477TIP3   OH243921   0.880   4.391   6.431 -0.3478 -0.1097  0.3525
 7477TIP3    H143922   0.961   4.341   6.431  0.2168  0.6962 -1.8467
 7477TIP3    H243923   0.811   4.326   6.447  0.5931 -1.0447  0.6688
 7478TIP3   OH243924   2.334   6.715  16.427 -0.7083 -0.3199 -0.0959
 7478TIP3    H143925   2.322   6.653  16.499  1.2966 -1.3818 -0.5917
 7478TIP3    H243926   2.304   6.799  16.461 -0.0178 -0.8419  1.8866
 7479TIP3   OH243927   2.681   0.584  15.976  0.8249  0.6515 -0.2789
 7479TIP3    H143928   2.679   0.661  15.920  0.8006  0.7376 -0.1594
 7479TIP3    H243929   2.644   0.613  16.059  0.2661  0.3615 -0.4227
 7480TIP3   OH243930   2.915   1.888   4.257  0.1180 -0.2134 -0.3318
 7480TIP3    H143931   2.964   1.809   4.279  3.2126  2.3843  3.5652
 7480TIP3    H243932   2.960   1.925   4.182  0.8465 -0.5081 -0.0466
 7481TIP3   OH243933   1.065   3.720  12.751  0.4899 -0.0009  0.0414
 7481TIP3    H143934   1.091   3.733  12.842  1.3178 -1.3780  0.0266
 7481TIP3    H243935   0.978   3.761  12.744 -0.4124 -1.4605  1.9339
 7482TIP3   OH243936   0.181   5.679  14.812  0.4440 -0.5837 -0.5184
 7482TIP3    H143937   0.254   5.740  14.799  1.3502 -1.2447  1.1493
 7482TIP3    H243938   0.162   5.684  14.905 -1.2555 -0.9096 -0.8086
 7483TIP3   OH243939   5.830   5.010   1.665 -0.9017 -0.3092  0.1870
 7483TIP3    H143940   5.843   4.984   1.757 -2.5152 -0.8689  0.2987
 7483TIP3    H243941   5.813   5.104   1.669 -2.8014 -0.6177  0.7318
 7484TIP3   OH243942   4.038   0.077  15.467 -0.1991  0.0191 -0.3466
 7484TIP3    H143943   4.078  -0.007  15.444  1.1852  0.3399  0.7337
 7484TIP3    H243944   3.981   0.057  15.541 -0.3765 -0.0751 -0.5088
 7485TIP3   OH243945   4.933   1.734   2.547 -0.3463  0.2753  0.4510
 7485TIP3    H143946   5.015   1.782   2.535 -0.9759  1.2626 -0.1449
 7485TIP3    H243947   4.901   1.762   2.633  0.9182 -1.7010  1.6342
 7486TIP3   OH243948   0.050   6.275  13.680  0.2934  0.0380  0.2425
 7486TIP3    H143949   0.073   6.187  13.708 -0.3301  0.6690  2.9654
 7486TIP3    H243950   0.129   6.306  13.635 -0.4962 -2.8811 -3.8061
 7487TIP3   OH243951   3.849   5.450  12.485 -0.1961  0.2486  1.1174
 7487TIP3    H143952   3.900   5.529  12.463 -3.0385  2.0628  0.4498
 7487TIP3    H243953   3.814   5.421  12.401 -1.0929 -0.3044  1.6720
 7488TIP3   OH243954   2.580   3.188   5.392  0.2479 -0.1006 -0.3624
 7488TIP3    H143955   2.626   3.116   5.435 -0.7993  1.9103  4.9353
 7488TIP3    H243956   2.647   3.231   5.339  1.7911 -2.7652 -0.7523
 7489TIP3   OH243957   5.728   1.073   3.853 -0.2486  0.2452 -0.1308
 7489TIP3    H143958   5.708   1.122   3.932  0.2071  0.7473 -0.3206
 7489TIP3    H243959   5.757   0.987   3.884 -2.2267 -0.3692  0.1653
 7490TIP3   OH243960   0.538   1.058  12.154 -0.1851 -0.6933 -0.4102
 7490TIP3    H143961   0.457   1.028  12.114 -0.3646 -0.1455 -0.4715
 7490TIP3    H243962   0.582   1.108  12.086 -0.7554  0.7128  0.2130
 7491TIP3   OH243963   6.450   2.690   0.167 -0.6493  0.2511 -0.4469
 7491TIP3    H143964   6.430   2.744   0.244  1.1892  1.9445 -1.0764
 7491TIP3    H243965   6.379   2.708   0.106 -2.4952 -1.6040  0.9717
 7492TIP3   OH243966   6.325   1.692   1.160 -0.0736  0.2427 -0.3299
 7492TIP3    H143967   6.367   1.728   1.237 -1.3801  2.7291 -0.6969
 7492TIP3    H243968   6.389   1.629   1.125  1.7752  1.2455  1.0850
 7493TIP3   OH243969   2.805   4.848  16.070  0.0241 -0.2413  0.4072
 7493TIP3    H143970   2.757   4.931  16.080  0.2627  0.2001 -1.6374
 7493TIP3    H243971   2.752   4.798  16.008 -0.1081 -1.6517  1.6086
 7494TIP3   OH243972   0.870   1.748   4.417  0.3875  0.0222  0.0975
 7494TIP3    H143973   0.858   1.761   4.323 -0.8012 -0.9350  0.0874
 7494TIP3    H243974   0.784   1.767   4.455  0.8415  0.3451  0.9861
 7495TIP3   OH243975   6.249   1.693   0.824  0.3732 -0.0220 -0.0809
 7495TIP3    H143976   6.236   1.646   0.907  2.0773 -0.0942  0.1748
 7495TIP3    H243977   6.235   1.626   0.757  0.0547 -0.2262  0.1871
 7496TIP3   OH243978   5.618   2.829  15.068  0.4586 -0.5900  0.0074
 7496TIP3    H143979   5.582   2.913  15.042  0.6749 -0.1600  1.0138
 7496TIP3    H243980   5.711   2.835  15.047  0.6049 -0.2995  0.6910
 7497TIP3   OH243981   4.900   5.062  11.226  0.0344 -0.0856  0.0736
 7497TIP3    H143982   4.928   4.970  11.220  1.3861  0.1794  1.6756
 7497TIP3    H243983   4.869   5.083  11.138 -1.6358 -2.4785 -0.0081
 7498TIP3   OH243984   2.959   3.646  14.371  0.7986  0.3948  0.5203
 7498TIP3    H143985   2.982   3.731  14.407  0.1262  1.7540 -2.0142
 7498TIP3    H243986   2.985   3.651  14.278  2.1123 -2.7184  0.5859
 7499TIP3   OH243987   0.943   3.493   3.463 -0.6293  0.2126  0.1596
 7499TIP3    H143988   1.007   3.440   3.509 -1.1749  0.3461  1.0954
 7499TIP3    H243989   0.937   3.454   3.376  2.9238  1.9506 -1.0627
 7500TIP3   OH243990   4.128   5.641  12.099 -0.7277  0.2659 -0.0322
 7500TIP3    H143991   4.046   5.688  12.083 -1.8934 -2.0133 -1.4384
 7500TIP3    H243992   4.195   5.696  12.059 -1.9550  0.9411 -1.2828
 7501TIP3   OH243993   5.342   0.523  11.032 -0.5439  0.8630 -0.1750
 7501TIP3    H143994   5.264   0.547  11.083 -1.2298 -2.1803  0.3764
 7501TIP3    H243995   5.307   0.479  10.955  0.6157  1.0575 -0.8235
 7502TIP3   OH243996   2.632   2.873   1.430  0.5438  0.1875 -0.1865
 7502TIP3    H143997   2.624   2.793   1.378  0.9157  0.2416 -0.3302
 7502TIP3    H243998   2.723   2.875   1.458  0.3846  0.2391  0.3478
 7503TIP3   OH243999   1.375   6.141  16.906 -0.2259 -0.1053  0.0269
 7503TIP3    H144000   1.449   6.083  16.890 -0.1629 -0.6675  2.0891
 7503TIP3    H244001   1.300   6.095  16.869 -0.0553 -1.1847  0.9592
 7504TIP3   OH244002   1.519   6.068  14.165 -0.1194  0.2854  0.2867
 7504TIP3    H144003   1.551   6.038  14.250  1.3016  1.2934  0.1476
 7504TIP3    H244004   1.598   6.085  14.114 -0.9361 -0.7620 -1.4360
 7505TIP3   OH244005   5.696   3.372  16.774  0.0219  0.0413 -0.2116
 7505TIP3    H144006   5.602   3.352  16.776  0.0864 -0.3405 -0.8525
 7505TIP3    H244007   5.703   3.449  16.718  0.0426  0.3688  0.2348
 7506TIP3   OH244008   3.370   5.776   0.847 -0.2149 -0.2839 -0.5457
 7506TIP3    H144009   3.285   5.733   0.843  0.4896 -1.9503  0.8089
 7506TIP3    H244010   3.398   5.785   0.756 -1.5834 -0.1844 -0.9759
 7507TIP3   OH244011   5.541   5.752  15.006  0.2625 -0.3910  0.7777
 7507TIP3    H144012   5.467   5.806  14.977 -0.4660 -1.1971  1.0663
 7507TIP3    H244013   5.590   5.734  14.926  1.1907  1.6149  0.8317
 7508TIP3   OH244014   2.249   0.311  10.973 -0.0701 -0.1215 -0.0704
 7508TIP3    H144015   2.302   0.327  11.051 -1.3789  0.1082  0.8021
 7508TIP3    H244016   2.198   0.391  10.962 -0.3540 -0.3948 -0.8016
 7509TIP3   OH244017   4.104   6.815   0.217 -0.4752 -0.2675  0.2105
 7509TIP3    H144018   4.095   6.851   0.129 -0.3311 -1.5466 -0.3465
 7509TIP3    H244019   4.015   6.807   0.250 -0.5149  0.4439  0.2867
 7510TIP3   OH244020   1.614   0.063   4.074 -0.5133  0.0887 -0.2925
 7510TIP3    H144021   1.601   0.089   4.165  0.2295  2.5662 -0.8199
 7510TIP3    H244022   1.665  -0.018   4.079  1.3252  1.2580  1.5237
 7511TIP3   OH244023   3.201   1.047  11.829  0.6681  0.4068  0.4074
 7511TIP3    H144024   3.264   1.081  11.765 -0.9248  0.2146 -1.3401
 7511TIP3    H244025   3.130   1.111  11.829 -0.7580 -1.1117 -0.3233
 7512TIP3   OH244026   2.759   5.980  12.908 -0.0261 -0.1734 -0.0491
 7512TIP3    H144027   2.819   6.051  12.888  1.0758 -0.7551  0.9890
 7512TIP3    H244028   2.697   5.979  12.836  1.7535 -0.1249 -1.6736
 7513TIP3   OH244029   2.700   3.456  12.747  0.3994 -0.5891 -0.0558
 7513TIP3    H144030   2.641   3.459  12.823  1.8351  2.2319  1.0823
 7513TIP3    H244031   2.650   3.498  12.677  0.5556  0.6649  0.5563
 7514TIP3   OH244032   0.739   1.573   2.066  0.3200  0.1083  0.1740
 7514TIP3    H144033   0.796   1.508   2.108  0.0232  0.1914  0.7152
 7514TIP3    H244034   0.729   1.642   2.132 -1.2513 -0.3857  0.4813
 7515TIP3   OH244035   1.265   5.929  15.523 -0.4794  0.0198  0.6948
 7515TIP3    H144036   1.224   5.847  15.496 -1.1558  0.7017 -0.4427
 7515TIP3    H244037   1.341   5.902  15.574  0.3890 -1.3686 -1.2046
 7516TIP3   OH244038   2.367   4.779  13.066  0.2287  0.5782 -0.1526
 7516TIP3    H144039   2.335   4.810  13.151 -0.2238  0.1992 -0.1791
 7516TIP3    H244040   2.461   4.764  13.080 -0.1552 -1.2791  0.8566
 7517TIP3   OH244041   3.475   0.537   6.209  0.5349  0.1783 -0.1490
 7517TIP3    H144042   3.477   0.573   6.298 -1.4635  2.0395 -0.7771
 7517TIP3    H244043   3.553   0.575   6.167  1.3089 -0.4517  0.6648
 7518TIP3   OH244044   5.169   3.519   0.230 -0.2267 -0.0810  0.2133
 7518TIP3    H144045   5.147   3.431   0.260 -0.4908 -0.0249  0.1829
 7518TIP3    H244046   5.099   3.542   0.169 -0.4724  0.3897  0.6739
 7519TIP3   OH244047   2.823   0.952   5.541 -0.4040 -0.2527  0.2222
 7519TIP3    H144048   2.804   1.041   5.513  1.0755  0.6135  1.8309
 7519TIP3    H244049   2.908   0.931   5.501  0.1556 -0.2105  1.3402
 7520TIP3   OH244050   4.851   5.558   5.167  0.0089  0.4223 -0.1803
 7520TIP3    H144051   4.889   5.635   5.124 -0.0141  0.4867 -0.0855
 7520TIP3    H244052   4.801   5.593   5.240  1.2310  0.2355  0.7873
 7521TIP3   OH244053   2.343   6.382  12.432  0.0690  0.3862 -0.2489
 7521TIP3    H144054   2.415   6.427  12.475 -0.7530  1.5291 -0.0173
 7521TIP3    H244055   2.284   6.452  12.404 -0.3828 -0.4434 -1.4867
 7522TIP3   OH244056   5.289   0.359  14.216 -0.1176 -0.0461  0.2741
 7522TIP3    H144057   5.259   0.434  14.165 -1.6114 -0.4772  0.4815
 7522TIP3    H244058   5.285   0.285  14.155  0.4712 -0.1361  0.3333
 7523TIP3   OH244059   3.138   1.209   5.720 -0.3860  0.0193  0.9415
 7523TIP3    H144060   3.136   1.152   5.797  0.7899 -1.8828 -0.3423
 7523TIP3    H244061   3.050   1.246   5.716 -2.0557 -3.5232  0.6122
 7524TIP3   OH244062   5.482   5.493  14.262 -0.0128  0.1651  0.0281
 7524TIP3    H144063   5.458   5.583  14.240  0.4427  0.4757  0.7365
 7524TIP3    H244064   5.418   5.467  14.328 -0.3002 -0.1254 -0.3643
 7525TIP3   OH244065   1.913   2.128  16.859 -0.5586 -0.0850 -0.7489
 7525TIP3    H144066   1.908   2.071  16.783  2.3192 -0.8686 -0.4640
 7525TIP3    H244067   1.882   2.073  16.932  2.8082 -1.7179 -0.3600
 7526TIP3   OH244068   2.678   2.875  13.856 -0.2750 -0.1243  0.1642
 7526TIP3    H144069   2.597   2.839  13.890 -1.7192  0.3152 -2.5040
 7526TIP3    H244070   2.738   2.800  13.852 -1.0965 -0.8201  0.6470
 7527TIP3   OH244071   6.807   5.554  12.633 -0.4390 -1.3089 -0.3049
 7527TIP3    H144072   6.729   5.551  12.689  0.7341  0.2713  1.5967
 7527TIP3    H244073   6.835   5.646  12.637  1.9893 -1.9840 -0.1836
 7528TIP3   OH244074   5.998   4.450  11.847  0.1252  0.7020  0.0043
 7528TIP3    H144075   5.947   4.527  11.870  0.3373  1.2299 -1.1889
 7528TIP3    H244076   5.954   4.377  11.890 -1.6640  1.1428 -1.0085
 7529TIP3   OH244077   4.962   4.411   4.946  0.4088  0.8098  0.4213
 7529TIP3    H144078   4.910   4.453   5.014  0.2389  0.6664  0.3789
 7529TIP3    H244079   5.046   4.457   4.949  0.2436  1.1206  0.4117
 7530TIP3   OH244080   4.071   5.412   1.610  0.2155  0.2686  0.2036
 7530TIP3    H144081   4.116   5.328   1.598 -0.1747  0.0286  0.3869
 7530TIP3    H244082   4.053   5.416   1.704  0.4552  0.6779  0.2353
 7531TIP3   OH244083   6.664   5.083  12.981  0.0097 -0.1766  0.1807
 7531TIP3    H144084   6.621   5.019  12.925 -0.0832 -0.5063  0.6236
 7531TIP3    H244085   6.698   5.149  12.921 -2.2155  0.7802 -0.0987
 7532TIP3   OH244086   6.048   3.511  15.597 -0.5543 -0.1749  0.1385
 7532TIP3    H144087   6.133   3.553  15.609  0.0448 -1.1280 -0.6369
 7532TIP3    H244088   6.046   3.487  15.504 -2.1706  0.8655 -0.1538
 7533TIP3   OH244089   4.362   2.556  11.986 -0.1437  0.3222 -0.8309
 7533TIP3    H144090   4.407   2.471  11.986  1.0976  0.9385 -0.4426
 7533TIP3    H244091   4.304   2.554  11.911 -1.1575 -1.3801 -0.0544
 7534TIP3   OH244092   3.374   3.656   3.166  0.1557 -0.0612  0.3700
 7534TIP3    H144093   3.341   3.600   3.096 -0.8377 -0.8857  1.4308
 7534TIP3    H244094   3.468   3.638   3.169 -0.2354 -2.4208  1.2223
 7535TIP3   OH244095   3.475   2.289  14.538 -0.2321 -0.7215 -0.3026
 7535TIP3    H144096   3.570   2.305  14.541 -0.5428  1.9878 -1.8308
 7535TIP3    H244097   3.464   2.225  14.468  0.4568 -0.8163 -0.3355
 7536TIP3   OH244098   4.850   5.560  16.355 -0.2570 -0.1874 -0.1800
 7536TIP3    H144099   4.831   5.653  16.351 -2.7907 -0.4826  2.1218
 7536TIP3    H244100   4.888   5.546  16.441  0.9785 -1.1787 -0.8552
 7537TIP3   OH244101   6.292   1.169  12.187 -0.0908  0.0339  0.2426
 7537TIP3    H144102   6.297   1.232  12.115 -1.3008 -0.7880 -0.6029
 7537TIP3    H244103   6.379   1.172  12.228 -0.3064  2.7038  0.6603
 7538TIP3   OH244104   5.409   2.346  14.080  0.1706 -0.2566  0.5520
 7538TIP3    H144105   5.356   2.269  14.057  1.7414 -1.3003  0.3094
 7538TIP3    H244106   5.432   2.333  14.172  0.8592 -0.3284  0.3693
 7539TIP3   OH244107   6.849   3.160   2.233  0.0251  0.3097 -0.4024
 7539TIP3    H144108   6.758   3.179   2.207  0.1189  2.1676  0.4564
 7539TIP3    H244109   6.864   3.070   2.202 -2.0735 -0.0304 -0.6293
 7540TIP3   OH244110   2.774   5.350   2.806 -0.6926 -0.1016  0.5554
 7540TIP3    H144111   2.779   5.426   2.748 -1.0152 -1.0714 -0.7899
 7540TIP3    H244112   2.749   5.277   2.749 -1.2143 -1.0697  1.9470
 7541TIP3   OH244113   0.719   3.744  15.899  0.4357 -0.4320 -0.4525
 7541TIP3    H144114   0.738   3.735  15.805 -0.1719 -1.6604 -0.4806
 7541TIP3    H244115   0.797   3.784  15.936  1.6596 -2.1035 -1.1217
 7542TIP3   OH244116   2.434   3.514   4.045 -0.2956  0.3011  0.6213
 7542TIP3    H144117   2.481   3.521   4.128  0.1037 -2.1001  0.6696
 7542TIP3    H244118   2.503   3.519   3.978 -0.4732  0.9567  0.4799
 7543TIP3   OH244119   5.411   6.773  14.720 -0.3612  0.1409  0.3317
 7543TIP3    H144120   5.418   6.856  14.672 -0.7319 -0.1953 -0.3168
 7543TIP3    H244121   5.317   6.761  14.733 -0.3956 -0.7967 -0.6855
 7544TIP3   OH244122   6.277   0.172  16.259  0.0764  0.4945  0.3735
 7544TIP3    H144123   6.327   0.182  16.178 -0.4418  1.6132  0.1725
 7544TIP3    H244124   6.341   0.186  16.329  0.2595  0.8700  0.1343
 7545TIP3   OH244125   0.277   4.392  15.994 -0.3914 -0.1989 -0.2808
 7545TIP3    H144126   0.279   4.297  15.982  2.0501 -0.4695  1.4778
 7545TIP3    H244127   0.240   4.404  16.082 -0.6222  0.4874 -0.4697
 7546TIP3   OH244128   1.838   2.116   5.218 -0.4905 -0.0774  0.2843
 7546TIP3    H144129   1.815   2.032   5.179 -0.6499  0.3509 -0.5794
 7546TIP3    H244130   1.900   2.154   5.156 -1.7826  1.2194 -0.2719
 7547TIP3   OH244131   2.189   4.560  14.684 -0.1094 -0.2226 -0.5311
 7547TIP3    H144132   2.192   4.557  14.588  0.3632 -1.1583 -0.5041
 7547TIP3    H244133   2.132   4.488  14.708  1.3153 -1.2249 -0.0657
 7548TIP3   OH244134   4.258   6.290  13.364  0.5860  0.5069  0.1054
 7548TIP3    H144135   4.299   6.352  13.425  2.7273 -1.4195  0.7532
 7548TIP3    H244136   4.174   6.270  13.405  0.9210  1.1272  1.1461
 7549TIP3   OH244137   5.273   3.034   5.237  0.3348  0.2351  0.3961
 7549TIP3    H144138   5.212   2.960   5.240 -0.1830  0.6443  0.1807
 7549TIP3    H244139   5.268   3.064   5.146  1.5681 -0.3068  0.1295
 7550TIP3   OH244140   4.232   3.480  13.272 -0.0281 -0.4024 -0.4557
 7550TIP3    H144141   4.239   3.563  13.319 -1.9247 -0.0055 -0.8165
 7550TIP3    H244142   4.320   3.464  13.238  0.1948  1.8490 -1.0488
 7551TIP3   OH244143   3.545   0.846  13.515 -0.2369  0.8645 -0.3947
 7551TIP3    H144144   3.549   0.754  13.542  0.3579  0.6455 -1.1940
 7551TIP3    H244145   3.629   0.862  13.471 -0.0530  1.9775  0.3206
 7552TIP3   OH244146   4.089   0.855   0.386 -0.9956  0.4067  0.1521
 7552TIP3    H144147   3.997   0.833   0.401 -0.6035 -1.6961 -0.1642
 7552TIP3    H244148   4.097   0.859   0.290 -0.2730 -2.0988  0.0391
 7553TIP3   OH244149   0.398   4.384   1.990 -0.2212 -0.4155 -0.0651
 7553TIP3    H144150   0.320   4.339   1.958  1.7109 -1.9569 -3.0713
 7553TIP3    H244151   0.438   4.323   2.052 -1.4228  0.5248  1.7642
 7554TIP3   OH244152   1.651   4.910   2.612  0.2571 -0.2304  0.0707
 7554TIP3    H144153   1.648   4.967   2.689  0.9345 -2.2157  1.6759
 7554TIP3    H244154   1.562   4.910   2.577 -0.0600  0.7353  0.8495
 7555TIP3   OH244155   6.749   4.188  12.502  0.6649  0.0528 -0.4624
 7555TIP3    H144156   6.716   4.099  12.511 -0.5236  0.4034 -1.0998
 7555TIP3    H244157   6.712   4.219  12.419  1.5837  0.9172 -0.5682
 7556TIP3   OH244158   0.208   6.650  16.359  0.1442 -0.8847 -0.7236
 7556TIP3    H144159   0.245   6.617  16.277 -0.6022  0.7166 -1.7619
 7556TIP3    H244160   0.273   6.712  16.392 -0.5226  0.1285 -1.2835
 7557TIP3   OH244161   2.604   1.312  13.748  0.7018 -0.5997  0.0505
 7557TIP3    H144162   2.570   1.365  13.821 -3.3622 -2.1244 -0.4380
 7557TIP3    H244163   2.648   1.239  13.791  1.8152  0.4816  0.8233
 7558TIP3   OH244164   5.332   3.677   0.862  0.0498  0.2717 -0.4296
 7558TIP3    H144165   5.319   3.755   0.917 -0.6776 -2.0659  3.0618
 7558TIP3    H244166   5.257   3.678   0.802 -1.6719  0.7899  1.5872
 7559TIP3   OH244167   5.868   4.142   4.700  0.5154 -0.5901  0.4812
 7559TIP3    H144168   5.899   4.176   4.784  3.0640  0.3242 -0.7554
 7559TIP3    H244169   5.900   4.052   4.698  1.5876 -0.2050 -0.0412
 7560TIP3   OH244170   3.676   2.551  15.947  0.1419  0.1567  0.3231
 7560TIP3    H144171   3.641   2.470  15.984 -0.3278 -0.2460 -0.9564
 7560TIP3    H244172   3.757   2.525  15.903 -0.1097  0.3510 -0.2586
 7561TIP3   OH244173   4.665   3.922   2.220 -0.4749  0.7980 -0.1081
 7561TIP3    H144174   4.623   3.837   2.223  1.2044 -0.0489  1.8289
 7561TIP3    H244175   4.677   3.940   2.127 -1.5650 -0.7119 -0.5687
 7562TIP3   OH244176   5.920   4.266  15.589  0.1661 -0.2859 -0.0638
 7562TIP3    H144177   6.007   4.229  15.599 -0.2961 -1.2346  0.5121
 7562TIP3    H244178   5.895   4.295  15.677  0.0441  0.3352 -0.2932
 7563TIP3   OH244179   0.260   0.448  12.381  0.5933  0.7138 -0.0877
 7563TIP3    H144180   0.345   0.410  12.404 -0.7426 -0.9444  2.6422
 7563TIP3    H244181   0.221   0.385  12.321  0.4152  0.2670  0.4781
 7564TIP3   OH244182   5.140   0.230  13.502 -0.3767 -0.5945  0.5550
 7564TIP3    H144183   5.092   0.155  13.536  0.3417 -0.7253  1.3111
 7564TIP3    H244184   5.174   0.275  13.580  1.1635 -0.8005  0.0466
 7565TIP3   OH244185   3.704   6.805   0.492 -0.2866  0.5128 -0.6290
 7565TIP3    H144186   3.695   6.790   0.586 -1.4475  1.1860 -0.6204
 7565TIP3    H244187   3.790   6.769   0.471 -0.2495 -0.1628  0.5794
 7566TIP3   OH244188   1.097   2.275  16.536  0.0365  0.2684 -0.1154
 7566TIP3    H144189   1.151   2.213  16.586  0.3989 -0.7493 -1.6945
 7566TIP3    H244190   1.161   2.326  16.486 -0.3892 -0.9970 -2.0631
 7567TIP3   OH244191   0.056   0.819  11.428 -0.4609 -0.1716 -0.2593
 7567TIP3    H144192  -0.015   0.870  11.389  0.7778  0.4112 -1.8690
 7567TIP3    H244193   0.040   0.729  11.400 -1.1646 -0.2450  0.3416
 7568TIP3   OH244194   6.345   4.465   3.119  0.3596  0.1400 -0.0922
 7568TIP3    H144195   6.296   4.536   3.161 -0.3559 -0.1686 -0.3815
 7568TIP3    H244196   6.326   4.388   3.173 -1.2401 -0.4422 -1.4004
 7569TIP3   OH244197   3.088   2.122   4.217  0.3996 -0.3306  0.5882
 7569TIP3    H144198   3.088   2.072   4.298 -0.4443  0.6816  1.2374
 7569TIP3    H244199   3.096   2.213   4.245 -1.4818  0.1661 -0.3454
 7570TIP3   OH244200   0.488   4.374  12.346 -0.2401  0.3637 -0.1550
 7570TIP3    H144201   0.543   4.311  12.394 -1.8096 -0.8339  0.1520
 7570TIP3    H244202   0.512   4.459  12.383  1.2487 -0.1235  0.1045
 7571TIP3   OH244203   0.520   3.884   0.088  0.0267 -0.4480 -0.0368
 7571TIP3    H144204   0.602   3.836   0.088  0.5357  0.2815  2.3533
 7571TIP3    H244205   0.476   3.857   0.169 -0.6950  1.3673  0.2281
 7572TIP3   OH244206   0.800   6.533   0.825 -0.3262  0.2694 -0.8911
 7572TIP3    H144207   0.801   6.528   0.729 -2.0913 -3.0047 -0.8840
 7572TIP3    H244208   0.728   6.475   0.851  0.0700  1.0871  2.4487
 7573TIP3   OH244209   2.620   1.282  15.111  0.0862  0.2471  0.4238
 7573TIP3    H144210   2.547   1.260  15.169  1.0297 -0.5828  1.3411
 7573TIP3    H244211   2.595   1.366  15.073 -2.5333 -1.1944 -1.3527
 7574TIP3   OH244212   2.792   5.844   1.327 -0.0367  0.1855  0.1456
 7574TIP3    H144213   2.781   5.937   1.310  0.4685  0.2704  0.2545
 7574TIP3    H244214   2.731   5.825   1.398 -0.4711  0.3341 -0.1879
 7575TIP3   OH244215   5.504   1.265  15.254  0.0282 -0.3424 -0.4229
 7575TIP3    H144216   5.426   1.306  15.292  1.5398  1.2593  1.1416
 7575TIP3    H244217   5.534   1.205  15.322  0.1603 -0.9950 -1.0457
 7576TIP3   OH244218   4.504   3.047   0.966 -0.4544 -0.0873  0.4716
 7576TIP3    H144219   4.469   3.029   0.879  0.0413  1.7430 -0.1388
 7576TIP3    H244220   4.538   3.136   0.961  0.6355 -0.3497  2.2079
 7577TIP3   OH244221   3.259   0.675  14.799  0.1647 -0.1851 -0.0036
 7577TIP3    H144222   3.169   0.643  14.807  0.1920 -1.0282 -2.2204
 7577TIP3    H244223   3.251   0.756  14.749  0.6306 -0.3768 -0.3975
 7578TIP3   OH244224   4.209   2.440   3.919  0.1734 -0.0583 -0.4437
 7578TIP3    H144225   4.216   2.374   3.988 -1.0527  0.8470  0.6007
 7578TIP3    H244226   4.299   2.471   3.906  0.3126  0.4829  1.5091
 7579TIP3   OH244227   2.787   6.731  15.346 -0.3593  0.2449 -0.6618
 7579TIP3    H144228   2.842   6.808  15.347  0.2794 -0.1747 -1.7271
 7579TIP3    H244229   2.721   6.748  15.279 -0.9298  0.3273 -0.0976
 7580TIP3   OH244230   5.249   4.652  13.291  0.2899 -0.0391  0.5170
 7580TIP3    H144231   5.216   4.672  13.379  0.9390 -0.5439  0.8822
 7580TIP3    H244232   5.334   4.696  13.286  0.6286 -0.6821  0.4462
 7581TIP3   OH244233   3.633   6.134   4.573 -0.4186  0.5431  0.2790
 7581TIP3    H144234   3.690   6.091   4.636 -0.4734 -0.0239 -0.0569
 7581TIP3    H244235   3.552   6.083   4.575  0.2260 -0.6602 -1.6245
 7582TIP3   OH244236   0.421   2.051  14.340 -0.1872 -0.3473 -0.2281
 7582TIP3    H144237   0.395   2.137  14.308 -1.2738 -0.2508  0.8327
 7582TIP3    H244238   0.352   1.992  14.309 -0.1612 -0.5960  0.1731
 7583TIP3   OH244239   2.214   1.659  11.996  0.2204 -0.4402 -0.4013
 7583TIP3    H144240   2.190   1.625  12.082  2.1460  1.3387  0.9250
 7583TIP3    H244241   2.130   1.674  11.952 -0.8184 -0.9352  1.3192
 7584TIP3   OH244242   4.787   2.558  13.897  0.4902  0.1660 -0.2894
 7584TIP3    H144243   4.737   2.606  13.831  0.2618  1.7181  0.9346
 7584TIP3    H244244   4.724   2.542  13.968  1.4189  1.1525  0.8005
 7585TIP3   OH244245   0.410   0.911  15.914  0.2965  0.9009 -0.4902
 7585TIP3    H144246   0.326   0.886  15.875  1.0134  0.6493 -1.9582
 7585TIP3    H244247   0.444   0.978  15.855  0.9086  1.3665  0.3726
 7586TIP3   OH244248   3.386   4.791   5.838 -0.2515  0.0676 -0.0134
 7586TIP3    H144249   3.428   4.731   5.777 -0.8311 -1.8390  1.3511
 7586TIP3    H244250   3.457   4.817   5.898  0.1944  1.5104 -1.1037
 7587TIP3   OH244251   2.069   4.814   5.368  0.2593  0.0496 -0.2099
 7587TIP3    H144252   1.982   4.850   5.351 -0.5502 -2.1987 -1.1759
 7587TIP3    H244253   2.053   4.727   5.405  2.1199  0.7072  2.4723
 7588TIP3   OH244254   4.863   5.137  10.556  0.4135  0.0396  0.1492
 7588TIP3    H144255   4.901   5.224  10.570  0.6482 -0.0320 -0.0534
 7588TIP3    H244256   4.923   5.093  10.496  0.8583 -0.6418  1.0742
 7589TIP3   OH244257   3.067   5.339   2.646  0.4928 -0.1096 -0.1674
 7589TIP3    H144258   3.070   5.372   2.556 -2.6085 -0.9509 -0.7037
 7589TIP3    H244259   3.094   5.247   2.639 -0.4467 -0.3806 -0.4088
 7590TIP3   OH244260   1.569   0.534  11.174  0.2317 -0.1404  0.2675
 7590TIP3    H144261   1.560   0.444  11.207  1.4353  0.4650  2.4258
 7590TIP3    H244262   1.485   0.553  11.132  1.0064 -3.3667 -3.3437
 7591TIP3   OH244263   2.852   2.086  16.690 -0.6826  0.0740  0.3226
 7591TIP3    H144264   2.827   1.997  16.717 -0.9565  0.6466  2.0689
 7591TIP3    H244265   2.942   2.095  16.721 -1.0059  0.7566  1.0961
 7592TIP3   OH244266   6.300   4.651  12.604 -0.0019 -0.1487  0.2502
 7592TIP3    H144267   6.257   4.695  12.532  0.2362 -1.0721 -0.4800
 7592TIP3    H244268   6.387   4.629  12.570 -0.6277 -2.5354  0.0143
 7593TIP3   OH244269   2.683   5.677   4.843 -0.2572 -0.0867 -0.0725
 7593TIP3    H144270   2.621   5.697   4.913  0.5812  0.6922  0.4731
 7593TIP3    H244271   2.631   5.685   4.763 -0.7290  1.1492  0.3318
 7594TIP3   OH244272   0.433   2.027   0.836 -0.0004  0.0029  0.1458
 7594TIP3    H144273   0.481   2.011   0.754  1.2696  0.2993  0.8046
 7594TIP3    H244274   0.496   2.005   0.905 -1.0392 -0.1873  1.0474
 7595TIP3   OH244275   0.371   5.729   1.438 -0.1311  0.1633 -0.3528
 7595TIP3    H144276   0.300   5.794   1.437 -0.1606  0.1404  0.1173
 7595TIP3    H244277   0.431   5.759   1.370 -0.1869  0.6369 -0.1993
 7596TIP3   OH244278   6.067   1.205   2.441  0.3754  0.3873 -0.2261
 7596TIP3    H144279   6.127   1.171   2.374 -0.6560  0.3600 -1.1657
 7596TIP3    H244280   6.061   1.135   2.505 -1.2387 -1.0098 -1.8268
 7597TIP3   OH244281   1.421   2.407  13.794 -0.1927 -0.3008  0.2091
 7597TIP3    H144282   1.345   2.362  13.757  0.1762 -1.2308  0.5537
 7597TIP3    H244283   1.441   2.476  13.730 -0.4038 -1.0118 -0.6478
 7598TIP3   OH244284   4.291   6.289  11.089  0.0219  0.0588  0.3605
 7598TIP3    H144285   4.313   6.197  11.102 -0.6486  0.1237  2.2550
 7598TIP3    H244286   4.287   6.300  10.994  0.6424 -1.7247  0.0975
 7599TIP3   OH244287   0.585   2.153   1.522 -0.2090 -0.2175  0.2774
 7599TIP3    H144288   0.671   2.171   1.560 -0.5468  0.2318  0.8551
 7599TIP3    H244289   0.565   2.231   1.470 -0.1119 -0.4811 -0.1662
 7600TIP3   OH244290   1.390   6.343  16.032 -1.0204  0.3928 -0.1253
 7600TIP3    H144291   1.431   6.424  16.001 -0.9384  1.1784  1.8606
 7600TIP3    H244292   1.337   6.312  15.958 -0.3783  1.7885 -1.2107
 7601TIP3   OH244293   1.337   6.052   0.286 -0.2779 -0.4663 -0.1841
 7601TIP3    H144294   1.405   5.987   0.304  0.2146 -0.0405 -0.4791
 7601TIP3    H244295   1.335   6.107   0.365  0.9934  0.6215 -0.8711
 7602TIP3   OH244296   1.497   2.398  12.765  0.1551 -0.0858  0.8822
 7602TIP3    H144297   1.442   2.342  12.820  1.2947 -1.8264  0.3367
 7602TIP3    H244298   1.447   2.408  12.684  0.3943 -1.2179  0.5833
 7603TIP3   OH244299   4.170   2.168   5.971  0.3702  0.1775 -0.1227
 7603TIP3    H144300   4.225   2.138   6.043  1.4681  1.5080 -0.3775
 7603TIP3    H244301   4.108   2.228   6.011 -0.3436 -0.6185  0.0102
 7604TIP3   OH244302   2.108   4.855   2.040 -0.4175  1.0490  0.4188
 7604TIP3    H144303   2.199   4.828   2.032 -0.8067  0.0723 -1.1547
 7604TIP3    H244304   2.076   4.857   1.950 -2.4565 -0.4932  1.0400
 7605TIP3   OH244305   3.180   6.368   6.213  0.0151  0.4938 -0.0402
 7605TIP3    H144306   3.160   6.462   6.218  1.5353  0.9491 -1.5782
 7605TIP3    H244307   3.221   6.349   6.298 -2.0791  0.7082  1.0819
 7606TIP3   OH244308   1.771   2.568  13.877 -0.4757  0.1479  0.1225
 7606TIP3    H144309   1.727   2.633  13.932  0.3538 -1.1719  2.4920
 7606TIP3    H244310   1.849   2.613  13.846 -0.8573  0.8686  0.1620
 7607TIP3   OH244311   6.721   2.301  15.765  0.4281 -0.6177 -0.5401
 7607TIP3    H144312   6.747   2.370  15.705  1.2671  0.3409  0.8881
 7607TIP3    H244313   6.803   2.271  15.805 -0.2091 -0.4810  0.9199
 7608TIP3   OH244314   5.919   2.667  11.193 -0.0736 -0.1393 -0.0177
 7608TIP3    H144315   5.884   2.665  11.282 -0.5050 -2.0793 -0.1979
 7608TIP3    H244316   5.992   2.729  11.197  0.4113 -0.7790  1.8782
 7609TIP3   OH244317   5.276   5.619  14.746  1.0795  0.2571  0.6899
 7609TIP3    H144318   5.285   5.701  14.698 -0.1091  0.9044  1.5275
 7609TIP3    H244319   5.258   5.645  14.836  0.3328 -0.9142  0.9097
 7610TIP3   OH244320   3.476   2.044  13.386  0.8506 -0.0356  0.0613
 7610TIP3    H144321   3.390   2.050  13.343  0.6378 -0.3168  0.4474
 7610TIP3    H244322   3.501   2.135  13.402  0.4610  0.0364  0.2709
 7611TIP3   OH244323   4.789   2.549   5.408  0.0292  0.3259  0.0928
 7611TIP3    H144324   4.712   2.592   5.446  0.7171  2.0917 -0.4114
 7611TIP3    H244325   4.758   2.517   5.323 -0.4323  0.0635  0.3572
 7612TIP3   OH244326   2.855   2.100   0.583  0.0597 -0.4431 -0.0986
 7612TIP3    H144327   2.840   2.046   0.506 -1.8356 -0.2617  0.1136
 7612TIP3    H244328   2.866   2.037   0.655  0.9176 -0.5886 -0.3470
 7613TIP3   OH244329   4.661   2.184  17.005 -0.4747  0.7888  0.2444
 7613TIP3    H144330   4.630   2.227  17.085  0.9393 -1.5838  2.2130
 7613TIP3    H244331   4.668   2.091  17.029  0.5002  0.0579 -2.5141
 7614TIP3   OH244332   2.843   1.591  14.423  0.1624 -0.1218  0.5027
 7614TIP3    H144333   2.866   1.676  14.460 -1.4777 -0.5910  2.8062
 7614TIP3    H244334   2.894   1.528  14.474 -0.0730 -0.6297  0.1201
 7615TIP3   OH244335   2.000   2.924   4.414  0.6517 -0.1632 -0.2085
 7615TIP3    H144336   2.050   2.854   4.455  1.6613 -0.0336 -1.1782
 7615TIP3    H244337   2.047   3.004   4.436 -0.5562  0.2631  0.9882
 7616TIP3   OH244338   0.212   0.751   4.692 -0.1035  0.1764  0.2737
 7616TIP3    H144339   0.255   0.741   4.777 -2.0024  1.1864  1.4247
 7616TIP3    H244340   0.120   0.728   4.709 -0.2518 -1.0892 -1.8808
 7617TIP3   OH244341   2.485   1.149  12.970 -0.2045  0.0413 -0.6933
 7617TIP3    H144342   2.510   1.089  12.900  1.0622  0.9055 -1.0181
 7617TIP3    H244343   2.395   1.126  12.990 -1.1856  0.8078 -3.7159
 7618TIP3   OH244344   3.149   1.787   1.015  0.1470 -0.7591 -0.4333
 7618TIP3    H144345   3.175   1.825   1.099 -1.0845  1.1716 -0.8655
 7618TIP3    H244346   3.186   1.846   0.950 -0.5645 -1.1465 -1.1935
 7619TIP3   OH244347   0.520   2.923   2.642  0.0726 -0.1566  0.2773
 7619TIP3    H144348   0.433   2.885   2.655  1.2851 -3.2477  0.2223
 7619TIP3    H244349   0.548   2.950   2.729 -1.0921  1.4257  0.2165
 7620TIP3   OH244350   3.770   0.595  13.349  0.1013 -0.2550 -0.4701
 7620TIP3    H144351   3.786   0.512  13.306  0.8498 -0.2747 -0.1619
 7620TIP3    H244352   3.718   0.573  13.426  0.0319 -0.3933 -0.5569
 7621TIP3   OH244353   3.844   1.382   4.335  0.9541 -0.0108  0.0676
 7621TIP3    H144354   3.822   1.408   4.424 -0.6235 -1.7857  0.2721
 7621TIP3    H244355   3.799   1.445   4.279  0.4954  0.0845  0.5372
 7622TIP3   OH244356   1.731   3.055  14.062 -0.2742  0.3299 -0.6093
 7622TIP3    H144357   1.739   3.034  13.969  0.2158  1.1861 -0.7744
 7622TIP3    H244358   1.661   2.998  14.094 -0.6109  0.1959 -1.5571
 7623TIP3   OH244359   6.222   0.434  14.615 -0.6796  0.2109 -0.1599
 7623TIP3    H144360   6.199   0.522  14.646 -0.5550  0.2680 -0.2269
 7623TIP3    H244361   6.137   0.391  14.600 -0.9115 -1.1550  3.8305
 7624TIP3   OH244362   6.639   3.245  14.311  0.3433  0.3581  0.3551
 7624TIP3    H144363   6.639   3.208  14.223 -0.5392 -0.3622  0.6393
 7624TIP3    H244364   6.613   3.172  14.368  3.9708 -0.1503  1.6666
 7625TIP3   OH244365   0.532   5.511  12.241  0.3373 -0.6399 -0.2366
 7625TIP3    H144366   0.511   5.593  12.196 -1.2682 -0.6806  0.3664
 7625TIP3    H244367   0.628   5.510  12.246  0.3934  1.5755  0.3919
 7626TIP3   OH244368   4.124   5.257   3.359 -0.6143  0.6626 -0.2091
 7626TIP3    H144369   4.219   5.248   3.353 -0.4257  1.7435  0.8070
 7626TIP3    H244370   4.099   5.300   3.277 -0.2736  0.1541 -0.5878
 7627TIP3   OH244371   3.562   6.817  16.608 -0.3443  0.1404  0.3858
 7627TIP3    H144372   3.564   6.832  16.513 -2.6386  2.3879  0.5762
 7627TIP3    H244373   3.605   6.732  16.620  0.2760 -0.0854 -2.6102
 7628TIP3   OH244374   6.725   4.167   2.393 -0.1119 -0.2097  0.4530
 7628TIP3    H144375   6.753   4.102   2.328 -0.9573  0.8406 -1.0349
 7628TIP3    H244376   6.713   4.117   2.474 -0.0262 -1.7582 -0.4537
 7629TIP3   OH244377   5.586   5.585   1.491 -0.1468  0.0511  0.4893
 7629TIP3    H144378   5.527   5.639   1.439  2.8028  1.5712 -1.5976
 7629TIP3    H244379   5.597   5.634   1.573  0.3434  1.2726 -0.2646
 7630TIP3   OH244380   2.468   6.115  16.328 -0.2844 -0.2684 -0.2549
 7630TIP3    H144381   2.516   6.152  16.403  0.7602 -0.0706 -1.0017
 7630TIP3    H244382   2.376   6.123  16.353  0.0386 -0.0884  0.9561
 7631TIP3   OH244383   0.020   2.149   3.284  0.2444  0.2141 -0.7151
 7631TIP3    H144384   0.112   2.122   3.279  1.2506  2.7073  1.7057
 7631TIP3    H244385  -0.023   2.081   3.335  1.4521  0.4549  0.6632
 7632TIP3   OH244386   1.194   6.161   5.166 -0.4316  0.3139  0.0938
 7632TIP3    H144387   1.109   6.120   5.149 -0.2045 -0.2413  0.3100
 7632TIP3    H244388   1.243   6.150   5.084 -0.2001 -0.2656  0.3076
 7633TIP3   OH244389   6.051   5.819  13.201 -0.5118  0.2234  0.0222
 7633TIP3    H144390   6.018   5.774  13.279  0.2840  1.8528  1.3642
 7633TIP3    H244391   5.972   5.843  13.152 -0.9751 -1.9605 -0.3996
 7634TIP3   OH244392   5.537   0.925  15.617 -0.7568  0.0594 -0.0491
 7634TIP3    H144393   5.558   1.018  15.610  1.5798 -0.4568 -0.8531
 7634TIP3    H244394   5.611   0.880  15.575 -1.9485 -2.1603  0.0452
 7635TIP3   OH244395   0.508   2.387  14.969 -0.2221  0.1054  0.3290
 7635TIP3    H144396   0.551   2.454  15.023 -1.1741  1.8460 -0.9349
 7635TIP3    H244397   0.532   2.410  14.880 -0.7522 -1.1393 -0.1514
 7636TIP3   OH244398   0.289   0.509  16.968 -0.5606 -0.0190 -0.3800
 7636TIP3    H144399   0.345   0.433  16.951 -1.2443 -0.6861  0.2708
 7636TIP3    H244400   0.209   0.491  16.919 -0.9687 -0.0213  0.2717
 7637TIP3   OH244401   5.607   4.908   4.210  0.1518  0.0092  0.6325
 7637TIP3    H144402   5.532   4.909   4.270 -0.1996 -1.3289  0.2558
 7637TIP3    H244403   5.608   4.995   4.171  0.5609  1.0191  2.7666
 7638TIP3   OH244404   6.692   4.574  12.473  0.1518 -0.5484  0.0970
 7638TIP3    H144405   6.628   4.513  12.508  0.3248 -0.6790  0.1840
 7638TIP3    H244406   6.733   4.614  12.549 -0.5880  0.3394  0.0434
 7639TIP3   OH244407   3.312   2.216   5.257  0.2531 -0.1544  0.0010
 7639TIP3    H144408   3.304   2.249   5.168  2.7425 -0.6151 -0.4725
 7639TIP3    H244409   3.366   2.137   5.249 -0.3355 -0.7868  1.8009
 7640TIP3   OH244410   6.766   5.087   5.467 -0.7863  0.4568 -0.4490
 7640TIP3    H144411   6.732   5.003   5.435  0.5294  0.1253 -1.0207
 7640TIP3    H244412   6.772   5.141   5.388  0.4995  0.3222 -0.4657
 7641TIP3   OH244413   4.249   2.580  13.854 -0.9566 -0.2803  1.1843
 7641TIP3    H144414   4.222   2.670  13.868 -1.5715 -0.0253 -1.1951
 7641TIP3    H244415   4.167   2.533  13.835 -0.4721 -1.0102  0.8478
 7642TIP3   OH244416   6.404   1.167  13.512  0.1140 -0.2413  0.5631
 7642TIP3    H144417   6.389   1.089  13.566 -1.4551 -0.1670  0.2782
 7642TIP3    H244418   6.496   1.162  13.488  0.1936 -1.6675  1.0750
 7643TIP3   OH244419   2.540   5.829  16.472 -0.3822  0.4907  0.8382
 7643TIP3    H144420   2.458   5.809  16.427  1.2891 -1.5348 -1.5926
 7643TIP3    H244421   2.571   5.744  16.505  0.4892  1.2947  2.1921
 7644TIP3   OH244422   6.122   6.292  15.861  0.0721 -0.2669 -0.4027
 7644TIP3    H144423   6.189   6.233  15.898  0.0899  0.9478  1.6967
 7644TIP3    H244424   6.046   6.280  15.918 -0.3523  0.7901 -0.7319
 7645TIP3   OH244425   5.304   5.856   0.443 -0.0324 -0.4006 -0.2137
 7645TIP3    H144426   5.381   5.871   0.499  0.5790  0.3140 -1.2107
 7645TIP3    H244427   5.232   5.898   0.490  0.2027 -0.9687  0.6774
 7646TIP3   OH244428   5.796   3.046   1.925 -0.1525 -0.2413  0.9590
 7646TIP3    H144429   5.878   3.092   1.912 -0.0914 -0.7962 -0.8009
 7646TIP3    H244430   5.801   2.970   1.867 -2.7925  0.8737 -0.9379
 7647TIP3   OH244431   3.169   6.566   0.985  0.0281 -0.1088 -0.1926
 7647TIP3    H144432   3.184   6.520   0.902  0.3479 -1.7654  0.7253
 7647TIP3    H244433   3.252   6.557   1.032  0.4832  2.4069 -0.3716
 7648TIP3   OH244434   5.855   2.263  16.776 -0.2157  0.4680 -0.2968
 7648TIP3    H144435   5.869   2.247  16.683 -1.7693 -1.7398 -0.2374
 7648TIP3    H244436   5.768   2.226  16.793  0.1042  0.6778  2.0516
 7649TIP3   OH244437   4.065   4.680  13.269 -0.0144  0.2315 -0.2197
 7649TIP3    H144438   4.038   4.683  13.177 -0.6732  2.8590 -0.0024
 7649TIP3    H244439   4.122   4.603  13.274 -0.5372 -0.4083 -2.6370
 7650TIP3   OH244440   4.269   5.026  13.635 -0.5213  0.9215  0.0405
 7650TIP3    H144441   4.178   4.999  13.644 -0.6516  1.5473  0.7060
 7650TIP3    H244442   4.305   5.020  13.723 -0.0012  0.9501 -0.1690
 7651TIP3   OH244443   5.254   3.240   1.841  0.4178 -0.1383  0.2034
 7651TIP3    H144444   5.216   3.259   1.755  0.7719 -3.1302 -0.7265
 7651TIP3    H244445   5.180   3.215   1.895  0.5957 -3.6506 -0.9326
 7652TIP3   OH244446   4.496   0.438   2.978 -0.3901  0.6019 -0.0898
 7652TIP3    H144447   4.520   0.502   3.045  0.7131  0.2424 -0.1245
 7652TIP3    H244448   4.409   0.408   3.004 -0.6981  1.6978  0.2315
 7653TIP3   OH244449   6.749   3.235  11.725 -0.2223  0.3515  0.3374
 7653TIP3    H144450   6.760   3.230  11.820 -2.5545 -1.5928  0.5981
 7653TIP3    H244451   6.741   3.328  11.706  2.0819  0.9225  1.7388
 7654TIP3   OH244452   4.232   5.543   3.216 -0.2383 -0.0404  0.4514
 7654TIP3    H144453   4.326   5.528   3.209 -0.1633  0.0524  1.1478
 7654TIP3    H244454   4.221   5.636   3.196 -0.0708  0.1499  1.2068
 7655TIP3   OH244455   3.044   5.393   5.866 -0.6413  0.5278  0.1008
 7655TIP3    H144456   3.007   5.324   5.812  0.1544  1.2859 -1.4931
 7655TIP3    H244457   2.985   5.400   5.941 -2.8693  0.6957 -1.5882
 7656TIP3   OH244458   5.645   4.399   1.455  0.2285 -0.0146 -0.0182
 7656TIP3    H144459   5.715   4.448   1.413 -1.3946  1.3225 -1.2879
 7656TIP3    H244460   5.615   4.454   1.527  1.2965 -1.1676  1.3710
 7657TIP3   OH244461   4.074   2.275  13.591 -0.0563  0.7041 -0.2394
 7657TIP3    H144462   4.050   2.193  13.634  0.3249  1.9549  2.5301
 7657TIP3    H244463   4.167   2.265  13.571  0.0523  0.5452  0.3274
 7658TIP3   OH244464   3.029   6.459   5.772 -0.2385 -0.1919  0.0155
 7658TIP3    H144465   3.002   6.384   5.824 -0.6094  1.5402  2.4347
 7658TIP3    H244466   2.952   6.516   5.768  0.2452  0.4211 -1.1621
 7659TIP3   OH244467   0.151   2.029  13.965 -0.3939 -0.2428 -0.0613
 7659TIP3    H144468   0.150   1.964  13.895  2.3527 -1.5801  1.0043
 7659TIP3    H244469   0.059   2.055  13.975 -1.0936 -1.2265 -2.9668
 7660TIP3   OH244470   6.663   0.143   5.210  0.1008  0.2224  0.0855
 7660TIP3    H144471   6.721   0.161   5.284 -0.3843  0.9740  0.3006
 7660TIP3    H244472   6.720   0.148   5.133  0.1282  2.2309  0.1806
 7661TIP3   OH244473   6.639   6.032  12.443  0.4664 -0.0892  0.2189
 7661TIP3    H144474   6.625   5.938  12.451 -1.6236  0.2156  0.6903
 7661TIP3    H244475   6.663   6.061  12.531  0.9862 -0.1381  0.1002
 7662TIP3   OH244476   5.037   6.293  10.571 -0.5654  0.3988 -0.0224
 7662TIP3    H144477   4.982   6.251  10.505  1.1523 -0.3779 -1.0274
 7662TIP3    H244478   5.082   6.221  10.615 -1.7610  0.8813  2.1609
 7663TIP3   OH244479   0.723   6.131  13.938 -0.3861  0.0139 -0.2997
 7663TIP3    H144480   0.800   6.082  13.967  0.2123  1.2090  0.2153
 7663TIP3    H244481   0.697   6.090  13.856 -0.3032 -1.5535  0.4332
 7664TIP3   OH244482   4.620   4.097   1.477  0.5172  0.2059 -0.0810
 7664TIP3    H144483   4.569   4.098   1.558  0.4188 -0.0726 -0.1373
 7664TIP3    H244484   4.676   4.175   1.482 -0.4703  0.9463 -0.3803
 7665TIP3   OH244485   0.263   6.265   3.595  0.6045 -0.2014  0.4195
 7665TIP3    H144486   0.264   6.278   3.500  0.5373 -2.3924  0.0757
 7665TIP3    H244487   0.174   6.238   3.614  0.8599 -0.6498  0.9821
 7666TIP3   OH244488   4.333   4.730  16.835 -0.2581 -0.1739 -0.1904
 7666TIP3    H144489   4.281   4.675  16.777  0.6072 -1.2443  0.0121
 7666TIP3    H244490   4.298   4.818  16.822 -0.0521 -0.3557 -2.4056
 7667TIP3   OH244491   5.118   3.808   1.064 -0.7188 -0.1501  0.0106
 7667TIP3    H144492   5.088   3.832   0.976  1.6809  0.4941 -0.6921
 7667TIP3    H244493   5.174   3.881   1.091 -0.6462 -0.7944  1.7003
 7668TIP3   OH244494   6.593   3.209  11.069 -0.1224 -0.2313 -0.0438
 7668TIP3    H144495   6.614   3.290  11.023  2.2686 -1.1620 -0.7997
 7668TIP3    H244496   6.664   3.149  11.044 -1.5342 -2.4040  0.8570
 7669TIP3   OH244497   5.484   2.283  13.498  0.6197 -0.1238 -0.4462
 7669TIP3    H144498   5.555   2.227  13.464  0.4636 -0.1827 -0.6799
 7669TIP3    H244499   5.526   2.368  13.512  0.6535 -0.0494 -0.9529
 7670TIP3   OH244500   6.486   0.212   2.778 -0.1465 -0.2989 -0.2657
 7670TIP3    H144501   6.398   0.243   2.798  0.3252 -0.2590  2.0244
 7670TIP3    H244502   6.524   0.188   2.863  1.5842 -1.6167 -1.3173
 7671TIP3   OH244503   6.053   0.331   0.298 -0.1380 -0.1496 -0.0263
 7671TIP3    H144504   6.110   0.393   0.344  1.6475 -2.5963  1.2906
 7671TIP3    H244505   5.977   0.321   0.356  0.5523 -0.7089  0.8206
 7672TIP3   OH244506   0.816   5.069   0.457  0.5327 -0.4689  0.3506
 7672TIP3    H144507   0.880   5.077   0.387 -1.7104 -0.8122 -1.8858
 7672TIP3    H244508   0.779   5.157   0.467  0.2170 -0.6111  0.4680
 7673TIP3   OH244509   5.469   5.709   4.352  0.2060 -0.4432  0.0174
 7673TIP3    H144510   5.452   5.673   4.439 -0.6206 -0.4972 -0.1587
 7673TIP3    H244511   5.516   5.639   4.306 -3.6220 -2.5312 -1.1997
 7674TIP3   OH244512   3.672   2.058  11.249 -0.1997 -0.4858  0.0244
 7674TIP3    H144513   3.628   2.108  11.180  2.0137 -0.5508 -1.5175
 7674TIP3    H244514   3.765   2.070  11.232  0.4082 -2.4965  1.5804
 7675TIP3   OH244515   5.754   0.155   0.390  0.0734  0.1567  0.1332
 7675TIP3    H144516   5.781   0.199   0.471 -2.1393  2.4108 -0.2533
 7675TIP3    H244517   5.688   0.212   0.352 -2.4197 -3.0988 -0.8994
 7676TIP3   OH244518   4.447   1.319   1.041 -0.0019  0.7899  0.2542
 7676TIP3    H144519   4.467   1.230   1.069  1.4095  1.7762  2.7221
 7676TIP3    H244520   4.356   1.333   1.068 -0.4694 -0.0768 -0.7842
 7677TIP3   OH244521   1.781   6.315   5.156 -0.3847  0.2422  0.0527
 7677TIP3    H144522   1.781   6.295   5.250 -1.2486  0.3316  0.0833
 7677TIP3    H244523   1.725   6.392   5.149  0.3037  0.7042 -0.4509
 7678TIP3   OH244524   0.610   2.596  12.044 -0.2592  0.3229 -0.7980
 7678TIP3    H144525   0.584   2.585  11.953 -2.2595  0.7922 -0.3436
 7678TIP3    H244526   0.677   2.529  12.059 -0.6794 -0.4756 -2.3147
 7679TIP3   OH244527   1.081   6.823  14.614 -0.1717 -0.1117 -0.1024
 7679TIP3    H144528   1.007   6.883  14.607  0.4812  0.5356 -1.7942
 7679TIP3    H244529   1.063   6.755  14.549 -0.3288 -1.1889  1.0048
 7680TIP3   OH244530   0.662   3.857  15.103  0.2811  0.4109  0.1778
 7680TIP3    H144531   0.641   3.785  15.042  0.8004 -0.0850  0.5767
 7680TIP3    H244532   0.756   3.848  15.119  0.4108  1.3715 -0.0034
 7681TIP3   OH244533   6.837   5.858  14.725 -0.0996 -0.0471  0.0664
 7681TIP3    H144534   6.912   5.798  14.725 -0.5751 -0.6482  0.3005
 7681TIP3    H244535   6.839   5.898  14.638  1.1408  0.7747  0.4372
 7682TIP3   OH244536   6.128   1.078  11.269 -0.2691 -0.6003  0.1687
 7682TIP3    H144537   6.159   1.112  11.353 -3.3302 -0.9208  1.5615
 7682TIP3    H244538   6.135   1.152  11.209 -0.5006  0.4786  1.4226
 7683TIP3   OH244539   1.122   4.909   0.304 -0.0846  0.6085 -0.3433
 7683TIP3    H144540   1.047   4.878   0.253 -0.6772  0.5692  0.5157
 7683TIP3    H244541   1.122   5.004   0.292 -1.4084  0.8314  1.0867
 7684TIP3   OH244542   0.699   0.507   3.078  0.2286  0.4622  0.1410
 7684TIP3    H144543   0.719   0.517   2.985  0.2053 -0.8857 -0.0241
 7684TIP3    H244544   0.611   0.545   3.087 -0.0696 -0.0279 -0.5383
 7685TIP3   OH244545   1.476   2.976  11.691  0.0361 -0.2758 -0.6869
 7685TIP3    H144546   1.459   2.953  11.599  3.5793  0.2885 -1.6156
 7685TIP3    H244547   1.503   2.894  11.731 -0.0185 -0.2336 -0.5658
 7686TIP3   OH244548   4.797   5.388  15.587 -0.5797 -0.2814  0.3720
 7686TIP3    H144549   4.831   5.473  15.559 -0.2800 -0.4077  0.3427
 7686TIP3    H244550   4.843   5.369  15.668  0.9796 -1.3939 -0.7120
 7687TIP3   OH244551   1.963   3.666   6.020 -0.1293  0.6322  0.1462
 7687TIP3    H144552   2.052   3.646   5.992 -0.7503  0.0291 -1.5241
 7687TIP3    H244553   1.915   3.584   6.008 -1.1026  1.1844  0.1678
 7688TIP3   OH244554   3.824   0.844  15.195 -0.2796  0.2611 -0.6212
 7688TIP3    H144555   3.911   0.834  15.235 -0.2785 -0.9001 -0.8737
 7688TIP3    H244556   3.818   0.937  15.174  0.8052  0.4065 -0.3654
 7689TIP3   OH244557   4.632   0.379   1.667 -0.1526 -0.6082  0.2763
 7689TIP3    H144558   4.674   0.451   1.619 -0.7816 -0.4167  0.0004
 7689TIP3    H244559   4.675   0.379   1.752 -0.7361  0.6766  0.5996
 7690TIP3   OH244560   6.770   1.789  11.352 -0.1844  0.2279 -0.1362
 7690TIP3    H144561   6.789   1.870  11.305 -0.9141  0.4049 -0.1370
 7690TIP3    H244562   6.843   1.778  11.413  0.0962  0.6925 -0.3887
 7691TIP3   OH244563   6.251   1.309  11.949 -0.3249  0.5366 -0.1228
 7691TIP3    H144564   6.302   1.389  11.963 -1.2713  0.9905  0.8303
 7691TIP3    H244565   6.162   1.333  11.971 -0.5794 -0.8724  0.4981
 7692TIP3   OH244566   1.984   0.850   3.032  0.4020 -0.0566 -0.5052
 7692TIP3    H144567   1.975   0.927   3.088  1.9500 -1.6993  2.2195
 7692TIP3    H244568   1.922   0.787   3.068  2.7275 -1.8046  0.7778
 7693TIP3   OH244569   2.029   3.035  15.076 -0.2610  0.6302 -0.5548
 7693TIP3    H144570   2.079   3.094  15.019 -0.6897  0.5204 -1.0532
 7693TIP3    H244571   1.937   3.056  15.057 -0.4333  1.3880  0.9124
 7694TIP3   OH244572   4.012   0.398  13.120  0.2758 -0.0255  0.6271
 7694TIP3    H144573   3.922   0.385  13.149  0.1164 -0.3725  0.0093
 7694TIP3    H244574   4.010   0.374  13.027  1.1871 -0.8573  0.8102
 7695TIP3   OH244575   0.767   0.773   3.999  0.0740 -0.1401 -0.1971
 7695TIP3    H144576   0.709   0.848   3.989  0.1206  0.2568  2.0270
 7695TIP3    H244577   0.784   0.744   3.909  0.0616  2.4768 -1.1379
 7696TIP3   OH244578   0.412   6.574   1.106 -0.4963 -0.0247  0.2041
 7696TIP3    H144579   0.354   6.611   1.173 -0.7716  2.0013 -1.0711
 7696TIP3    H244580   0.479   6.641   1.093 -0.7214 -0.1525 -1.8682
 7697TIP3   OH244581   0.061   4.611   2.905  0.4762  0.0267  0.1680
 7697TIP3    H144582  -0.008   4.594   2.969  0.4921  1.2480  0.5347
 7697TIP3    H244583   0.039   4.557   2.830  0.0834 -0.9233  0.9413
 7698TIP3   OH244584   2.479   3.767  14.793  0.2185 -0.2633 -0.0264
 7698TIP3    H144585   2.417   3.697  14.814 -0.1937 -0.3190 -1.3259
 7698TIP3    H244586   2.552   3.722  14.749  0.4015  0.0042 -0.0007
 7699TIP3   OH244587   6.707   1.384   3.360 -0.5020 -0.6156  0.1196
 7699TIP3    H144588   6.789   1.406   3.403  0.4875 -0.5471 -1.7321
 7699TIP3    H244589   6.705   1.288   3.359 -0.7789 -0.6207  0.7525
 7700TIP3   OH244590   6.062   3.329   2.654  0.3270  0.0025  0.2317
 7700TIP3    H144591   6.087   3.421   2.645 -1.1429  0.5106  1.0205
 7700TIP3    H244592   6.033   3.304   2.566  0.1472  0.4847  0.1492
 7701TIP3   OH244593   3.540   4.056   5.400 -0.0619 -0.3418 -0.3800
 7701TIP3    H144594   3.523   3.965   5.426  0.0262  0.2601  2.0598
 7701TIP3    H244595   3.453   4.092   5.380 -0.1620 -0.7915 -0.7651
 7702TIP3   OH244596   0.761   1.248  12.787 -0.5555 -0.0997 -0.1768
 7702TIP3    H144597   0.837   1.202  12.822 -1.0258 -1.4539 -0.8650
 7702TIP3    H244598   0.689   1.185  12.795 -1.1065  0.2994 -1.6528
 7703TIP3   OH244599   1.358   1.419  13.269 -0.1217 -0.4108  0.1162
 7703TIP3    H144600   1.362   1.509  13.236 -0.2432  0.1523  1.5528
 7703TIP3    H244601   1.343   1.365  13.191 -0.9106  0.8966 -0.6713
 7704TIP3   OH244602   6.400   5.913  13.830 -0.1373 -0.6854  0.2141
 7704TIP3    H144603   6.338   5.985  13.840  3.6492  2.8279  1.1357
 7704TIP3    H244604   6.427   5.892  13.920  3.3317  1.3780 -0.1516
 7705TIP3   OH244605   3.151   6.018   2.797 -0.3476 -0.3715  0.0475
 7705TIP3    H144606   3.214   5.961   2.753  0.7056  1.1853 -0.5513
 7705TIP3    H244607   3.130   5.973   2.879  0.2780 -1.6960 -0.4953
 7706TIP3   OH244608   0.385   3.335  11.352 -0.6989  0.3407  0.3618
 7706TIP3    H144609   0.443   3.267  11.317 -0.2337  1.6965 -1.6689
 7706TIP3    H244610   0.333   3.364  11.276 -0.5202  2.5891  1.0298
 7707TIP3   OH244611   1.506   4.528  15.692 -0.9036  0.1772  0.0746
 7707TIP3    H144612   1.592   4.570  15.680 -0.8505  0.5459  1.6074
 7707TIP3    H244613   1.523   4.456  15.753 -1.1943 -1.5035 -1.7202
 7708TIP3   OH244614   2.091   5.603   2.934 -0.1752 -0.6280  0.2475
 7708TIP3    H144615   2.154   5.615   3.005  0.0178  0.2917 -0.0692
 7708TIP3    H244616   2.006   5.620   2.974 -0.0441  0.1661  0.2100
 7709TIP3   OH244617   6.733   0.353   4.202 -0.2183  0.0820  0.0317
 7709TIP3    H144618   6.659   0.408   4.227  1.1118  1.8662  0.2366
 7709TIP3    H244619   6.724   0.343   4.107 -2.1829 -2.0547  0.3382
 7710TIP3   OH244620   6.691   0.077  13.926 -0.1660 -0.2966 -0.2395
 7710TIP3    H144621   6.746   0.030  13.988 -0.1188  0.8262  0.5884
 7710TIP3    H244622   6.605   0.082  13.969 -0.2003  0.2616 -0.3674
 7711TIP3   OH244623   3.923   2.581   2.895 -0.6084 -0.3112 -0.4520
 7711TIP3    H144624   3.975   2.561   2.973 -2.0736  1.6585  1.1456
 7711TIP3    H244625   3.863   2.508   2.887  0.2015 -1.0011 -0.3278
 7712TIP3   OH244626   3.906   1.095   5.086  0.2876  0.3446 -0.4857
 7712TIP3    H144627   3.862   1.046   5.017  0.3900  0.1052 -0.3821
 7712TIP3    H244628   3.877   1.185   5.074 -1.0529  0.0357  0.2010
 7713TIP3   OH244629   0.480   3.086  13.449 -0.5635 -0.6080 -0.1415
 7713TIP3    H144630   0.418   3.066  13.379  0.0669  2.4009 -1.7627
 7713TIP3    H244631   0.552   3.025  13.435 -1.5544 -1.7400 -0.4976
 7714TIP3   OH244632   2.701   5.231  11.189 -0.3601  0.5268  0.1716
 7714TIP3    H144633   2.695   5.296  11.119  0.2222  0.0381 -0.3417
 7714TIP3    H244634   2.618   5.185  11.187 -1.0767  1.7131  1.0163
 7715TIP3   OH244635   5.426   0.840  11.190  0.0513 -0.4600 -0.7463
 7715TIP3    H144636   5.376   0.908  11.146 -0.5951 -0.9742 -0.8209
 7715TIP3    H244637   5.361   0.787  11.235  0.6466 -0.3355  0.2962
 7716TIP3   OH244638   3.893   1.571  14.524 -0.6474  0.0998 -0.0051
 7716TIP3    H144639   3.818   1.534  14.476 -0.0138 -1.6675  0.3021
 7716TIP3    H244640   3.884   1.538  14.613 -0.3759  1.2220  0.4580
 7717TIP3   OH244641   2.807   4.521   0.236  0.1600 -0.1446 -0.9386
 7717TIP3    H144642   2.842   4.495   0.322 -3.0669 -2.4979 -0.1605
 7717TIP3    H244643   2.840   4.454   0.176  0.8586  0.4117 -1.1891
 7718TIP3   OH244644   6.135   6.159  12.084 -0.4630  0.6053  0.0855
 7718TIP3    H144645   6.169   6.147  12.172 -2.5724 -0.0840  0.8759
 7718TIP3    H244646   6.119   6.253  12.076  1.9503  1.0251 -0.4971
 7719TIP3   OH244647   2.793   0.308  16.866  0.0416 -0.2538 -0.5387
 7719TIP3    H144648   2.750   0.372  16.809  1.2149  1.3415  0.2822
 7719TIP3    H244649   2.883   0.305  16.834  1.1742  1.8400  2.0346
 7720TIP3   OH244650   2.664   6.011  12.304  0.1153 -0.4287  0.3147
 7720TIP3    H144651   2.669   6.105  12.286  0.5203 -0.5121 -0.0413
 7720TIP3    H244652   2.740   5.993  12.359  0.3926 -0.6477 -0.1262
 7721TIP3   OH244653   0.261   1.529   3.443  0.0998  0.1852 -0.3962
 7721TIP3    H144654   0.244   1.604   3.386 -0.0430  0.8256  0.4604
 7721TIP3    H244655   0.191   1.533   3.509  0.7740 -0.0078  0.3425
 7722TIP3   OH244656   4.340   2.724   1.808  0.6305 -0.3435  0.1008
 7722TIP3    H144657   4.254   2.690   1.834 -0.0993  0.2015 -1.5081
 7722TIP3    H244658   4.341   2.814   1.840  1.1766 -0.7623  1.3190
 7723TIP3   OH244659   2.631   3.561  16.574 -0.4584  0.5139  1.1037
 7723TIP3    H144660   2.541   3.535  16.555  0.1286 -0.1713 -1.0154
 7723TIP3    H244661   2.623   3.643  16.622 -2.2141  1.8431 -1.2527
 7724TIP3   OH244662   1.746   2.861  16.180  0.6378 -0.4534  0.1408
 7724TIP3    H144663   1.805   2.808  16.126  0.8944  0.3187 -0.3623
 7724TIP3    H244664   1.663   2.814  16.178  0.7612 -0.6574 -0.5964
 7725TIP3   OH244665   0.564   3.794   2.831 -0.9179 -0.0887 -0.1799
 7725TIP3    H144666   0.511   3.774   2.753  0.0757  0.8930 -1.1242
 7725TIP3    H244667   0.602   3.709   2.855 -1.9972 -0.5905 -0.1656
 7726TIP3   OH244668   3.615   2.699   3.051 -0.6017  0.2113  0.4049
 7726TIP3    H144669   3.585   2.651   2.973  0.6681 -0.4308  0.2886
 7726TIP3    H244670   3.649   2.782   3.017  2.3723 -1.1062 -0.1101
 7727TIP3   OH244671   1.155   5.846  11.785  0.2025  0.5515 -0.1382
 7727TIP3    H144672   1.226   5.908  11.800  0.4940  0.5244 -1.3149
 7727TIP3    H244673   1.186   5.791  11.712 -0.0906 -0.9099  0.7979
 7728TIP3   OH244674   4.280   2.673   6.238 -0.0288  0.3640  0.0086
 7728TIP3    H144675   4.199   2.696   6.283 -1.2022  0.2361 -1.9378
 7728TIP3    H244676   4.347   2.728   6.279 -1.7121  3.1410 -0.6935
 7729TIP3   OH244677   6.128   2.691  16.131  0.4428 -0.3373 -0.2272
 7729TIP3    H144678   6.068   2.765  16.141 -1.3189 -1.6911 -0.2941
 7729TIP3    H244679   6.216   2.731  16.131 -0.4190  1.6828  0.1353
 7730TIP3   OH244680   1.368   2.559  14.031 -0.1429 -0.0487 -0.1593
 7730TIP3    H144681   1.279   2.583  14.009 -1.1592 -1.0776  2.4160
 7730TIP3    H244682   1.388   2.484  13.975 -0.8773  0.2351 -0.7986
 7731TIP3   OH244683   4.729   1.076  14.179 -0.1757  0.0981 -0.4299
 7731TIP3    H144684   4.639   1.100  14.198 -0.3230 -0.5686 -0.2679
 7731TIP3    H244685   4.736   0.984  14.205  0.3675 -0.0503 -1.0709
 7732TIP3   OH244686   3.004   6.350   4.910 -0.1230 -0.5380 -0.2795
 7732TIP3    H144687   3.049   6.338   4.994  0.1328  0.3956 -0.2727
 7732TIP3    H244688   3.062   6.307   4.846 -0.2985 -1.2161  0.0103
 7733TIP3   OH244689   4.131   5.742  11.556  0.0674 -0.1945 -0.9240
 7733TIP3    H144690   4.132   5.653  11.591  0.0221 -0.0067 -0.4344
 7733TIP3    H244691   4.048   5.779  11.586  0.2254  0.1140 -0.8600
 7734TIP3   OH244692   6.338   2.129  13.509 -0.0755 -0.5110 -0.2646
 7734TIP3    H144693   6.341   2.158  13.601 -1.4859 -0.4607 -0.2062
 7734TIP3    H244694   6.276   2.056  13.509 -0.9464  0.1966 -1.3413
 7735TIP3   OH244695   3.349   4.835   1.653  0.2571 -0.3161 -0.1456
 7735TIP3    H144696   3.340   4.740   1.664 -1.0181 -0.3259 -1.0538
 7735TIP3    H244697   3.442   4.849   1.639  0.5172 -1.3909  0.4044
 7736TIP3   OH244698   3.110   3.998  14.063 -0.3470  0.2525  0.4642
 7736TIP3    H144699   3.175   4.067  14.075  0.8425 -0.7824  0.0774
 7736TIP3    H244700   3.139   3.928  14.121 -1.5504  0.0599  0.8600
 7737TIP3   OH244701   4.856   3.617  11.522 -0.1577 -0.2094  0.0159
 7737TIP3    H144702   4.891   3.582  11.440 -0.5402 -0.5759  0.0051
 7737TIP3    H244703   4.904   3.570  11.590 -1.2155 -1.3587  0.0091
 7738TIP3   OH244704   2.418   0.819  14.994 -0.2566 -0.4720 -0.0885
 7738TIP3    H144705   2.487   0.881  15.018  0.7191 -0.6129 -2.3014
 7738TIP3    H244706   2.337   0.861  15.023  0.6779 -0.3550  2.7047
 7739TIP3   OH244707   3.255   1.189   2.177 -0.0677  0.0402  0.7482
 7739TIP3    H144708   3.260   1.186   2.082  0.4245 -0.2762  0.7817
 7739TIP3    H244709   3.235   1.280   2.198 -2.7194 -0.3536  0.2348
 7740TIP3   OH244710   0.064   1.185  16.646 -0.3162  0.3278 -0.0530
 7740TIP3    H144711  -0.017   1.195  16.697 -1.3979 -1.9173 -1.2255
 7740TIP3    H244712   0.093   1.096  16.664  1.9704  1.0793  0.3463
 7741TIP3   OH244713   1.654   5.676   4.074 -0.7837 -0.8687  0.1227
 7741TIP3    H144714   1.614   5.723   4.001 -1.9789 -1.1811  0.5611
 7741TIP3    H244715   1.709   5.742   4.117 -0.0887 -0.6716 -1.0216
 7742TIP3   OH244716   6.835   6.661  11.803  0.4115 -0.4419  0.3842
 7742TIP3    H144717   6.750   6.660  11.759  0.6744 -0.3043 -0.1365
 7742TIP3    H244718   6.897   6.682  11.733  0.7725  0.3618  0.9482
 7743TIP3   OH244719   4.100   2.488   3.204 -0.4623 -0.5252 -0.1102
 7743TIP3    H144720   4.005   2.482   3.210 -0.4671  0.2753  1.2380
 7743TIP3    H244721   4.131   2.465   3.292  0.3890  1.8420  0.2990
 7744TIP3   OH244722   0.069   3.399  12.278  0.3193  0.2682 -0.2996
 7744TIP3    H144723   0.079   3.340  12.203  0.1617  0.6959 -0.6588
 7744TIP3    H244724   0.079   3.487  12.241  0.2015  0.4829  0.1748
 7745TIP3   OH244725   4.088   5.633  17.007 -0.1553  0.2464 -0.3357
 7745TIP3    H144726   4.132   5.561  16.962 -0.3812 -1.7720  2.4201
 7745TIP3    H244727   4.145   5.709  16.994  1.1936 -0.9311 -1.5412
 7746TIP3   OH244728   1.217   0.858  13.249 -0.2146 -0.2271  0.4234
 7746TIP3    H144729   1.152   0.788  13.253  1.1513 -1.5331  1.8811
 7746TIP3    H244730   1.290   0.819  13.201  1.7723 -1.0789  3.7355
 7747TIP3   OH244731   2.204   1.335   3.592  0.3552 -0.5174  0.4681
 7747TIP3    H144732   2.202   1.430   3.600 -1.9390 -0.5972  1.5657
 7747TIP3    H244733   2.218   1.303   3.681 -0.2687 -1.2204  0.3280
 7748TIP3   OH244734   1.018   1.952   5.171 -0.3812 -0.1429 -0.3025
 7748TIP3    H144735   1.053   1.868   5.143 -0.2667 -0.6016  1.1143
 7748TIP3    H244736   1.095   2.005   5.194 -0.4937 -0.1026 -0.0052
 7749TIP3   OH244737   5.127   3.949   2.821 -0.6404  0.1110 -0.8550
 7749TIP3    H144738   5.207   3.996   2.797 -1.0815  1.4129  0.0840
 7749TIP3    H244739   5.069   3.962   2.746 -0.5632  0.6293 -0.8313
 7750TIP3   OH244740   3.068   5.839   2.537 -0.1576 -0.2425 -0.3976
 7750TIP3    H144741   3.092   5.837   2.444  0.3127 -0.8728 -0.2659
 7750TIP3    H244742   3.027   5.754   2.553  2.9920 -1.6770  0.8052
 7751TIP3   OH244743   2.776   2.318  15.506 -0.0210 -1.0434 -0.2179
 7751TIP3    H144744   2.795   2.340  15.598 -0.2395 -2.0440  0.0738
 7751TIP3    H244745   2.725   2.392  15.474  2.5604  0.7646 -0.4242
 7752TIP3   OH244746   1.550   5.645   2.899  0.5594  0.1107  0.6211
 7752TIP3    H144747   1.614   5.606   2.840 -1.9416 -1.1611 -1.4675
 7752TIP3    H244748   1.525   5.727   2.856 -1.9524 -1.2613 -0.7584
 7753TIP3   OH244749   6.397   2.471   1.030 -0.4602  0.5962 -0.3000
 7753TIP3    H144750   6.404   2.375   1.027 -0.6815  0.5975 -0.8014
 7753TIP3    H244751   6.424   2.500   0.943  0.3008  1.0376  0.0757
 7754TIP3   OH244752   4.575   3.861   1.855 -0.3962 -1.2161  0.2735
 7754TIP3    H144753   4.644   3.919   1.885 -0.8388  0.8711 -2.3686
 7754TIP3    H244754   4.621   3.789   1.813  0.1616 -0.9290  0.3813
 7755TIP3   OH244755   6.509   6.457   2.575  0.5278 -0.5910  0.2737
 7755TIP3    H144756   6.451   6.425   2.644  0.6574  0.2974  0.8076
 7755TIP3    H244757   6.507   6.552   2.584 -1.0658 -0.2818 -2.2531
 7756TIP3   OH244758   0.158   4.455   4.829 -0.1129  0.1473  0.5621
 7756TIP3    H144759   0.171   4.540   4.786 -0.8963  0.7506  1.4490
 7756TIP3    H244760   0.243   4.413   4.826  0.1447  0.7076 -0.4424
 7757TIP3   OH244761   4.896   0.415  15.049  0.1405  0.5746  0.0797
 7757TIP3    H144762   4.879   0.326  15.079 -1.8168  0.1540 -2.0295
 7757TIP3    H244763   4.887   0.469  15.127 -2.7427 -0.6586  0.7141
 7758TIP3   OH244764   3.637   0.156  15.894  0.0451 -0.6074  0.5867
 7758TIP3    H144765   3.675   0.069  15.899 -0.6728 -0.8718  3.3974
 7758TIP3    H244766   3.545   0.144  15.920 -0.0338  0.9719  1.1862
 7759TIP3   OH244767   3.578   0.595  13.642 -0.3858  0.5175  0.5660
 7759TIP3    H144768   3.616   0.625  13.724  1.7486 -1.7212  0.5345
 7759TIP3    H244769   3.546   0.507  13.661 -0.2466  0.1230 -0.8712
 7760TIP3   OH244770   3.121   2.522   1.561 -0.9650 -0.3364 -0.0025
 7760TIP3    H144771   3.090   2.581   1.493  0.6875  0.6398  0.0382
 7760TIP3    H244772   3.162   2.579   1.626 -1.9778 -1.2929  1.5601
 7761TIP3   OH244773   2.812   5.655   3.682  0.0467 -0.0103  0.3509
 7761TIP3    H144774   2.843   5.687   3.766  0.0601  1.6366 -0.2426
 7761TIP3    H244775   2.891   5.627   3.635  0.4948  2.2572 -0.3730
 7762TIP3   OH244776   4.877   1.246  13.275 -0.2734  0.4852 -0.1264
 7762TIP3    H144777   4.970   1.249  13.298 -0.1471  2.1877 -0.7266
 7762TIP3    H244778   4.832   1.280  13.353 -0.1363  2.4571 -0.8496
 7763TIP3   OH244779   4.975   0.084   0.715 -0.4311  0.0117  0.3247
 7763TIP3    H144780   4.984   0.067   0.621 -0.1876  3.1970 -0.3336
 7763TIP3    H244781   5.055   0.049   0.753  0.7540  1.0485 -1.0940
 7764TIP3   OH244782   5.682   2.485  14.338 -0.5628  0.1821 -0.0361
 7764TIP3    H144783   5.642   2.494  14.424 -2.1727 -0.5723 -0.6685
 7764TIP3    H244784   5.694   2.391  14.326  0.4065  0.3313 -0.3072
 7765TIP3   OH244785   5.084   1.635   0.450 -0.4611 -0.0719 -0.3812
 7765TIP3    H144786   5.127   1.583   0.382 -1.0203 -1.2442  0.1326
 7765TIP3    H244787   5.154   1.688   0.488  0.3870 -1.3040 -0.1510
 7766TIP3   OH244788   6.367   2.360  15.587  0.5265  0.6611  0.2603
 7766TIP3    H144789   6.426   2.325  15.521  1.2388  2.8575 -0.3344
 7766TIP3    H244790   6.424   2.399  15.653 -0.2318  0.9835  0.7465
 7767TIP3   OH244791   2.274   3.430   1.179  0.1996  0.4580  0.2700
 7767TIP3    H144792   2.289   3.382   1.098  0.3720  0.6801  0.1709
 7767TIP3    H244793   2.356   3.422   1.228 -0.2992 -0.7047  0.9601
 7768TIP3   OH244794   1.915   2.327  13.119  0.2518 -0.5849  0.2480
 7768TIP3    H144795   1.994   2.379  13.107 -0.3201  0.1381 -0.5615
 7768TIP3    H244796   1.886   2.306  13.030 -1.0805  0.1363  0.4824
 7769TIP3   OH244797   2.028   0.987  13.819  0.3932  0.4195 -0.3903
 7769TIP3    H144798   2.074   0.977  13.736 -0.3650  0.5536 -0.8336
 7769TIP3    H244799   2.067   0.921  13.876 -0.6623 -1.3102 -1.5644
 7770TIP3   OH244800   0.430   6.802  16.424 -1.3292  0.0483 -0.1100
 7770TIP3    H144801   0.459   6.841  16.506  0.7655  1.6026 -1.4601
 7770TIP3    H244802   0.473   6.716  16.421 -1.2269  0.0815  0.3316
 7771TIP3   OH244803   5.467   0.179  12.157  0.2135 -0.3659  0.3257
 7771TIP3    H144804   5.541   0.231  12.190 -0.5060  1.6073 -0.9803
 7771TIP3    H244805   5.392   0.238  12.164 -0.6824 -1.2997 -1.0419
 7772TIP3   OH244806   0.157   1.387  14.547  0.4377  0.0429  0.0175
 7772TIP3    H144807   0.223   1.379  14.616  0.8297 -2.2707 -0.5268
 7772TIP3    H244808   0.208   1.400  14.467  0.3318 -1.8463 -0.4179
 7773TIP3   OH244809   2.397   6.429  11.392  0.5145  0.0491 -0.0160
 7773TIP3    H144810   2.332   6.392  11.452  1.9512  1.0673  2.2746
 7773TIP3    H244811   2.426   6.354  11.339  0.5638 -1.3220  1.8575
 7774TIP3   OH244812   1.889   0.090  16.153 -0.3816  0.2278  0.5405
 7774TIP3    H144813   1.934   0.140  16.221  1.0486 -1.6038  1.0237
 7774TIP3    H244814   1.862   0.009  16.197 -0.2239 -0.6061 -0.8471
 7775TIP3   OH244815   5.520   2.794   5.591 -0.0621 -0.6233  0.3958
 7775TIP3    H144816   5.507   2.850   5.667  1.2362 -1.0681  0.9742
 7775TIP3    H244817   5.466   2.717   5.608  2.4862 -2.1297  2.4090
 7776TIP3   OH244818   5.418   0.044   3.402  0.4512  0.2768  0.2337
 7776TIP3    H144819   5.426   0.040   3.307 -2.3814  0.8589 -0.1218
 7776TIP3    H244820   5.381   0.130   3.419 -0.2419 -0.2919  1.7500
 7777TIP3   OH244821   3.311   6.207   2.493  0.4102  0.2941  0.2482
 7777TIP3    H144822   3.351   6.205   2.580  2.2198  1.0231 -0.5162
 7777TIP3    H244823   3.348   6.284   2.451 -1.2140  0.5454 -0.8391
 7778TIP3   OH244824   2.989   2.963  17.040 -0.0355 -0.8928  0.2772
 7778TIP3    H144825   2.950   2.876  17.052 -0.8786 -0.1568  3.7044
 7778TIP3    H244826   3.051   2.972  17.112 -0.8616  1.7892  0.7576
 7779TIP3   OH244827   2.648   1.032  16.870 -0.0394 -0.4778  0.0125
 7779TIP3    H144828   2.679   0.951  16.911  1.6021 -0.1543 -0.5086
 7779TIP3    H244829   2.631   1.008  16.779  0.0492 -0.3306 -0.0425
 7780TIP3   OH244830   2.369   2.165   1.964 -0.7779 -0.0414 -0.0375
 7780TIP3    H144831   2.439   2.208   2.012 -0.3851 -1.2516  0.5247
 7780TIP3    H244832   2.411   2.132   1.884 -1.7536  3.3821 -2.1952
 7781TIP3   OH244833   1.203   4.501   2.488  0.0396 -0.3443  0.3047
 7781TIP3    H144834   1.297   4.500   2.506  0.4681  0.4397 -1.6287
 7781TIP3    H244835   1.191   4.439   2.416 -0.4985  1.3739 -1.1502
 7782TIP3   OH244836   0.446   1.303   3.500 -0.5829 -0.3174 -0.4180
 7782TIP3    H144837   0.388   1.276   3.571  1.2596 -0.2518  1.1954
 7782TIP3    H244838   0.411   1.387   3.471 -3.2498 -1.8011 -1.8671
 7783TIP3   OH244839   4.259   4.483   5.724 -0.4873  0.0876 -0.1539
 7783TIP3    H144840   4.284   4.572   5.751 -1.5074  0.7524 -1.2637
 7783TIP3    H244841   4.170   4.473   5.758 -1.3408  0.4880 -2.1218
 7784TIP3   OH244842   4.609   6.146  16.693  0.6105  0.3244  0.4792
 7784TIP3    H144843   4.697   6.181  16.709 -0.3240  1.0243  5.8345
 7784TIP3    H244844   4.602   6.071  16.753 -2.0329 -0.5912 -0.8229
 7785TIP3   OH244845   5.114   1.710   3.654  0.0140 -0.3932  0.0072
 7785TIP3    H144846   5.163   1.645   3.706  0.1856 -1.2433 -1.1877
 7785TIP3    H244847   5.177   1.740   3.589 -0.4908 -0.0435 -0.3216
 7786TIP3   OH244848   2.381   0.400   0.126  0.1948 -0.2984  0.2782
 7786TIP3    H144849   2.441   0.442   0.065 -0.0961  1.0365  0.8620
 7786TIP3    H244850   2.433   0.384   0.204  0.1923 -0.6238  0.2132
 7787TIP3   OH244851   1.543   0.609  14.095 -0.4652 -0.3124  0.2821
 7787TIP3    H144852   1.489   0.538  14.131 -0.4703 -0.0220  0.8580
 7787TIP3    H244853   1.578   0.574  14.013  1.0666 -1.6861  1.4748
 7788TIP3   OH244854   1.450   4.456   5.209  0.0683  0.2283 -0.0059
 7788TIP3    H144855   1.381   4.485   5.269 -0.8463 -1.6736 -0.0632
 7788TIP3    H244856   1.442   4.514   5.134  0.7036  2.1310  1.3209
 7789TIP3   OH244857   0.135   6.851   0.120 -0.4528 -0.2458  0.2837
 7789TIP3    H144858   0.074   6.890   0.182 -0.0358  0.3858  0.3057
 7789TIP3    H244859   0.209   6.912   0.117 -0.1597 -0.6175 -0.3069
 7790TIP3   OH244860   1.824   3.481   2.568  0.4430 -0.5705  0.0182
 7790TIP3    H144861   1.796   3.514   2.483  0.2215 -0.5536  0.0964
 7790TIP3    H244862   1.746   3.489   2.624  0.9449  0.6258  0.5687
 7791TIP3   OH244863   1.596   4.882   0.186  0.1467  0.0954  0.8937
 7791TIP3    H144864   1.641   4.850   0.108  1.2838  0.4783  1.3582
 7791TIP3    H244865   1.580   4.804   0.239 -0.8228 -0.1932  0.2024
 7792TIP3   OH244866   0.556   2.499  14.033 -0.1675  0.4846 -0.5267
 7792TIP3    H144867   0.568   2.585  14.073  2.1965 -0.2275  0.4269
 7792TIP3    H244868   0.471   2.469  14.066  0.9861  0.5668  2.8674
 7793TIP3   OH244869   2.959   6.763  16.924 -0.2068  0.7128 -0.1221
 7793TIP3    H144870   2.975   6.669  16.934 -1.9406  0.4443  0.4626
 7793TIP3    H244871   2.946   6.776  16.831  0.2644  0.4227 -0.2337
 7794TIP3   OH244872   0.246   2.461   1.446  0.1449  0.0835  0.4310
 7794TIP3    H144873   0.164   2.448   1.494  0.0694 -0.0593  0.2671
 7794TIP3    H244874   0.227   2.532   1.385 -0.1007 -0.4621 -0.1441
 7795TIP3   OH244875   6.712   3.166   5.975 -0.0483 -0.4743 -0.0657
 7795TIP3    H144876   6.757   3.099   6.026 -1.2625 -2.7499 -1.7972
 7795TIP3    H244877   6.699   3.238   6.037  1.8207 -1.5587  1.7246
 7796TIP3   OH244878   2.486   2.358   0.339 -0.1406 -0.1348  0.6990
 7796TIP3    H144879   2.504   2.421   0.270 -1.2504  0.5363  0.9993
 7796TIP3    H244880   2.400   2.322   0.318 -1.7049  1.9494  3.0160
 7797TIP3   OH244881   3.198   6.099  14.847 -0.1296  0.7423  0.0895
 7797TIP3    H144882   3.199   6.065  14.936 -0.2722  0.8361  0.1270
 7797TIP3    H244883   3.108   6.131  14.834 -0.0701  0.8597 -0.0373
 7798TIP3   OH244884   6.019   5.736  17.071  0.1190  0.3639  0.0508
 7798TIP3    H144885   6.005   5.809  17.131  0.1318  1.3183 -1.0723
 7798TIP3    H244886   5.936   5.726  17.024  0.8172  1.2102 -1.4340
 7799TIP3   OH244887   0.450   6.434   3.003 -0.7105  0.6976 -0.0455
 7799TIP3    H144888   0.404   6.417   2.921 -2.1791  0.3554  0.8087
 7799TIP3    H244889   0.529   6.380   2.999 -0.8264  0.6016 -1.1774
 7800TIP3   OH244890   1.980   0.398   4.891 -0.1912 -0.3841  0.6715
 7800TIP3    H144891   2.065   0.437   4.870 -0.0371 -0.3659  1.3006
 7800TIP3    H244892   1.982   0.313   4.848 -0.4183  0.1700 -0.4847
 7801TIP3   OH244893   3.972   6.200  12.959  0.2820  0.2060  0.6646
 7801TIP3    H144894   4.046   6.260  12.966  0.1124  0.5563 -0.4727
 7801TIP3    H244895   3.997   6.126  13.016  0.8686  0.9442  1.3961
 7802TIP3   OH244896   0.567   5.067   3.789 -0.2270 -0.0965 -0.1288
 7802TIP3    H144897   0.485   5.018   3.783 -0.1644 -0.3127  0.7031
 7802TIP3    H244898   0.570   5.098   3.880  0.1735  0.6829 -0.3951
 7803TIP3   OH244899   4.300   5.294  15.919  0.0180 -0.2272 -0.2591
 7803TIP3    H144900   4.314   5.202  15.895 -0.7601 -0.3121 -0.4099
 7803TIP3    H244901   4.388   5.331  15.923  0.4115 -1.2177  0.7754
 7804TIP3   OH244902   5.265   3.985   1.259  0.2383 -0.8860 -0.1438
 7804TIP3    H144903   5.295   4.067   1.298  1.7493 -1.1991 -0.5831
 7804TIP3    H244904   5.243   3.930   1.334 -2.0024  0.3082  0.1460
 7805TIP3   OH244905   2.487   5.784  10.324 -0.2174 -0.3146  0.2584
 7805TIP3    H144906   2.510   5.735  10.403  1.3963  0.4367  0.2836
 7805TIP3    H244907   2.402   5.748  10.298 -0.4528 -1.0702  1.9220
 7806TIP3   OH244908   4.141   3.619  14.728 -0.7716 -0.0516  0.7304
 7806TIP3    H144909   4.170   3.551  14.788 -1.0763 -0.5142  0.3602
 7806TIP3    H244910   4.210   3.624  14.662 -0.0467  1.0131  1.5378
 7807TIP3   OH244911   3.769   1.657   3.778  0.4254  0.4168 -0.3725
 7807TIP3    H144912   3.795   1.749   3.767 -0.7497  0.8943  0.6455
 7807TIP3    H244913   3.674   1.658   3.773  0.1061 -0.1746  3.1092
 7808TIP3   OH244914   2.678   5.963   5.091 -0.3183  0.0504  0.0850
 7808TIP3    H144915   2.732   5.885   5.098  0.5977  0.6890  0.3704
 7808TIP3    H244916   2.603   5.946   5.148 -0.4199 -0.8354 -0.2964
 7809TIP3   OH244917   1.167   0.923   4.702 -0.0837  0.0932  0.7787
 7809TIP3    H144918   1.142   0.917   4.794  0.0834 -1.2211  0.7490
 7809TIP3    H244919   1.248   0.975   4.703 -0.2308  0.3174  1.3433
 7810TIP3   OH244920   1.023   2.531   1.565 -0.1945  0.3994 -0.5590
 7810TIP3    H144921   0.927   2.538   1.569 -0.2539 -0.7581  2.8150
 7810TIP3    H244922   1.054   2.613   1.603  0.0392 -0.4434  1.1248
 7811TIP3   OH244923   4.601   0.866  14.950 -0.6200 -0.1547  0.1448
 7811TIP3    H144924   4.670   0.807  14.982 -0.8173 -0.3186  0.2682
 7811TIP3    H244925   4.544   0.878  15.025 -0.3922  0.4721  0.2178
 7812TIP3   OH244926   5.864   3.383   2.869 -0.4893 -0.2763 -0.4768
 7812TIP3    H144927   5.950   3.421   2.853 -0.8168  0.3288 -0.8203
 7812TIP3    H244928   5.803   3.437   2.818 -0.9870 -1.1446 -0.8256
 7813TIP3   OH244929   1.699   4.867  11.520 -0.7212 -0.1325  0.5950
 7813TIP3    H144930   1.694   4.880  11.425  2.3598  2.4568  0.5948
 7813TIP3    H244931   1.628   4.922  11.555 -1.1071 -0.1458 -0.1360
 7814TIP3   OH244932   3.422   5.429  11.487 -0.0370  0.5958 -0.1438
 7814TIP3    H144933   3.500   5.429  11.433 -0.5914  1.1274 -0.9706
 7814TIP3    H244934   3.399   5.522  11.495 -0.6627  0.4357 -0.0351
 7815TIP3   OH244935   1.233   6.325  14.929 -0.1548 -0.6155 -0.2808
 7815TIP3    H144936   1.160   6.386  14.937 -0.1119 -0.2465 -2.2550
 7815TIP3    H244937   1.266   6.315  15.018 -1.4932  0.5787  0.3855
 7816TIP3   OH244938   1.542   0.059  11.606 -0.0542  0.0569  0.1633
 7816TIP3    H144939   1.584   0.140  11.634  0.3703  0.3969 -1.3603
 7816TIP3    H244940   1.501   0.025  11.685  0.3355  1.4017  0.9819
 7817TIP3   OH244941   1.234   2.178  12.061 -0.7447 -0.2123 -0.1285
 7817TIP3    H144942   1.294   2.107  12.085  1.9158  1.9001 -0.0551
 7817TIP3    H244943   1.249   2.245  12.129 -1.3852  1.3616 -1.4856
 7818TIP3   OH244944   5.547   6.572   2.675  0.0829  0.5025 -0.3840
 7818TIP3    H144945   5.640   6.570   2.696  0.4689 -0.4149 -2.0898
 7818TIP3    H244946   5.512   6.493   2.716  0.4318 -0.1705 -1.3657
 7819TIP3   OH244947   4.259   5.579  10.495 -0.5075 -0.5637 -0.0440
 7819TIP3    H144948   4.207   5.650  10.533 -0.1986 -0.8868  0.9981
 7819TIP3    H244949   4.336   5.572  10.552  1.0956  0.4006 -1.9466
 7820TIP3   OH244950   6.059   2.902   0.718  0.5452  0.1894 -0.1154
 7820TIP3    H144951   6.033   2.836   0.654 -1.5973  0.5724  0.2917
 7820TIP3    H244952   6.147   2.875   0.745  0.6372 -1.1906 -1.6164
 7821TIP3   OH244953   1.283   4.040   4.165  0.3557  0.4782  0.0272
 7821TIP3    H144954   1.283   4.048   4.070  3.2551  0.2918 -0.0693
 7821TIP3    H244955   1.329   4.118   4.196  1.1057 -0.3703  1.1397
 7822TIP3   OH244956   4.770   0.384  14.369 -0.2302 -0.6156 -0.2804
 7822TIP3    H144957   4.718   0.386  14.449 -0.6417 -0.3287 -0.5446
 7822TIP3    H244958   4.705   0.385  14.299  0.1046 -1.6030 -0.6222
 7823TIP3   OH244959   5.222   5.025   1.461  0.1583  0.3409  0.0620
 7823TIP3    H144960   5.201   5.088   1.392 -1.7889  0.8870  1.0903
 7823TIP3    H244961   5.190   5.066   1.541  2.1760 -0.3748  1.3050
 7824TIP3   OH244962   4.674   4.445   4.275  0.2527  0.1773  0.0607
 7824TIP3    H144963   4.699   4.359   4.309 -4.2523 -1.0152  1.1089
 7824TIP3    H244964   4.693   4.505   4.346 -0.0585 -0.6586  0.8773
 7825TIP3   OH244965   1.857   6.222  14.246  0.5464 -0.0235 -0.1346
 7825TIP3    H144966   1.843   6.132  14.276  0.0148 -0.4228 -1.5117
 7825TIP3    H244967   1.934   6.216  14.188  1.1269  0.6023  0.5507
 7826TIP3   OH244968   4.907   1.290  14.319 -0.7126 -0.1785  0.2261
 7826TIP3    H144969   4.908   1.260  14.228 -0.4688 -1.9583  0.7748
 7826TIP3    H244970   4.819   1.269  14.351 -1.2563  1.6859  0.0431
 7827TIP3   OH244971   2.469   3.970   0.402 -0.3560  0.1328  0.3210
 7827TIP3    H144972   2.534   3.916   0.447  0.0187 -1.0781 -1.5821
 7827TIP3    H244973   2.385   3.941   0.437 -0.0076  0.3423  1.3709
 7828TIP3   OH244974   0.596   3.960   5.730  0.0773 -0.3878 -0.3815
 7828TIP3    H144975   0.503   3.974   5.749  0.2376  1.9483 -0.9835
 7828TIP3    H244976   0.606   3.865   5.728 -2.5185 -0.7190 -1.3850
 7829TIP3   OH244977   6.725   4.433   3.872  0.8321  0.2338 -0.2399
 7829TIP3    H144978   6.720   4.513   3.925  1.6663  0.6437 -0.7552
 7829TIP3    H244979   6.741   4.465   3.783  0.8155 -0.5018 -0.5119
 7830TIP3   OH244980   4.387   1.014  12.275 -0.0156 -0.4046 -0.4000
 7830TIP3    H144981   4.439   0.956  12.331  0.6157  0.3926 -0.1315
 7830TIP3    H244982   4.402   1.102  12.311 -1.0299 -0.0823 -0.7342
 7831TIP3   OH244983   4.721   1.872  12.219 -0.4084  0.1445  0.0787
 7831TIP3    H144984   4.811   1.864  12.250 -0.1596 -0.4135 -0.7407
 7831TIP3    H244985   4.730   1.881  12.124 -1.2707 -1.4260 -0.1744
 7832TIP3   OH244986   0.074   5.187   4.545 -0.2149  0.1127 -0.1610
 7832TIP3    H144987   0.061   5.195   4.640  2.5359 -0.3472  0.3596
 7832TIP3    H244988   0.067   5.277   4.513 -1.9960  0.1758  0.3062
 7833TIP3   OH244989   2.114   6.658  15.506  0.6557 -0.4369  0.6118
 7833TIP3    H144990   2.137   6.750  15.519  0.6678 -0.5074  1.0912
 7833TIP3    H244991   2.192   6.619  15.466  0.7306 -0.2921  0.6142
 7834TIP3   OH244992   5.847   1.105  14.176  0.0934 -0.0986 -0.0304
 7834TIP3    H144993   5.826   1.093  14.269 -0.6360  1.2192 -0.0062
 7834TIP3    H244994   5.774   1.156  14.141  0.2352 -0.7872 -1.3973
 7835TIP3   OH244995   0.279   5.724   5.095  0.2632  0.1564  0.0121
 7835TIP3    H144996   0.215   5.655   5.077  2.0101 -1.0264 -2.1570
 7835TIP3    H244997   0.333   5.688   5.166 -0.2895  0.3590  0.5461
 7836TIP3   OH244998   1.951   6.067  11.422 -0.1731 -0.5010  0.4791
 7836TIP3    H144999   2.035   6.064  11.375 -1.1530  0.0478 -1.4253
 7836TIP3    H245000   1.963   6.007  11.496  2.4316  0.8103  1.2625
 7837TIP3   OH245001   3.064   5.269   4.873  0.0688  0.2956  0.3564
 7837TIP3    H145002   3.148   5.229   4.895  1.5581  1.4509 -2.7201
 7837TIP3    H245003   3.031   5.217   4.800 -2.4130 -0.6294  1.9698
 7838TIP3   OH245004   5.293   0.864   2.310 -0.4418 -0.4544  0.7266
 7838TIP3    H145005   5.211   0.825   2.338 -0.8941 -1.3048 -1.5815
 7838TIP3    H245006   5.332   0.799   2.252  0.5894  1.0215 -0.2997
 7839TIP3   OH245007   5.917   1.351  15.944 -0.3384 -0.0837  0.2349
 7839TIP3    H145008   5.994   1.399  15.912  1.2862 -0.8482  2.7228
 7839TIP3    H245009   5.928   1.262  15.909  0.9210 -0.6593  1.9512
 7840TIP3   OH245010   3.277   5.511  15.984 -0.4726  0.1399 -0.0356
 7840TIP3    H145011   3.280   5.533  16.077  0.2028 -0.8768  0.1969
 7840TIP3    H245012   3.278   5.415  15.982  0.3352  0.1533 -1.1013
 7841TIP3   OH245013   5.757   0.902   0.420 -0.2726 -0.2019 -0.5710
 7841TIP3    H145014   5.791   0.906   0.509  0.1710 -0.2132 -0.7377
 7841TIP3    H245015   5.704   0.822   0.418  0.9100 -1.0233 -0.7177
 7842TIP3   OH245016   5.909   0.230  13.900 -0.2418  0.1632 -0.7409
 7842TIP3    H145017   5.860   0.222  13.819  0.4849  0.4590 -1.2211
 7842TIP3    H245018   6.001   0.220  13.874  0.0671  1.1319 -0.0843
 7843TIP3   OH245019   0.845   1.636   5.407 -0.2836 -0.4729 -0.5825
 7843TIP3    H145020   0.887   1.655   5.490  1.0225 -0.9225 -1.0990
 7843TIP3    H245021   0.915   1.598   5.353 -0.7592  0.9766 -2.3186
 7844TIP3   OH245022   4.790   3.070  12.854 -0.2564 -0.2360  0.1501
 7844TIP3    H145023   4.840   3.061  12.773  0.4302  1.0289  0.4023
 7844TIP3    H245024   4.699   3.064  12.827 -0.0588  0.8506 -0.8278
 7845TIP3   OH245025   1.015   5.151  12.798 -0.0106 -0.2077 -0.1054
 7845TIP3    H145026   0.939   5.102  12.830 -1.3652  1.3677 -0.7874
 7845TIP3    H245027   1.065   5.171  12.877  0.5454 -2.5519  0.2050
 7846TIP3   OH245028   6.296   6.706  16.722 -0.3058 -0.5695 -0.0034
 7846TIP3    H145029   6.309   6.785  16.774 -0.1668  0.3879 -1.4182
 7846TIP3    H245030   6.201   6.690  16.726 -0.1666 -1.1750  1.4240
 7847TIP3   OH245031   6.032   0.868   1.051 -0.1471  0.4020 -0.0163
 7847TIP3    H145032   5.954   0.923   1.040 -0.7700 -0.6396 -1.1479
 7847TIP3    H245033   6.017   0.794   0.992  2.9024  1.4397 -2.2976
 7848TIP3   OH245034   1.335   2.501   2.290  0.2771  0.0799  0.1370
 7848TIP3    H145035   1.240   2.502   2.303  0.5326 -0.1503  2.3144
 7848TIP3    H245036   1.346   2.515   2.196 -1.9227 -0.6670 -0.2866
 7849TIP3   OH245037   5.294   3.887  14.613 -0.2169 -0.0161  0.0479
 7849TIP3    H145038   5.215   3.834  14.631  0.5382 -2.0654 -2.1365
 7849TIP3    H245039   5.274   3.933  14.532  0.7724 -0.4970 -0.4867
 7850TIP3   OH245040   3.301   0.229  14.449 -0.5413 -0.0456  0.0371
 7850TIP3    H145041   3.273   0.277  14.527 -0.8136 -0.4232  0.1730
 7850TIP3    H245042   3.365   0.166  14.482  2.5925  2.5627 -0.6123
 7851TIP3   OH245043   5.582   4.776  15.342 -0.3273  0.5023  0.2828
 7851TIP3    H145044   5.553   4.725  15.418 -2.7850  0.6128 -0.4915
 7851TIP3    H245045   5.677   4.762  15.338 -0.2550 -0.1754  2.8413
 7852TIP3   OH245046   3.159   5.443   0.352 -0.1256 -0.4963  0.0012
 7852TIP3    H145047   3.071   5.407   0.341 -0.2254 -0.4709  0.6586
 7852TIP3    H245048   3.159   5.479   0.440  0.0593  0.8853 -0.5381
 7853TIP3   OH245049   5.396   3.782  11.610  1.0104 -0.4472 -0.0878
 7853TIP3    H145050   5.487   3.803  11.635  0.2018  1.8770  1.2737
 7853TIP3    H245051   5.373   3.707  11.665  1.4996  0.2022  1.0403
 7854TIP3   OH245052   0.935   6.623   2.110  0.3006  0.3328  0.6009
 7854TIP3    H145053   0.986   6.702   2.128  0.9490 -0.1389  0.8504
 7854TIP3    H245054   0.929   6.620   2.015  1.4959 -0.0734  0.5237
 7855TIP3   OH245055   4.997   0.468  14.642 -0.5496 -0.4328  0.2369
 7855TIP3    H145056   4.980   0.526  14.568 -0.2632 -0.0485  0.4676
 7855TIP3    H245057   5.040   0.391  14.603  1.7013  0.7277  0.2372
 7856TIP3   OH245058   1.812   4.677   2.645  0.8309 -0.0474  0.1623
 7856TIP3    H145059   1.891   4.712   2.604  0.6629  0.6107  0.4021
 7856TIP3    H245060   1.749   4.749   2.643  0.4937 -0.3205  0.6851
 7857TIP3   OH245061   5.997   5.766   4.798  0.1348 -0.4132  0.2918
 7857TIP3    H145062   5.927   5.722   4.749  0.0792 -2.0320  1.6936
 7857TIP3    H245063   5.983   5.738   4.889  0.3757  2.2542  1.2437
 7858TIP3   OH245064   2.928   1.698   2.156 -0.0640  0.1407  0.6216
 7858TIP3    H145065   2.833   1.709   2.168  0.0840  0.2662  1.8951
 7858TIP3    H245066   2.954   1.771   2.101 -0.3923  1.4025  2.0815
 7859TIP3   OH245067   6.540   0.684   1.847 -0.1675  0.0907 -0.1724
 7859TIP3    H145068   6.532   0.681   1.942 -0.8533  1.3489 -0.1782
 7859TIP3    H245069   6.555   0.776   1.826  1.1848 -0.3264 -1.2051
 7860TIP3   OH245070   6.299   0.431  12.910  0.3618 -0.2719 -0.3224
 7860TIP3    H145071   6.233   0.440  12.980  1.6772  0.2655  0.8996
 7860TIP3    H245072   6.249   0.443  12.829 -1.3354 -1.5564  0.4595
 7861TIP3   OH245073   0.179   6.140  14.553 -0.2358 -0.7359  0.2596
 7861TIP3    H145074   0.246   6.189  14.600  0.6867 -0.9373 -0.8039
 7861TIP3    H245075   0.104   6.199  14.547  0.0844 -0.2670  0.8900
 7862TIP3   OH245076   2.991   4.146   0.094  0.1769 -0.1963  0.0281
 7862TIP3    H145077   2.964   4.154   0.003 -2.5084 -0.7497  0.6808
 7862TIP3    H245078   3.041   4.226   0.112  2.8653 -1.1470 -2.4809
 7863TIP3   OH245079   3.775   6.418   1.460  0.1841  0.5753 -0.1300
 7863TIP3    H145080   3.683   6.407   1.437 -0.0655 -0.0992  1.0933
 7863TIP3    H245081   3.808   6.328   1.468  0.6274  0.7967  0.6061
 7864TIP3   OH245082   6.602   4.722   1.140 -0.7088  0.1677 -0.6686
 7864TIP3    H145083   6.620   4.739   1.047  0.6017  1.7445 -0.1606
 7864TIP3    H245084   6.611   4.627   1.148  0.4627  0.1338 -1.9208
 7865TIP3   OH245085   2.821   4.986   3.925 -0.1750  0.5143  0.6063
 7865TIP3    H145086   2.863   4.921   3.869 -0.8767  1.0107 -0.5448
 7865TIP3    H245087   2.737   5.003   3.882 -1.5899 -0.4494  2.8365
 7866TIP3   OH245088   0.529   0.022  15.903  0.2964 -0.2177 -0.2382
 7866TIP3    H145089   0.434   0.034  15.902  0.4009  0.6439 -1.2242
 7866TIP3    H245090   0.547  -0.017  15.989 -0.8217  0.6238  0.4032
 7867TIP3   OH245091   1.953   5.254  10.380 -0.4389 -0.1489 -0.4125
 7867TIP3    H145092   2.012   5.326  10.355  1.2244 -1.5496 -0.6779
 7867TIP3    H245093   1.866   5.286  10.357  0.1951  1.9519 -0.1084
 7868TIP3   OH245094   1.315   5.758   0.500 -0.0717  0.3826 -0.3483
 7868TIP3    H145095   1.404   5.790   0.514 -0.7828  1.9691  0.8680
 7868TIP3    H245096   1.281   5.742   0.588 -1.2021  0.3908 -0.7676
 7869TIP3   OH245097   0.507   2.993  11.917 -0.2431  0.3906 -0.8997
 7869TIP3    H145098   0.592   2.985  11.874  0.0584  0.4479 -0.3229
 7869TIP3    H245099   0.453   3.041  11.854 -0.0185 -0.1146 -1.4984
 7870TIP3   OH245100   4.217   1.520   3.960 -0.3652  0.1160 -0.2088
 7870TIP3    H145101   4.140   1.576   3.965  0.8145  1.7592  0.5655
 7870TIP3    H245102   4.246   1.511   4.051  0.5396 -0.1946 -0.5167
 7871TIP3   OH245103   3.858   2.204  14.749 -0.1256  0.6086  0.0354
 7871TIP3    H145104   3.823   2.288  14.776 -0.3126  0.3585  0.5938
 7871TIP3    H245105   3.889   2.164  14.830 -0.6132 -0.1215 -0.1272
 7872TIP3   OH245106   5.384   1.158   0.639  0.4095 -0.4939 -0.3068
 7872TIP3    H145107   5.290   1.143   0.643  0.1168  1.2271  0.0151
 7872TIP3    H245108   5.421   1.095   0.701 -0.5321 -1.0950 -0.3402
 7873TIP3   OH245109   0.734   5.721   4.759 -0.0474 -0.2543  0.4967
 7873TIP3    H145110   0.666   5.734   4.694  1.0418  2.1744 -0.2908
 7873TIP3    H245111   0.694   5.749   4.842 -0.9241 -1.8220  0.6406
 7874TIP3   OH245112   6.233   5.400  14.947  0.6599 -0.2852  0.2865
 7874TIP3    H145113   6.267   5.469  14.890 -2.1156  0.5973 -0.4571
 7874TIP3    H245114   6.210   5.445  15.029  2.1578 -1.0535  1.1687
 7875TIP3   OH245115   2.388   5.538   0.036  0.0391 -0.1975 -0.3665
 7875TIP3    H145116   2.476   5.542  -0.002  1.0971 -0.4732  1.8674
 7875TIP3    H245117   2.337   5.487  -0.026  1.2936  0.4272 -1.9858
 7876TIP3   OH245118   1.957   4.483  12.288 -0.4537  0.6935  0.1025
 7876TIP3    H145119   1.890   4.504  12.352 -1.1487  0.8272 -0.6493
 7876TIP3    H245120   1.913   4.429  12.223  0.3541  0.1616 -0.0250
 7877TIP3   OH245121   4.463   2.440   3.554  0.3723  0.2423  0.4469
 7877TIP3    H145122   4.401   2.471   3.620  0.9037 -0.2788  1.2073
 7877TIP3    H245123   4.408   2.394   3.490 -0.4788  2.9148 -0.8814
 7878TIP3   OH245124   6.429   6.181   0.577 -0.6416 -0.1405  0.2156
 7878TIP3    H145125   6.351   6.220   0.536 -0.9365 -1.2023 -0.2760
 7878TIP3    H245126   6.445   6.235   0.653  0.0650  2.0522 -1.3916
 7879TIP3   OH245127   1.431   5.968  11.750  0.0344  0.2113 -0.3021
 7879TIP3    H145128   1.480   6.047  11.772  0.0391  0.4196 -1.0544
 7879TIP3    H245129   1.495   5.897  11.760  0.3570  0.4300 -0.7964
 7880TIP3   OH245130   1.005   6.665  12.126 -0.2360  0.6109 -0.1291
 7880TIP3    H145131   1.096   6.637  12.114  0.3236  2.5945 -1.0327
 7880TIP3    H245132   0.980   6.629  12.211  0.5204 -2.0549 -0.9213
 7881TIP3   OH245133   3.553   2.292   5.626  0.3562 -0.0031  0.1843
 7881TIP3    H145134   3.645   2.266   5.618 -0.2573 -2.8261  1.0760
 7881TIP3    H245135   3.537   2.295   5.720 -0.3905  0.8140  0.0412
 7882TIP3   OH245136   3.335   5.007  14.205 -0.4473 -0.7076  0.1811
 7882TIP3    H145137   3.354   4.988  14.297  0.9651  0.7941  0.2362
 7882TIP3    H245138   3.370   4.931  14.158 -0.2125 -0.9865  0.7928
 7883TIP3   OH245139   4.702   6.023  15.347 -0.3688  0.9929  0.5165
 7883TIP3    H145140   4.767   6.093  15.355  0.1362  0.7386 -1.1058
 7883TIP3    H245141   4.624   6.066  15.312 -0.2297  0.8368  0.0147
 7884TIP3   OH245142   2.926   4.019   2.333  0.0325 -0.1633  0.4125
 7884TIP3    H145143   2.960   4.046   2.418 -0.3411  1.0602  0.1866
 7884TIP3    H245144   2.934   3.923   2.333 -0.5700 -0.2412  2.0886
 7885TIP3   OH245145   0.332   2.226   4.501 -0.2305 -0.1757 -0.0870
 7885TIP3    H145146   0.253   2.280   4.502 -0.5856 -0.6315 -1.7799
 7885TIP3    H245147   0.335   2.188   4.413  1.0358 -1.4143  0.4530
 7886TIP3   OH245148   3.786   4.398   3.669  0.8701 -0.2537 -0.1122
 7886TIP3    H145149   3.727   4.426   3.599  0.6090  0.4610  0.3715
 7886TIP3    H245150   3.838   4.476   3.688  1.9102 -0.8394 -0.4499
 7887TIP3   OH245151   0.148   1.124  15.339 -0.1501  0.3905  0.3269
 7887TIP3    H145152   0.090   1.049  15.325 -0.2431  0.8806 -2.4714
 7887TIP3    H245153   0.224   1.107  15.283 -0.7563  2.9099 -1.4484
 7888TIP3   OH245154   2.425   2.826   5.519  0.0074  0.0770 -0.0528
 7888TIP3    H145155   2.377   2.789   5.593 -2.5712 -0.1733 -1.7311
 7888TIP3    H245156   2.437   2.918   5.542 -1.5641  0.2166  0.3484
 7889TIP3   OH245157   2.650   4.682   0.401 -0.5845 -0.8776 -0.1484
 7889TIP3    H145158   2.696   4.631   0.333  0.0081 -1.7724  0.8899
 7889TIP3    H245159   2.558   4.675   0.377 -0.5746 -2.9284  0.2372
 7890TIP3   OH245160   5.908   1.206   1.856  0.3311  0.3479 -0.4870
 7890TIP3    H145161   5.960   1.144   1.908 -1.1173  0.5126  1.2813
 7890TIP3    H245162   5.917   1.289   1.902  1.0449  1.1363 -1.9877
 7891TIP3   OH245163   3.673   2.849  16.398  0.0043 -0.6547  0.1330
 7891TIP3    H145164   3.756   2.805  16.410  0.3558 -0.1750 -0.4477
 7891TIP3    H245165   3.696   2.941  16.385 -0.7492 -0.1500  2.0712
 7892TIP3   OH245166   4.275   5.544   0.756  0.0813  0.5609  0.5067
 7892TIP3    H145167   4.326   5.501   0.825  1.1099  3.0665  1.4297
 7892TIP3    H245168   4.239   5.622   0.799 -0.7148  1.2649 -1.3561
 7893TIP3   OH245169   4.681   6.517   2.531 -0.6032 -0.0337 -0.5617
 7893TIP3    H145170   4.743   6.573   2.485  2.1938 -0.9686  1.7982
 7893TIP3    H245171   4.617   6.578   2.568  1.0619  1.4495  0.0427
 7894TIP3   OH245172   2.901   3.376  16.182  0.4909  0.4078 -0.4109
 7894TIP3    H145173   2.831   3.326  16.138  1.3644 -0.1685 -1.1927
 7894TIP3    H245174   2.862   3.462  16.198 -0.8780 -0.3288  0.4894
 7895TIP3   OH245175   2.753   4.272  11.403 -0.1151 -0.3116 -0.5034
 7895TIP3    H145176   2.672   4.234  11.436 -0.4161  0.5415 -0.2201
 7895TIP3    H245177   2.757   4.358  11.445  0.8428 -0.2716 -0.6642
 7896TIP3   OH245178   6.048   3.746   3.291 -0.0627 -0.1162 -0.4397
 7896TIP3    H145179   5.971   3.736   3.347 -0.5969 -0.0973 -1.1583
 7896TIP3    H245180   6.056   3.662   3.246  0.6447 -0.2968  0.0063
 7897TIP3   OH245181   6.014   2.241  16.514 -0.4387 -0.7911  0.5373
 7897TIP3    H145182   6.028   2.146  16.504  1.1282 -0.4024 -1.7154
 7897TIP3    H245183   6.099   2.280  16.492 -1.1991  1.1776  0.9088
 7898TIP3   OH245184   4.053   5.076   0.337  0.2310 -0.2425 -0.2382
 7898TIP3    H145185   4.093   5.103   0.420  0.1478 -1.4125  0.2034
 7898TIP3    H245186   4.007   4.995   0.359 -0.6239 -0.0338 -1.2113
 7899TIP3   OH245187   6.167   4.994  15.261  0.3863  0.8628 -0.4731
 7899TIP3    H145188   6.142   4.902  15.249 -0.7119  1.0195  0.4794
 7899TIP3    H245189   6.262   4.995  15.245  0.4412 -0.4652 -0.3276
 7900TIP3   OH245190   5.472   5.776  12.882 -0.4209  0.4517  0.0439
 7900TIP3    H145191   5.464   5.869  12.864  0.9333  1.0620  2.2992
 7900TIP3    H245192   5.546   5.747  12.828 -1.0800  0.5505 -0.9456
 7901TIP3   OH245193   2.448   4.602  13.981  0.2557  0.6428  0.0715
 7901TIP3    H145194   2.540   4.625  13.995  0.4892 -0.8356  1.2690
 7901TIP3    H245195   2.447   4.507  13.978 -1.0333  0.6556 -1.7363
 7902TIP3   OH245196   0.894   1.107   5.084  0.4631  0.5691 -0.1674
 7902TIP3    H145197   0.942   1.190   5.079  0.4376  0.6652  0.8106
 7902TIP3    H245198   0.902   1.082   5.176  0.4855 -0.5315 -0.4626
 7903TIP3   OH245199   3.549   5.494   0.222  0.1737  0.3516 -0.1411
 7903TIP3    H145200   3.587   5.415   0.183  0.6222  0.1966  0.5778
 7903TIP3    H245201   3.536   5.471   0.314  1.9117  1.6574  0.4876
 7904TIP3   OH245202   3.736   4.966   4.184 -0.9256  0.3434 -0.1224
 7904TIP3    H145203   3.724   4.955   4.278 -1.8404 -2.2593 -0.4516
 7904TIP3    H245204   3.664   5.023   4.157 -0.7346  1.0007  0.7160
 7905TIP3   OH245205   2.181   5.826  14.418 -0.2890  0.2159 -0.4987
 7905TIP3    H145206   2.129   5.754  14.384  0.7829 -0.8576  0.0566
 7905TIP3    H245207   2.175   5.817  14.513  1.2191 -0.2036 -0.4127
 7906TIP3   OH245208   0.755   3.851  12.987 -0.2009  0.2022 -0.0858
 7906TIP3    H145209   0.819   3.918  13.012  0.7174  0.8464 -3.5571
 7906TIP3    H245210   0.787   3.818  12.903 -3.0892 -1.3251 -0.7221
 7907TIP3   OH245211   1.089   1.087  13.691  0.2464 -0.2419  0.4030
 7907TIP3    H145212   1.118   1.178  13.700 -0.5461  0.2400 -1.3624
 7907TIP3    H245213   1.106   1.047  13.776  0.8989  1.4775  1.1182
 7908TIP3   OH245214   6.292   3.567  13.181 -0.0623 -0.2414 -0.2916
 7908TIP3    H145215   6.307   3.567  13.086  1.0149 -2.1167 -0.1972
 7908TIP3    H245216   6.269   3.476  13.201 -1.8980  0.4668  1.0553
 7909TIP3   OH245217   2.599   2.911   3.667  0.3570  0.5828  0.5714
 7909TIP3    H145218   2.630   2.985   3.616 -0.6002  0.8998  0.4264
 7909TIP3    H245219   2.630   2.833   3.620 -1.9427  0.8036 -1.5235
 7910TIP3   OH245220   5.740   1.938   0.051 -0.3346 -0.0817 -0.1568
 7910TIP3    H145221   5.817   1.888   0.025 -0.6105 -0.6825  0.1731
 7910TIP3    H245222   5.728   1.919   0.144 -0.4106  0.6476 -0.0080
 7911TIP3   OH245223   3.429   4.009  16.101  0.0512 -0.0134  0.3589
 7911TIP3    H145224   3.518   3.989  16.073 -0.2844 -1.5367  0.2536
 7911TIP3    H245225   3.383   4.032  16.020  0.5137  1.5433  0.5166
 7912TIP3   OH245226   1.976   5.135   1.820 -0.2515  0.3740 -0.3841
 7912TIP3    H145227   1.959   5.041   1.824 -0.8246  0.5307  1.8951
 7912TIP3    H245228   2.049   5.149   1.880 -0.3947  1.4264 -0.4392
 7913TIP3   OH245229   2.489   6.123   1.447  0.0057  0.3095  0.6438
 7913TIP3    H145230   2.481   6.160   1.359 -3.1315  1.3367  1.2254
 7913TIP3    H245231   2.436   6.044   1.445  0.4912 -0.0503  1.4314
 7914TIP3   OH245232   5.202   4.581   0.034 -0.3884  0.0321 -0.2986
 7914TIP3    H145233   5.122   4.535   0.060 -0.6893 -0.6660 -2.2411
 7914TIP3    H245234   5.243   4.523  -0.031  2.2176 -0.0770  1.2786
 7915TIP3   OH245235   1.488   0.073   3.087 -0.1987  0.3034 -0.2792
 7915TIP3    H145236   1.479   0.002   3.150  1.6012  0.2165 -0.0629
 7915TIP3    H245237   1.560   0.046   3.030 -1.1241  0.8437 -1.7636
 7916TIP3   OH245238   1.616   2.014  16.888  0.1483  0.2867  0.5468
 7916TIP3    H145239   1.648   2.047  16.972 -1.6314  0.7813  1.0793
 7916TIP3    H245240   1.649   1.924  16.884  0.5193  0.3537  1.6408
 7917TIP3   OH245241   6.384   2.423   4.607  0.3279 -0.9048  0.1619
 7917TIP3    H145242   6.357   2.421   4.699  0.3054  0.6014  0.2107
 7917TIP3    H245243   6.459   2.483   4.605 -1.2818  1.2332 -1.1468
 7918TIP3   OH245244   2.495   4.761  13.416  0.1472 -0.3067 -0.0541
 7918TIP3    H145245   2.562   4.763  13.485 -0.6668 -0.2946  0.7622
 7918TIP3    H245246   2.444   4.841  13.430 -0.0236 -0.3013 -0.6849
 7919TIP3   OH245247   3.789   2.504   3.555  0.4163 -0.7299  0.1237
 7919TIP3    H145248   3.764   2.590   3.589  0.4220 -0.1244 -1.3327
 7919TIP3    H245249   3.834   2.462   3.628 -0.5357  0.0666  1.2140
 7920TIP3   OH245250   2.200   5.127   2.103  0.5585  0.3312 -0.0840
 7920TIP3    H145251   2.270   5.130   2.168  0.5436 -0.0448 -0.0429
 7920TIP3    H245252   2.158   5.042   2.118  0.4802  0.2930 -0.5066
 7921TIP3   OH245253   6.205   4.376   2.196  0.4114 -0.3527 -0.4172
 7921TIP3    H145254   6.299   4.366   2.181  0.8229 -1.0205  2.1760
 7921TIP3    H245255   6.177   4.292   2.232 -0.5149  0.7582  1.6288
 7922TIP3   OH245256   1.003   4.160  16.164  0.0137 -0.2929  0.4280
 7922TIP3    H145257   1.089   4.181  16.200  1.3116 -3.2086 -0.6533
 7922TIP3    H245258   0.971   4.089  16.219 -1.0478 -0.2507 -0.1100
 7923TIP3   OH245259   0.094   1.049  13.856 -0.3805 -0.7179  0.5199
 7923TIP3    H145260   0.048   0.967  13.873  0.2126 -0.6341  2.9788
 7923TIP3    H245261   0.046   1.089  13.784 -2.2119 -2.0789  0.9096
 7924TIP3   OH245262   0.681   0.997   0.292  0.1582 -0.1780  0.2464
 7924TIP3    H145263   0.693   0.959   0.205 -1.6911 -2.7884  1.0362
 7924TIP3    H245264   0.747   0.955   0.347 -0.1319 -0.2234  0.5688
 7925TIP3   OH245265   5.044   5.751  13.896 -0.0853  0.0824  0.2767
 7925TIP3    H145266   4.977   5.818  13.893 -1.5601 -1.3542 -0.5288
 7925TIP3    H245267   5.061   5.729  13.804  3.4531  2.1917  0.2343
 7926TIP3   OH245268   3.661   6.017   6.233  0.1638  0.2471 -0.5440
 7926TIP3    H145269   3.736   5.960   6.244 -0.3160 -0.0074  2.3705
 7926TIP3    H245270   3.694   6.105   6.251 -0.2628  0.0613  1.4209
 7927TIP3   OH245271   4.236   6.532  13.215  0.3903 -0.0696  0.4531
 7927TIP3    H145272   4.175   6.532  13.141  0.9809 -1.2241 -0.0551
 7927TIP3    H245273   4.229   6.443  13.251 -0.0450  0.5327  1.9347
 7928TIP3   OH245274   4.475   6.517   3.981 -0.3993  0.2941  0.7646
 7928TIP3    H145275   4.396   6.563   3.953  0.7680  0.8140 -1.9835
 7928TIP3    H245276   4.448   6.467   4.058 -3.8778 -0.9262 -1.0282
 7929TIP3   OH245277   1.773   0.178   0.213  0.5274  0.1549  0.1024
 7929TIP3    H145278   1.797   0.133   0.294 -1.1243  0.8904  1.0490
 7929TIP3    H245279   1.688   0.142   0.189  0.1178  1.3012 -0.2375
 7930TIP3   OH245280   4.788   3.853   0.053  0.6690  0.2440  0.2651
 7930TIP3    H145281   4.785   3.846  -0.043 -1.6928 -2.9301  0.3950
 7930TIP3    H245282   4.754   3.940   0.072  1.5130  1.0727 -1.7472
 7931TIP3   OH245283   6.728   0.712  11.816  0.2433  0.3174  0.0123
 7931TIP3    H145284   6.780   0.761  11.880 -2.7464  1.9598  1.3802
 7931TIP3    H245285   6.789   0.646  11.782  2.6272  0.7602  2.9249
 7932TIP3   OH245286   3.808   4.736  13.397  0.3952  0.0461  0.6534
 7932TIP3    H145287   3.895   4.750  13.358  0.7318  0.8292  1.6413
 7932TIP3    H245288   3.770   4.824  13.404 -0.8585 -0.3589 -0.5601
 7933TIP3   OH245289   2.590   5.177  16.514  0.1079  0.1108 -0.3325
 7933TIP3    H145290   2.575   5.088  16.482  1.0913 -0.1431 -0.1555
 7933TIP3    H245291   2.614   5.165  16.607  0.6979  0.5028 -0.4247
 7934TIP3   OH245292   1.289   5.172   1.007  0.1663  0.1119  0.1112
 7934TIP3    H145293   1.258   5.262   1.016 -1.3280 -0.3447 -0.1499
 7934TIP3    H245294   1.231   5.133   0.942  1.5844 -0.7040 -0.7241
 7935TIP3   OH245295   0.019   4.899   0.679  0.0008 -0.0406  0.0071
 7935TIP3    H145296  -0.012   4.922   0.767 -1.0505  1.3941 -0.6892
 7935TIP3    H245297  -0.061   4.876   0.631  0.7262 -2.5961 -0.1420
 7936TIP3   OH245298   1.174   0.946  15.135  0.5552  0.1737  0.4372
 7936TIP3    H145299   1.192   0.857  15.105 -0.9044  0.5357 -1.7524
 7936TIP3    H245300   1.202   1.002  15.062 -1.7983  1.2292  0.2457
 7937TIP3   OH245301   6.327   5.899  12.130 -0.3224  0.3949  0.3219
 7937TIP3    H145302   6.237   5.930  12.133 -1.3080 -2.1381 -0.6360
 7937TIP3    H245303   6.351   5.903  12.038 -0.1943 -0.8455  0.2925
 7938TIP3   OH245304   0.121   0.790  10.977 -0.1277 -0.1979  0.4272
 7938TIP3    H145305   0.124   0.727  10.905  1.3085  1.0739 -0.6921
 7938TIP3    H245306   0.028   0.804  10.993 -0.4907 -0.2668 -1.4336
 7939TIP3   OH245307   1.944   1.895   1.916  0.5831 -0.1798  0.5416
 7939TIP3    H145308   1.892   1.878   1.838  1.8967  1.2535 -0.7137
 7939TIP3    H245309   2.031   1.860   1.895  1.1959  1.0306  0.9705
 7940TIP3   OH245310   1.249   3.010   4.035 -0.1562  0.0613 -0.1855
 7940TIP3    H145311   1.268   2.966   3.952  3.6061 -1.4477  1.2317
 7940TIP3    H245312   1.325   3.067   4.049 -0.3953 -0.1586  2.4245
 7941TIP3   OH245313   2.747   4.806   2.087 -0.3396  0.3921  0.3129
 7941TIP3    H145314   2.785   4.780   2.171 -1.8200 -1.5391  0.4655
 7941TIP3    H245315   2.719   4.723   2.047 -0.9790  1.4002 -1.4439
 7942TIP3   OH245316   4.374   3.404  11.150 -0.5993 -0.3954 -0.5518
 7942TIP3    H145317   4.368   3.319  11.106 -0.2795 -0.8981  0.3545
 7942TIP3    H245318   4.354   3.467  11.082 -2.0836 -1.2621 -0.9661
 7943TIP3   OH245319   1.213   2.828  13.234 -0.6550 -0.2424  0.2712
 7943TIP3    H145320   1.265   2.900  13.196 -2.5459  0.5252 -0.9872
 7943TIP3    H245321   1.263   2.749  13.213  0.2157  0.4883 -0.5204
 7944TIP3   OH245322   6.474   1.379   3.225  0.4524 -0.1454  0.4516
 7944TIP3    H145323   6.559   1.391   3.266 -0.1756  0.5853  1.5903
 7944TIP3    H245324   6.471   1.444   3.155  1.2269 -0.8904 -0.3034
 7945TIP3   OH245325   6.688   2.089  13.814  0.5824  0.1435 -0.6608
 7945TIP3    H145326   6.733   2.171  13.792  2.2629 -0.4366  0.4101
 7945TIP3    H245327   6.645   2.063  13.733  1.9389  0.9202 -1.6823
 7946TIP3   OH245328   1.063   5.323  11.576 -0.4753 -0.1383  0.1196
 7946TIP3    H145329   0.983   5.368  11.549 -0.7991 -2.2546 -3.0888
 7946TIP3    H245330   1.072   5.251  11.513  4.6411  0.6879 -0.5448
 7947TIP3   OH245331   6.118   0.278  11.949  0.4486 -0.2911 -0.0666
 7947TIP3    H145332   6.149   0.366  11.930 -0.6064 -0.1974 -1.5280
 7947TIP3    H245333   6.046   0.264  11.888 -1.3759 -1.0790  2.1068
 7948TIP3   OH245334   1.852   5.835  16.561  0.7738  0.3833 -0.3102
 7948TIP3    H145335   1.862   5.925  16.529 -0.2953  1.3763  1.9042
 7948TIP3    H245336   1.825   5.845  16.653  0.6010 -2.2126  0.0029
 7949TIP3   OH245337   0.509   3.475   2.572 -0.1960 -0.0825 -0.3008
 7949TIP3    H145338   0.413   3.471   2.563 -0.2606  1.1911 -0.2830
 7949TIP3    H245339   0.541   3.403   2.517 -1.0262  1.3894 -2.8398
 7950TIP3   OH245340   2.936   3.094   5.324  0.3119  0.0420  0.0577
 7950TIP3    H145341   3.000   3.157   5.356 -0.5968  0.1676  1.7518
 7950TIP3    H245342   2.896   3.058   5.404 -1.5203 -0.2162 -0.9315
 7951TIP3   OH245343   3.495   2.091   2.955  0.0741  0.3060  0.0976
 7951TIP3    H145344   3.407   2.110   2.923 -0.7481  0.0866  2.0858
 7951TIP3    H245345   3.515   2.163   3.014  1.1261  0.1916 -0.0985
 7952TIP3   OH245346   0.764   1.594  11.300 -0.0372 -0.4060  0.0013
 7952TIP3    H145347   0.727   1.512  11.266 -3.0742  0.6376  0.4650
 7952TIP3    H245348   0.778   1.577  11.393 -1.6357 -0.1605  0.3170
 7953TIP3   OH245349   1.833   1.472  10.664  0.6553  0.6373  0.0624
 7953TIP3    H145350   1.882   1.405  10.615  1.0983  0.4864  0.7004
 7953TIP3    H245351   1.838   1.550  10.609 -2.2019 -0.5083 -2.0498
 7954TIP3   OH245352   6.746   4.565  14.331  0.5725 -0.3105  0.3246
 7954TIP3    H145353   6.723   4.473  14.341 -1.3494  0.1453  0.4769
 7954TIP3    H245354   6.704   4.592  14.249  1.2242  0.4054  0.2114
 7955TIP3   OH245355   5.898   3.478   1.596  0.6748 -0.1702 -0.0515
 7955TIP3    H145356   5.936   3.533   1.665  0.6393  1.1796 -1.0590
 7955TIP3    H245357   5.955   3.401   1.593  1.3417  0.2714  0.7212
 7956TIP3   OH245358   0.029   2.364  14.218  0.5122 -0.0220 -0.4549
 7956TIP3    H145359   0.123   2.348  14.210  0.3157 -1.0227 -0.8724
 7956TIP3    H245360  -0.009   2.318  14.144 -0.5197 -1.5114  0.9440
 7957TIP3   OH245361   0.720   2.444   5.166 -0.9339  0.2437  0.0436
 7957TIP3    H145362   0.779   2.412   5.098 -0.0970  2.2266 -0.2319
 7957TIP3    H245363   0.633   2.435   5.128 -0.4575  1.7801 -1.5610
 7958TIP3   OH245364   5.492   5.605   2.127 -0.4016  0.4415 -0.3895
 7958TIP3    H145365   5.489   5.645   2.040  0.1895  1.6725  0.1319
 7958TIP3    H245366   5.537   5.670   2.181  1.3352 -1.2525  0.3282
 7959TIP3   OH245367   5.612   5.714  14.102  0.2232 -0.5698  0.2781
 7959TIP3    H145368   5.648   5.665  14.027 -0.6446 -0.4721 -0.2153
 7959TIP3    H245369   5.648   5.802  14.092 -1.8924  0.1809 -1.5368
 7960TIP3   OH245370   3.787   2.712   2.674 -0.4668  0.5500  0.0260
 7960TIP3    H145371   3.847   2.750   2.610 -1.3401  2.2924  0.2042
 7960TIP3    H245372   3.839   2.702   2.753  0.1688 -0.0559 -0.4524
 7961TIP3   OH245373   1.580   1.018   5.745 -0.1496  0.1336 -0.0655
 7961TIP3    H145374   1.602   1.070   5.668  2.9639 -3.3104 -1.8006
 7961TIP3    H245375   1.484   1.009   5.740 -0.2199  1.2854 -2.6400
 7962TIP3   OH245376   0.893   0.322  15.339  0.5292 -0.4576 -0.5364
 7962TIP3    H145377   0.911   0.378  15.414  1.0793  0.5100 -1.3662
 7962TIP3    H245378   0.801   0.296  15.349  0.0236  1.2476 -0.5340
 7963TIP3   OH245379   4.340   2.735   1.071 -0.0263 -0.6361 -0.2814
 7963TIP3    H145380   4.348   2.739   1.167  0.5029 -1.3873 -0.2837
 7963TIP3    H245381   4.280   2.662   1.055 -1.7913  0.7902 -0.4817
 7964TIP3   OH245382   4.199   6.417   4.928  0.3381 -0.5828  0.2552
 7964TIP3    H145383   4.232   6.359   4.859  0.5415  3.8632 -3.9272
 7964TIP3    H245384   4.104   6.404   4.927  0.4121 -1.1194 -0.2992
 7965TIP3   OH245385   0.214   2.184  10.420 -0.1812  0.1026  0.2488
 7965TIP3    H145386   0.192   2.190  10.327  1.1012 -1.9986 -0.2696
 7965TIP3    H245387   0.173   2.261  10.460  0.2534  1.7380 -2.2334
 7966TIP3   OH245388   0.981   4.525  16.774 -0.7684 -0.3816  0.0506
 7966TIP3    H145389   1.066   4.531  16.730 -0.2512  0.3089  1.0924
 7966TIP3    H245390   0.918   4.511  16.704 -0.1673  2.1272 -1.0971
 7967TIP3   OH245391   6.115   3.578   2.929  0.3685 -0.2121 -0.3575
 7967TIP3    H145392   6.188   3.533   2.887  0.9737  0.5271 -0.1064
 7967TIP3    H245393   6.131   3.671   2.914 -0.7181 -0.0464 -0.6178
 7968TIP3   OH245394   4.072   3.312  16.539  0.9323  0.9758 -0.0275
 7968TIP3    H145395   3.995   3.328  16.594 -0.4496 -0.4224 -1.4359
 7968TIP3    H245396   4.059   3.369  16.463  1.5934  1.1563 -0.0067
 7969TIP3   OH245397   2.670   2.360   5.580  0.2099 -0.5430 -0.2898
 7969TIP3    H145398   2.723   2.342   5.503 -2.6855  1.5758 -3.0428
 7969TIP3    H245399   2.683   2.454   5.596  2.5733 -1.2834  3.5288
 7970TIP3   OH245400   4.127   1.292  14.543 -0.2160  0.4955 -0.7660
 7970TIP3    H145401   4.039   1.275  14.576  0.4239 -1.3428  0.1389
 7970TIP3    H245402   4.128   1.251  14.456 -0.0662 -0.0472 -0.5104
 7971TIP3   OH245403   4.219   5.486   1.972  0.1988  0.4356  0.2325
 7971TIP3    H145404   4.185   5.554   1.914  1.3963  0.5672 -0.3434
 7971TIP3    H245405   4.304   5.518   2.000 -0.2894  0.3033  1.9783
 7972TIP3   OH245406   4.971   5.021  14.718  0.0651  0.2625  0.2737
 7972TIP3    H145407   5.022   5.037  14.798  1.4172  1.1873 -0.7188
 7972TIP3    H245408   4.997   5.092  14.659 -2.3057  0.6881 -0.3610
 7973TIP3   OH245409   1.552   1.533   0.294 -0.6022 -0.0824 -0.2386
 7973TIP3    H145410   1.520   1.595   0.360 -0.0847  1.2427 -1.1833
 7973TIP3    H245411   1.487   1.537   0.224  0.1885  0.5557 -0.9625
 7974TIP3   OH245412   3.740   6.480  11.152 -0.1236 -0.2773 -0.1682
 7974TIP3    H145413   3.669   6.417  11.141 -1.1168  0.7290  0.2337
 7974TIP3    H245414   3.706   6.542  11.217  1.6885 -0.5680  1.1014
 7975TIP3   OH245415   1.047   6.729   4.927  0.0961 -0.2627  0.6387
 7975TIP3    H145416   0.982   6.737   4.856  0.5753  0.3454  0.2596
 7975TIP3    H245417   1.048   6.816   4.967  0.9415 -0.1620  0.4058
 7976TIP3   OH245418   0.226   5.757  15.409  0.3574 -0.0423  0.3352
 7976TIP3    H145419   0.211   5.849  15.389 -0.8812  0.0341  1.4362
 7976TIP3    H245420   0.156   5.734  15.470  1.5736 -1.2873  1.3395
 7977TIP3   OH245421   6.492   3.995   3.835 -0.6054  0.3323  0.1984
 7977TIP3    H145422   6.441   4.021   3.912  1.2277 -0.4796  1.7976
 7977TIP3    H245423   6.437   3.934   3.788 -1.1388 -0.5045  1.8478
 7978TIP3   OH245424   1.046   0.984  10.321  0.3243 -0.3095  0.4401
 7978TIP3    H145425   1.038   0.895  10.288 -0.4850  0.4477 -1.5076
 7978TIP3    H245426   1.132   0.986  10.363  1.3329 -1.4173 -1.4377
 7979TIP3   OH245427   6.228   2.704  14.463 -0.1998  0.4029 -0.2267
 7979TIP3    H145428   6.270   2.726  14.546 -0.5964 -0.9434  0.3578
 7979TIP3    H245429   6.220   2.609  14.465 -2.4977  0.5394 -0.6858
 7980TIP3   OH245430   1.829   6.464   3.324 -0.3178 -0.1840 -0.1849
 7980TIP3    H145431   1.844   6.503   3.239 -0.4929 -0.8703 -0.5362
 7980TIP3    H245432   1.904   6.492   3.377 -0.4825  0.6852 -0.3985
 7981TIP3   OH245433   3.277   1.269  14.901 -0.1757  0.0048  0.0891
 7981TIP3    H145434   3.199   1.250  14.953  0.0554  0.5024  0.6225
 7981TIP3    H245435   3.309   1.353  14.933  0.3652 -0.0069 -0.3851
 7982TIP3   OH245436   0.970   4.380  10.559  0.2047  0.2438 -0.1564
 7982TIP3    H145437   0.899   4.377  10.496 -1.1208 -2.8009  1.3010
 7982TIP3    H245438   0.938   4.330  10.634  3.7752 -1.0246  0.7056
 7983TIP3   OH245439   1.232   1.010  13.952  0.4304  0.1678 -0.6359
 7983TIP3    H145440   1.246   0.971  14.038 -2.2684 -1.4683 -0.8304
 7983TIP3    H245441   1.199   1.098  13.971  0.4353  0.0383 -0.0192
 7984TIP3   OH245442   2.490   0.974  11.950 -0.6147 -0.0724 -0.2220
 7984TIP3    H145443   2.515   0.998  11.861 -3.0310 -2.1812 -1.6166
 7984TIP3    H245444   2.533   0.889  11.965  1.0384  0.9606  1.3203
 7985TIP3   OH245445   5.236   4.366  12.887 -0.5683  0.0437 -0.2778
 7985TIP3    H145446   5.281   4.309  12.826  2.4389  0.0832  1.6790
 7985TIP3    H245447   5.238   4.452  12.846 -1.8761 -0.5397 -1.6461
 7986TIP3   OH245448   3.065   1.754   2.886 -0.1930 -0.6416 -0.4952
 7986TIP3    H145449   2.989   1.749   2.828 -0.8572 -0.0929  0.3035
 7986TIP3    H245450   3.121   1.681   2.859 -1.5970 -1.8441 -0.2685
 7987TIP3   OH245451   3.592   1.302  14.821 -0.4150  0.0387 -0.3720
 7987TIP3    H145452   3.559   1.278  14.907  0.3056 -0.0735 -0.1201
 7987TIP3    H245453   3.516   1.335  14.774 -0.3338  2.8108  1.2495
 7988TIP3   OH245454   6.307   6.143   1.808 -0.3820 -0.4788 -0.2909
 7988TIP3    H145455   6.293   6.163   1.716  1.7332 -0.3078 -0.6390
 7988TIP3    H245456   6.361   6.064   1.807  0.7266  0.2347  0.7299
 7989TIP3   OH245457   0.450   1.747  12.463 -0.3355 -0.1627  0.2035
 7989TIP3    H145458   0.405   1.672  12.425 -0.2587 -0.3294  0.4396
 7989TIP3    H245459   0.483   1.715  12.547 -0.5716  0.2267  0.4467
 7990TIP3   OH245460   4.231   4.522  12.441 -0.2631  0.5950  0.0876
 7990TIP3    H145461   4.309   4.502  12.493 -0.4132  1.0911  0.5178
 7990TIP3    H245462   4.213   4.614  12.460  0.1828  1.0514 -1.5371
 7991TIP3   OH245463   5.158   2.340   3.105  0.5675 -0.4289 -0.2869
 7991TIP3    H145464   5.159   2.435   3.122 -2.6346 -0.5628  1.3880
 7991TIP3    H245465   5.191   2.301   3.185  0.2278 -0.7503 -0.3019
 7992TIP3   OH245466   5.580   2.034  16.928 -0.1969 -0.0264  0.5623
 7992TIP3    H145467   5.497   2.075  16.952  0.2218  0.8270  0.5804
 7992TIP3    H245468   5.620   2.010  17.012 -0.1804  0.0555  0.5778
 7993TIP3   OH245469   5.074   2.203  16.884 -0.7798  0.3793 -0.7097
 7993TIP3    H145470   5.076   2.289  16.842  0.5668 -0.2029 -1.9394
 7993TIP3    H245471   5.030   2.146  16.820  0.3990 -0.3105 -0.9440
 7994TIP3   OH245472   0.939   0.557   2.361 -0.0353 -0.0965 -0.0370
 7994TIP3    H145473   1.008   0.512   2.409  0.5328  1.8110  1.0639
 7994TIP3    H245474   0.858   0.514   2.389  0.6486 -2.2237 -1.1819
 7995TIP3   OH245475   2.921   0.479   2.154  0.4132  0.4411  0.2335
 7995TIP3    H145476   2.860   0.545   2.122  0.4855 -0.3817 -1.7391
 7995TIP3    H245477   3.007   0.511   2.128  0.6250  0.5163  1.0172
 7996TIP3   OH245478   3.834   0.357  11.419 -0.1588 -0.2991  0.0366
 7996TIP3    H145479   3.915   0.408  11.418  0.2354 -0.9185 -0.7191
 7996TIP3    H245480   3.777   0.404  11.480 -0.1747  1.5976 -1.3407
 7997TIP3   OH245481   1.024   6.621  14.452  0.3919  0.3884 -0.8482
 7997TIP3    H145482   1.093   6.554  14.454 -0.5441 -0.5721  0.2083
 7997TIP3    H245483   1.020   6.648  14.360 -0.1716 -2.0457 -1.6154
 7998TIP3   OH245484   0.119   6.218  12.441 -0.1854 -0.5408  0.1905
 7998TIP3    H145485   0.091   6.250  12.527 -1.8420 -0.5708 -0.3192
 7998TIP3    H245486   0.126   6.123  12.452  2.2490 -0.3378  0.9951
 7999TIP3   OH245487   3.359   1.366   4.251 -0.6294 -0.4587  0.1582
 7999TIP3    H145488   3.411   1.443   4.225 -1.5383 -0.6406 -2.5423
 7999TIP3    H245489   3.408   1.292   4.214 -0.8153 -0.9948  0.9757
 8000TIP3   OH245490   2.852   0.441  16.149  0.0447  0.2818  0.1654
 8000TIP3    H145491   2.809   0.471  16.069 -1.2030 -0.9380  0.3232
 8000TIP3    H245492   2.789   0.379  16.188  0.6670  0.7367  2.0148
 8001TIP3   OH245493   2.680   6.298  12.768  0.3126  0.3826  0.3382
 8001TIP3    H145494   2.742   6.226  12.764 -0.1906 -0.0254 -0.2987
 8001TIP3    H245495   2.662   6.308  12.862  1.4463  0.6214  0.5453
 8002TIP3   OH245496   0.660   2.287  11.529  0.4854  0.3020  0.2367
 8002TIP3    H145497   0.710   2.247  11.458  1.8178  1.1118  0.6768
 8002TIP3    H245498   0.584   2.326  11.487  1.3696  0.9577 -0.7806
 8003TIP3   OH245499   5.376   2.339   0.784  0.2022  0.5760 -0.0360
 8003TIP3    H145500   5.392   2.434   0.782 -1.8489  0.9766 -0.6108
 8003TIP3    H245501   5.369   2.317   0.877 -2.2865  1.6374  0.1059
 8004TIP3   OH245502   0.593   3.385  11.129 -0.0027  0.3543 -0.2284
 8004TIP3    H145503   0.500   3.404  11.119 -0.0807 -0.4019 -1.0440
 8004TIP3    H245504   0.630   3.402  11.042  0.7554  1.3308  0.2585
 8005TIP3   OH245505   3.565   4.255   3.794  0.3274 -0.2402 -0.4963
 8005TIP3    H145506   3.580   4.206   3.875  0.6850 -0.5011 -0.7183
 8005TIP3    H245507   3.652   4.272   3.759  0.2397  0.9719 -0.1898
 8006TIP3   OH245508   4.338   2.771  11.176  0.4905  0.2750 -0.3753
 8006TIP3    H145509   4.315   2.829  11.103  1.6809 -0.7424 -1.6080
 8006TIP3    H245510   4.371   2.692  11.135  0.6573 -0.5642  1.2872
 8007TIP3   OH245511   0.443   0.522   4.843 -0.2068  0.5794  0.3622
 8007TIP3    H145512   0.406   0.610   4.837  0.9618  1.3223  2.6190
 8007TIP3    H245513   0.497   0.513   4.765 -1.4588  1.2656 -0.6237
 8008TIP3   OH245514   4.750   3.321  11.513  0.3580  0.1642  0.0483
 8008TIP3    H145515   4.718   3.374  11.441  2.1254  0.1362 -0.7845
 8008TIP3    H245516   4.687   3.248  11.518 -0.6750  0.9963 -0.3920
 8009TIP3   OH245517   3.932   3.941   3.146  0.5357 -0.2467  0.2211
 8009TIP3    H145518   3.933   3.886   3.067  1.3603  0.2361 -0.1224
 8009TIP3    H245519   3.897   3.884   3.214 -0.4881 -0.5806 -0.5502
 8010TIP3   OH245520   6.350   2.576  13.545  0.1509 -0.1109 -0.0145
 8010TIP3    H145521   6.382   2.530  13.468 -0.2920 -1.6818  0.7032
 8010TIP3    H245522   6.410   2.551  13.615 -1.0257 -0.9297  0.7430
 8011TIP3   OH245523   3.531   4.080   3.582  0.2051 -0.4754 -0.5384
 8011TIP3    H145524   3.464   4.018   3.554 -0.4983 -1.0588  2.1519
 8011TIP3    H245525   3.546   4.059   3.674 -0.1169  3.3616  0.5618
 8012TIP3   OH245526   1.931   3.899   6.212 -0.2800 -0.2372 -0.1688
 8012TIP3    H145527   1.979   3.918   6.132 -2.1702  2.1807 -0.8597
 8012TIP3    H245528   1.951   3.808   6.232  3.5538  0.2796 -1.0030
 8013TIP3   OH245529   3.499   0.343  12.221 -0.0552  0.1788  0.1531
 8013TIP3    H145530   3.495   0.280  12.293 -0.3777 -0.2192 -0.2053
 8013TIP3    H245531   3.524   0.290  12.145 -1.8721  0.1670 -0.4904
 8014TIP3   OH245532   1.741   5.185  14.317 -0.5906 -0.1971 -0.1631
 8014TIP3    H145533   1.770   5.261  14.367 -0.1356 -1.9503  2.4395
 8014TIP3    H245534   1.821   5.143  14.288 -0.8490  0.7976 -2.5574
 8015TIP3   OH245535   4.911   1.275  16.118 -0.3913 -0.0165  0.4847
 8015TIP3    H145536   4.863   1.306  16.195 -1.5101 -3.3262  1.3298
 8015TIP3    H245537   5.003   1.282  16.141 -0.7022 -0.2289  1.8487
 8016TIP3   OH245538   0.528   4.514  11.774  0.3838 -0.0537  0.1974
 8016TIP3    H145539   0.513   4.424  11.746 -0.8748  0.1547  0.1541
 8016TIP3    H245540   0.536   4.564  11.692 -0.9095  0.1722  0.1837
 8017TIP3   OH245541   2.880   4.888   3.487 -0.1057  0.2030 -0.6060
 8017TIP3    H145542   2.844   4.899   3.399  1.7496  0.1854 -1.4132
 8017TIP3    H245543   2.825   4.821   3.527 -1.2442  0.5167 -1.5826
 8018TIP3   OH245544   4.799   3.823  10.962  0.0838 -0.8710 -0.2500
 8018TIP3    H145545   4.785   3.917  10.965  0.1720 -0.8643 -0.0271
 8018TIP3    H245546   4.739   3.792  10.894  0.1263 -0.6426 -0.3925
 8019TIP3   OH245547   3.752   2.158   5.372 -0.6831  0.6205  0.2093
 8019TIP3    H145548   3.705   2.100   5.432 -0.3252 -1.1852 -1.1654
 8019TIP3    H245549   3.835   2.176   5.417 -0.0525 -1.4130 -0.0306
 8020TIP3   OH245550   3.941   0.609  15.672  0.1571  0.3640 -0.1238
 8020TIP3    H145551   3.861   0.597  15.621  0.6337  1.3033 -1.1405
 8020TIP3    H245552   3.977   0.521  15.682 -0.0401  0.1476 -1.2674
 8021TIP3   OH245553   4.422   4.048   3.383 -0.1049  0.5540  0.3615
 8021TIP3    H145554   4.357   4.061   3.313 -1.3286  0.2797  1.4050
 8021TIP3    H245555   4.435   4.136   3.419 -0.0477  0.5786  0.2820
 8022TIP3   OH245556   3.321   6.477  13.502 -0.5770  0.2341 -0.1748
 8022TIP3    H145557   3.290   6.474  13.411 -0.8625  1.4880 -0.1344
 8022TIP3    H245558   3.242   6.489  13.554 -0.2594  1.3729  0.0829
 8023TIP3   OH245559   1.702   3.236  11.659 -0.0718 -0.0331  0.6832
 8023TIP3    H145560   1.749   3.154  11.674  0.7238  0.5982  1.7457
 8023TIP3    H245561   1.672   3.263  11.745 -1.9520 -0.1134  0.1107
 8024TIP3   OH245562   5.557   2.375  13.874 -0.4678 -0.5730  0.2607
 8024TIP3    H145563   5.508   2.362  13.955  0.4263  0.5969  1.0283
 8024TIP3    H245564   5.490   2.399  13.810 -0.9796  0.6287  1.1952
 8025TIP3   OH245565   0.323   3.209   2.790 -0.0320  0.3849  0.2183
 8025TIP3    H145566   0.274   3.228   2.710  0.7619 -0.5268 -0.5011
 8025TIP3    H245567   0.257   3.182   2.853 -0.4632 -1.0574 -0.8082
 8026TIP3   OH245568   0.014   0.930   0.481  0.0118 -0.2265  0.3166
 8026TIP3    H145569   0.063   1.006   0.452  0.6640 -1.2466 -1.4166
 8026TIP3    H245570  -0.015   0.952   0.569  1.1307  1.5597  0.2833
 8027TIP3   OH245571   1.441   0.455   1.060  0.0088 -0.1908  0.0567
 8027TIP3    H145572   1.513   0.423   1.006 -0.3133  0.3793 -0.7381
 8027TIP3    H245573   1.439   0.549   1.043 -0.3808 -0.0718  0.7335
 8028TIP3   OH245574   2.327   6.503   1.991  0.0858  0.6307 -0.3636
 8028TIP3    H145575   2.309   6.418   1.953  2.2429 -0.0358 -0.0612
 8028TIP3    H245576   2.421   6.516   1.977 -0.0340  2.6205  0.2769
 8029TIP3   OH245577   2.507   2.554   0.105  0.3689  0.0097  0.0532
 8029TIP3    H145578   2.515   2.555   0.010 -0.3065  1.2923 -0.0135
 8029TIP3    H245579   2.413   2.538   0.121  0.0239  2.0989  0.4239
 8030TIP3   OH245580   1.108   6.431   5.334  0.4771  0.2894 -0.1297
 8030TIP3    H145581   1.112   6.362   5.267 -1.8608 -0.4895  0.4389
 8030TIP3    H245582   1.144   6.509   5.291 -0.4389 -0.3279 -2.1013
 8031TIP3   OH245583   1.466   0.333   4.591  0.1293 -0.1787 -0.1107
 8031TIP3    H145584   1.392   0.279   4.618  0.4646 -2.2708 -2.8736
 8031TIP3    H245585   1.543   0.285   4.623  0.3654  0.0583 -0.3179
 8032TIP3   OH245586   3.975   3.179   2.618 -0.0748  0.0211  0.2975
 8032TIP3    H145587   4.011   3.214   2.537 -1.1354  0.5040  0.0208
 8032TIP3    H245588   4.051   3.170   2.676  0.2219  3.5060  0.6616
 8033TIP3   OH245589   5.207   5.586   0.892  0.2699 -0.0751  0.4214
 8033TIP3    H145590   5.275   5.642   0.930 -1.8911  1.3193  2.5540
 8033TIP3    H245591   5.224   5.500   0.930 -0.3050  0.7289  2.6777
 8034TIP3   OH245592   4.010   1.481   1.787 -0.2418  0.8075 -0.2150
 8034TIP3    H145593   4.069   1.407   1.771  0.9204  1.9371 -1.4443
 8034TIP3    H245594   4.058   1.558   1.756 -2.1871  1.8559 -0.8423
 8035TIP3   OH245595   5.869   1.463  16.517 -0.2786  0.3425  0.4483
 8035TIP3    H145596   5.902   1.376  16.537 -1.8649 -0.0390  1.6178
 8035TIP3    H245597   5.824   1.453  16.433  0.4983  0.3151  0.0295
 8036TIP3   OH245598   5.735   1.924  15.397  0.0358 -1.0647  0.5212
 8036TIP3    H145599   5.680   1.922  15.319  0.9029 -1.0700 -0.1172
 8036TIP3    H245600   5.792   2.001  15.383  0.6106 -1.4245  0.8456
 8037TIP3   OH245601   2.759   1.863  15.832 -0.5909  0.1393 -0.4391
 8037TIP3    H145602   2.700   1.930  15.796 -2.5027 -1.0377  0.3178
 8037TIP3    H245603   2.829   1.913  15.874 -0.0874  1.5823 -2.7871
 8038TIP3   OH245604   2.006   2.829   5.756 -0.0364  0.1390  0.4959
 8038TIP3    H145605   2.032   2.853   5.845  2.3476  1.3314 -0.4146
 8038TIP3    H245606   1.911   2.832   5.756 -0.1065 -0.3109  3.1025
 8039TIP3   OH245607   0.763   5.748   3.737  0.4057 -0.2022 -0.2870
 8039TIP3    H145608   0.810   5.666   3.719 -0.0121 -0.2669 -1.1087
 8039TIP3    H245609   0.723   5.733   3.823  0.3636 -0.8483 -0.4079
 8040TIP3   OH245610   4.394   1.118   3.182  0.1454  0.4560  0.2332
 8040TIP3    H145611   4.451   1.156   3.115  1.3966 -1.2768  0.2272
 8040TIP3    H245612   4.386   1.186   3.248  0.3136  1.5745 -0.8567
 8041TIP3   OH245613   3.319   3.839   1.931  0.2737  0.1773 -0.1503
 8041TIP3    H145614   3.403   3.821   1.973  0.2791 -0.0157 -0.2412
 8041TIP3    H245615   3.327   3.929   1.899  0.2505  0.3430  0.3025
 8042TIP3   OH245616   1.016   6.072   3.049 -0.0745  0.0116  0.5437
 8042TIP3    H145617   1.100   6.100   3.085  0.0490 -0.4929  0.6441
 8042TIP3    H245618   0.982   6.009   3.111  1.1563 -2.5642 -1.2275
 8043TIP3   OH245619   4.910   0.173  16.484  0.1272  0.1733 -0.2839
 8043TIP3    H145620   4.952   0.122  16.553  0.5603 -0.5077 -1.0308
 8043TIP3    H245621   4.977   0.233  16.454 -0.4292  1.3340  0.6989
 8044TIP3   OH245622   1.139   4.416  14.730  0.3145 -0.3903 -0.6192
 8044TIP3    H145623   1.196   4.482  14.769 -0.9593  1.4109 -1.6578
 8044TIP3    H245624   1.057   4.422  14.779 -0.2887 -0.1906 -1.6287
 8045TIP3   OH245625   4.598   0.608   5.426 -0.2449  0.0110  0.3288
 8045TIP3    H145626   4.572   0.560   5.347 -1.0912  2.0389 -0.7050
 8045TIP3    H245627   4.517   0.642   5.462  0.3402  0.9789  0.7843
 8046TIP3   OH245628   1.251   1.205  14.950 -0.0558  0.5136  0.2344
 8046TIP3    H145629   1.214   1.278  14.999 -1.2092  0.6782 -0.8330
 8046TIP3    H245630   1.183   1.183  14.885  0.8100 -0.6478 -0.3053
 8047TIP3   OH245631   4.664   2.274   1.531 -0.3329 -0.2027  0.2744
 8047TIP3    H145632   4.703   2.343   1.477  0.2229 -1.1338 -0.5306
 8047TIP3    H245633   4.571   2.275   1.506 -0.6699  1.2697  1.3986
 8048TIP3   OH245634   5.502   0.886   5.494  0.0357  0.1648  0.4398
 8048TIP3    H145635   5.438   0.828   5.453  0.5736 -0.9451  1.1263
 8048TIP3    H245636   5.452   0.936   5.557 -0.7697  1.7626 -1.3791
 8049TIP3   OH245637   4.404   0.513  13.245  0.3530  0.4713 -0.4099
 8049TIP3    H145638   4.348   0.438  13.223  0.2792  0.8159 -1.4608
 8049TIP3    H245639   4.486   0.474  13.274 -0.0662 -0.0296  0.1150
 8050TIP3   OH245640   0.605   4.593  15.880  0.3936 -0.2505  0.6217
 8050TIP3    H145641   0.622   4.500  15.893 -0.6843 -0.7744 -1.3511
 8050TIP3    H245642   0.511   4.603  15.890 -0.0081 -0.0462 -2.3493
 8051TIP3   OH245643   4.485   5.052  15.837  0.2241 -0.5425 -0.1223
 8051TIP3    H145644   4.525   5.117  15.779  2.3440 -0.9127  0.8299
 8051TIP3    H245645   4.453   4.983  15.778 -0.0708  0.3186 -0.9931
 8052TIP3   OH245646   2.694   2.208  16.912 -0.5238 -0.1933  0.4324
 8052TIP3    H145647   2.761   2.252  16.860 -0.5908 -0.5643  0.0275
 8052TIP3    H245648   2.644   2.157  16.848  0.2008 -1.6971  0.9949
 8053TIP3   OH245649   1.345   4.818  15.271 -0.2716 -0.6279 -0.0932
 8053TIP3    H145650   1.395   4.739  15.251  1.8126  0.7885 -0.7962
 8053TIP3    H245651   1.369   4.880  15.202 -1.1771  0.8991  0.9064
 8054TIP3   OH245652   2.760   3.044   0.096 -0.0577  0.1964 -0.0399
 8054TIP3    H145653   2.823   3.016   0.030 -0.9326 -2.4542  0.1234
 8054TIP3    H245654   2.774   2.984   0.169 -1.3873  0.8796  0.8181
 8055TIP3   OH245655   1.306   6.594  12.667 -0.2745 -0.0552 -0.4149
 8055TIP3    H145656   1.213   6.614  12.681  0.1418  0.6783  1.5065
 8055TIP3    H245657   1.317   6.506  12.704 -0.4263 -0.6604 -1.7428
 8056TIP3   OH245658   5.872   1.691  13.409  0.3348  0.4732 -0.2879
 8056TIP3    H145659   5.807   1.694  13.338  0.9367  0.5643 -0.8384
 8056TIP3    H245660   5.820   1.674  13.487 -0.3011 -0.0099 -0.8015
 8057TIP3   OH245661   3.938   3.664  16.102  0.2671  0.1984 -0.1249
 8057TIP3    H145662   3.969   3.589  16.052  0.4802  0.0232  0.2614
 8057TIP3    H245663   4.018   3.699  16.144  0.0118  0.0041  0.5373
 8058TIP3   OH245664   0.320   0.760   2.760  0.2721  0.7303  0.3285
 8058TIP3    H145665   0.387   0.826   2.743  1.3371 -0.5199 -0.4362
 8058TIP3    H245666   0.305   0.718   2.675  1.0704 -1.3377  1.1591
 8059TIP3   OH245667   3.789   5.502   2.837 -0.3609  0.2837  0.2711
 8059TIP3    H145668   3.874   5.535   2.809 -0.0411  0.2994  1.2268
 8059TIP3    H245669   3.745   5.476   2.755  0.1777  1.1577 -0.3069
 8060TIP3   OH245670   1.908   5.869   1.773 -0.0259  0.2514 -0.0427
 8060TIP3    H145671   1.836   5.807   1.784 -0.2277  0.7409  1.8391
 8060TIP3    H245672   1.896   5.932   1.844  0.8967  1.7414 -1.1492
 8061TIP3   OH245673   5.800   2.412  13.112 -0.3532 -0.1397  0.2635
 8061TIP3    H145674   5.731   2.442  13.052 -0.6632 -0.5139  0.4308
 8061TIP3    H245675   5.846   2.344  13.064 -1.3032 -1.2276  0.8443
 8062TIP3   OH245676   2.428   1.471  16.802 -0.4221  0.4256  0.5554
 8062TIP3    H145677   2.431   1.377  16.821  0.8491  0.6819  1.7375
 8062TIP3    H245678   2.352   1.503  16.850 -0.8888  0.0102  0.1085
 8063TIP3   OH245679   0.640   2.909  15.347  0.0412  0.3747 -0.3061
 8063TIP3    H145680   0.572   2.930  15.282  0.4992 -0.1240 -0.9524
 8063TIP3    H245681   0.626   2.817  15.367  0.3706  0.3406 -0.2398
 8064TIP3   OH245682   4.223   4.500  12.792 -0.3412 -0.2919  0.3788
 8064TIP3    H145683   4.221   4.589  12.759  0.2404 -0.4080 -0.0069
 8064TIP3    H245684   4.305   4.464  12.756 -0.3963 -0.8626  0.8143
 8065TIP3   OH245685   1.140   5.317   3.874  0.1121  0.0023  0.5400
 8065TIP3    H145686   1.105   5.303   3.786 -0.7134 -0.5268  0.9409
 8065TIP3    H245687   1.216   5.259   3.880 -0.6849 -1.0542  0.6664
 8066TIP3   OH245688   4.956   6.527  10.677 -0.4051 -0.6744 -0.0061
 8066TIP3    H145689   4.863   6.512  10.660 -0.4486 -1.3685  0.7892
 8066TIP3    H245690   4.996   6.440  10.670 -0.3437 -0.9614  2.7973
 8067TIP3   OH245691   3.598   3.607   2.638  0.0145  0.3412 -0.2289
 8067TIP3    H145692   3.601   3.632   2.545  1.1258  1.4627  0.0769
 8067TIP3    H245693   3.516   3.559   2.647  0.4186 -0.7872 -2.0249
 8068TIP3   OH245694   3.914   4.192   1.597 -0.1108 -0.5995  0.4071
 8068TIP3    H145695   3.911   4.097   1.605  0.1845 -0.5220  1.7485
 8068TIP3    H245696   4.006   4.214   1.612  0.2229 -0.2166 -1.8262
 8069TIP3   OH245697   3.776   2.557   1.868 -0.0169 -0.2324 -0.2472
 8069TIP3    H145698   3.826   2.480   1.841 -0.9224 -0.8462 -0.2093
 8069TIP3    H245699   3.748   2.597   1.785 -0.0976 -0.3072 -0.2553
 8070TIP3   OH245700   0.381   0.152  15.504 -0.3605  0.6377  0.1973
 8070TIP3    H145701   0.392   0.082  15.567 -2.5184  1.0997  1.1731
 8070TIP3    H245702   0.370   0.231  15.557 -3.3313  0.8894 -0.5645
 8071TIP3   OH245703   1.687   1.360  13.524 -0.2514 -0.0234  0.0363
 8071TIP3    H145704   1.595   1.343  13.545  0.0948 -0.2594  1.4205
 8071TIP3    H245705   1.689   1.363  13.428 -1.1868 -2.9398 -0.1643
 8072TIP3   OH245706   6.269   0.866   0.629  0.7915  0.1895 -0.6619
 8072TIP3    H145707   6.353   0.820   0.627  0.2390 -0.8688 -0.2353
 8072TIP3    H245708   6.221   0.826   0.701 -0.1174  0.7245 -0.9502
 8073TIP3   OH245709   1.308   3.344   5.893  0.0379  0.8122  0.2998
 8073TIP3    H145710   1.311   3.266   5.949  1.7618  1.9645  1.9390
 8073TIP3    H245711   1.390   3.389   5.911 -0.7396  2.8265 -0.9080
 8074TIP3   OH245712   2.903   2.626   3.116  0.3194 -0.1381  0.2658
 8074TIP3    H145713   2.838   2.587   3.175 -1.1375  0.2915 -0.9765
 8074TIP3    H245714   2.927   2.555   3.057 -0.2175  0.0923 -0.2428
 8075TIP3   OH245715   0.359   1.180   4.674 -0.0570  0.4467  0.0436
 8075TIP3    H145716   0.403   1.106   4.633 -0.2858 -0.5943  1.5947
 8075TIP3    H245717   0.322   1.144   4.754 -1.8695  1.8078 -0.1349
 8076TIP3   OH245718   4.862   5.262   0.895 -0.1355 -0.2343 -0.5295
 8076TIP3    H145719   4.851   5.277   0.989 -0.6729 -0.6284 -0.5279
 8076TIP3    H245720   4.957   5.265   0.882  0.1140 -2.3012  0.4027
 8077TIP3   OH245721   4.817   3.387  15.714 -0.4647 -0.0523 -0.3987
 8077TIP3    H145722   4.809   3.295  15.740 -1.8286  0.1308 -0.0835
 8077TIP3    H245723   4.827   3.434  15.797 -0.5935  0.1514 -0.4976
 8078TIP3   OH245724   0.021   0.498   2.033  0.3639  0.0218  0.1117
 8078TIP3    H145725   0.046   0.517   1.943 -1.0302  0.0042 -0.2970
 8078TIP3    H245726   0.051   0.408   2.048 -0.3545 -0.3684 -0.7140
 8079TIP3   OH245727   4.047   6.221   1.949 -0.5488 -0.3310  0.4275
 8079TIP3    H145728   4.126   6.196   1.901 -0.8260  0.4914 -0.4806
 8079TIP3    H245729   4.080   6.266   2.027 -0.1144 -0.3307  0.2466
 8080TIP3   OH245730   1.732   0.258  14.505  0.0369 -0.2002 -0.3397
 8080TIP3    H145731   1.728   0.323  14.435 -1.9258 -1.3709 -1.4191
 8080TIP3    H245732   1.692   0.180  14.466  1.4129 -1.7561  1.2241
 8081TIP3   OH245733   1.765   1.871   5.148 -0.3103 -0.3071 -0.1340
 8081TIP3    H145734   1.814   1.789   5.147  0.3249 -0.0921  3.0584
 8081TIP3    H245735   1.680   1.848   5.111 -0.3163 -2.5613  1.0982
 8082TIP3   OH245736   1.392   3.530  15.320  0.0774  0.1186 -0.0911
 8082TIP3    H145737   1.311   3.516  15.368 -0.7440 -0.6112 -1.6210
 8082TIP3    H245738   1.422   3.617  15.347 -0.6314 -0.0601  1.3055
 8083TIP3   OH245739   1.292   6.723  11.584  0.1434 -0.5695  0.8735
 8083TIP3    H145740   1.328   6.771  11.658 -0.0918  1.5630 -0.3014
 8083TIP3    H245741   1.256   6.791  11.527  0.4440 -2.0927 -1.2585
 8084TIP3   OH245742   3.402   2.921  14.310  0.4154  0.7230 -0.0764
 8084TIP3    H145743   3.343   2.994  14.328  0.8048  1.6306 -2.1953
 8084TIP3    H245744   3.413   2.878  14.395 -1.0096  2.2137  0.9357
 8085TIP3   OH245745   0.678   6.527  16.681  0.3169  0.7065  0.1123
 8085TIP3    H145746   0.642   6.453  16.631  1.5212  1.0055 -1.2665
 8085TIP3    H245747   0.656   6.507  16.772  0.4892 -1.2894 -0.2337
 8086TIP3   OH245748   6.634   4.347   5.014  0.0735  0.1547  0.2101
 8086TIP3    H145749   6.727   4.325   5.005 -0.4592 -3.1453  1.4087
 8086TIP3    H245750   6.611   4.320   5.103 -1.9508  1.3281  0.1101
 8087TIP3   OH245751   4.446   0.550   6.030  0.3114 -0.6443  0.3402
 8087TIP3    H145752   4.422   0.541   6.122 -1.0457 -0.6327  0.0056
 8087TIP3    H245753   4.459   0.460   6.000 -4.9152 -1.2798 -0.8489
 8088TIP3   OH245754   6.517   2.373   2.020 -0.1611 -0.1221  0.1232
 8088TIP3    H145755   6.580   2.440   2.048  0.5619  0.0423 -1.7152
 8088TIP3    H245756   6.506   2.316   2.096  1.0556  0.7247  0.9691
 8089TIP3   OH245757   5.796   3.618  15.520 -0.1901  0.0542 -0.0815
 8089TIP3    H145758   5.868   3.566  15.554 -0.8527 -0.3378  0.7763
 8089TIP3    H245759   5.836   3.699  15.489  0.6052 -0.1520  0.3943
 8090TIP3   OH245760   4.875   6.799   3.684  0.7743 -0.0907 -0.1718
 8090TIP3    H145761   4.916   6.885   3.682 -0.9022  0.7509  0.0201
 8090TIP3    H245762   4.807   6.806   3.751  1.3916 -1.9669  0.7478
 8091TIP3   OH245763   6.212   6.261   2.454 -0.3388 -0.7663  0.2856
 8091TIP3    H145764   6.172   6.206   2.387 -0.6855  1.3882 -1.4036
 8091TIP3    H245765   6.301   6.276   2.424  0.4567 -2.1008  1.8501
 8092TIP3   OH245766   1.558   1.642   0.700  0.2193 -0.5038 -0.7378
 8092TIP3    H145767   1.502   1.638   0.622 -0.8625  2.0521 -0.1732
 8092TIP3    H245768   1.557   1.552   0.734 -2.4097 -0.8645 -1.5398
 8093TIP3   OH245769   4.741   2.852   3.059  0.1945  0.0447  0.2419
 8093TIP3    H145770   4.682   2.815   3.124  0.5769  0.3089  0.7442
 8093TIP3    H245771   4.827   2.815   3.081  0.0876 -1.0676 -1.0324
 8094TIP3   OH245772   6.350   1.508  13.460  0.8720  0.3417 -0.0537
 8094TIP3    H145773   6.317   1.535  13.546  1.3827  0.1704  0.2002
 8094TIP3    H245774   6.275   1.468  13.417  0.3567  1.2646 -0.0505
 8095TIP3   OH245775   0.806   1.646  15.775 -0.0933  0.1072  0.0263
 8095TIP3    H145776   0.827   1.711  15.842  0.4687  0.7449 -0.7487
 8095TIP3    H245777   0.742   1.688  15.719 -1.2154 -0.7408  0.6325
 8096TIP3   OH245778   4.072   2.215   0.753 -0.3024 -0.0238 -0.0535
 8096TIP3    H145779   4.041   2.167   0.830 -3.1805  1.3362 -0.2446
 8096TIP3    H245780   4.098   2.301   0.786  3.5096 -1.0211  0.0669
 8097TIP3   OH245781   3.510   5.116  11.159  0.3361  1.0494 -0.1572
 8097TIP3    H145782   3.444   5.135  11.091  1.8501  0.0663 -1.9959
 8097TIP3    H245783   3.470   5.048  11.212 -0.1807  0.4818 -1.2319
 8098TIP3   OH245784   3.380   0.577  12.569  0.4328 -0.5321  0.0979
 8098TIP3    H145785   3.359   0.668  12.548 -1.1911 -0.6905  0.9384
 8098TIP3    H245786   3.475   0.571  12.556  0.2708  0.6756 -2.1514
 8099TIP3   OH245787   6.393   6.255  11.123 -0.0736 -0.0177 -0.1625
 8099TIP3    H145788   6.393   6.350  11.139  1.8824 -0.1627  1.1320
 8099TIP3    H245789   6.468   6.241  11.065  0.4525 -0.8928  0.6970
 8100TIP3   OH245790   2.994   1.344  16.334 -0.1879  0.2823 -0.4666
 8100TIP3    H145791   2.943   1.422  16.356  2.1102  2.7183 -3.0060
 8100TIP3    H245792   3.062   1.340  16.402 -1.2093 -0.4887  0.5404
 8101TIP3   OH245793   3.526   6.174  11.759 -0.3571  0.3577  0.5369
 8101TIP3    H145794   3.512   6.231  11.835 -0.9160 -0.1073  0.7910
 8101TIP3    H245795   3.456   6.197  11.699 -1.3256 -0.8936  1.1533
 8102TIP3   OH245796   5.641   2.153  15.713  0.1700  0.1470  0.2086
 8102TIP3    H145797   5.552   2.151  15.748  1.0010  0.3964  2.5151
 8102TIP3    H245798   5.663   2.060  15.699  0.1411 -0.0429  1.3337
 8103TIP3   OH245799   5.481   1.505   4.555 -0.4206  0.2912 -0.1739
 8103TIP3    H145800   5.451   1.512   4.645  1.3292  0.3394  0.4533
 8103TIP3    H245801   5.459   1.589   4.515  0.2898  0.9331  0.7287
 8104TIP3   OH245802   2.700   1.469   5.864 -0.4366 -0.0456 -0.0698
 8104TIP3    H145803   2.606   1.456   5.851 -0.6324  0.4004  0.8464
 8104TIP3    H245804   2.719   1.426   5.948 -0.0252  0.7589  0.2546
 8105TIP3   OH245805   1.685   5.954   3.847  0.1299  0.7333  0.7453
 8105TIP3    H145806   1.648   5.875   3.808 -0.3809  1.5687 -0.5253
 8105TIP3    H245807   1.620   5.982   3.911  1.0963 -0.7971  2.5076
 8106TIP3   OH245808   6.481   3.540  16.465  0.2407  0.6514  0.1160
 8106TIP3    H145809   6.422   3.600  16.418 -0.1778  0.8357  0.8583
 8106TIP3    H245810   6.495   3.582  16.550  0.8130  0.2172  0.2434
 8107TIP3   OH245811   3.999   4.303  14.949  0.9722 -0.4239  0.0988
 8107TIP3    H145812   4.010   4.219  14.904  4.0387 -0.0050 -0.1405
 8107TIP3    H245813   3.928   4.287  15.011  0.6559 -2.8395 -0.7655
 8108TIP3   OH245814   3.768   2.541  15.289  0.3974  0.1404  0.0099
 8108TIP3    H145815   3.755   2.629  15.255  0.2473  0.0626 -0.1329
 8108TIP3    H245816   3.855   2.516  15.258  0.5442  0.3362  0.2655
 8109TIP3   OH245817   1.139   4.097  10.984 -0.5013  0.0248 -0.8292
 8109TIP3    H145818   1.192   4.166  10.943  0.5550 -0.6600 -0.6663
 8109TIP3    H245819   1.162   4.017  10.936 -1.2732 -0.3120 -0.6432
 8110TIP3   OH245820   5.876   6.801   4.213  0.2208  0.3285  0.2273
 8110TIP3    H145821   5.807   6.792   4.279  0.9710 -1.7086  0.8231
 8110TIP3    H245822   5.838   6.762   4.134 -0.2438  1.6852 -0.2536
 8111TIP3   OH245823   1.964   6.602  13.017 -0.0294  0.3693  0.9510
 8111TIP3    H145824   2.003   6.620  13.103  0.3288  0.3437  0.7944
 8111TIP3    H245825   2.036   6.566  12.965 -0.8115 -2.0111  1.3950
 8112TIP3   OH245826   5.925   2.646  16.533 -0.5336 -0.0152  0.2002
 8112TIP3    H145827   5.994   2.590  16.569 -1.2265 -1.0238 -0.0075
 8112TIP3    H245828   5.973   2.713  16.484  0.3381  0.1204  1.1970
 8113TIP3   OH245829   4.391   1.184   1.511 -0.2593 -0.3822  0.1081
 8113TIP3    H145830   4.455   1.255   1.517 -1.0449  0.4515 -0.8298
 8113TIP3    H245831   4.436   1.107   1.544  0.8346  0.4276  0.5544
 8114TIP3   OH245832   2.348   2.572  12.831  0.2969 -0.5618 -0.3098
 8114TIP3    H145833   2.363   2.594  12.923 -0.0257  0.0953 -0.4078
 8114TIP3    H245834   2.423   2.610  12.785 -1.2967  2.3794 -0.7517
 8115TIP3   OH245835   0.629   3.105   5.557 -0.0768  0.0438  0.1662
 8115TIP3    H145836   0.577   3.058   5.493  0.6584 -0.7001  0.1049
 8115TIP3    H245837   0.629   3.049   5.635 -0.3062  0.5665  0.5497
 8116TIP3   OH245838   2.849   4.576   5.828 -0.3469 -0.1895 -0.4228
 8116TIP3    H145839   2.782   4.512   5.851 -0.1979  0.0073  0.6122
 8116TIP3    H245840   2.805   4.661   5.836  0.1347 -0.0317  0.7445
 8117TIP3   OH245841   4.303   4.573  10.974 -0.1460  0.7023 -0.0644
 8117TIP3    H145842   4.383   4.624  10.965  1.2504 -1.5426 -1.1122
 8117TIP3    H245843   4.273   4.559  10.883 -1.1777  0.6801  0.2641
 8118TIP3   OH245844   4.463   1.191  11.107 -0.3673  0.4743 -0.2207
 8118TIP3    H145845   4.424   1.103  11.109 -2.9332  1.5025 -0.6306
 8118TIP3    H245846   4.535   1.187  11.170 -1.6400 -1.4110  1.2392
 8119TIP3   OH245847   6.440   3.945  13.312  0.2506 -0.1975  0.1871
 8119TIP3    H145848   6.352   3.957  13.349  0.4393  0.7320  0.3689
 8119TIP3    H245849   6.426   3.889  13.236 -0.7238  0.9980 -0.5728
 8120TIP3   OH245850   6.728   3.670  15.412 -0.1594 -0.0366 -0.0436
 8120TIP3    H145851   6.817   3.660  15.381  0.6433  2.1066  1.3927
 8120TIP3    H245852   6.676   3.687  15.334  1.1358  1.2815 -0.6401
 8121TIP3   OH245853   0.246   4.400   6.177  0.2826 -0.0885  0.5474
 8121TIP3    H145854   0.266   4.482   6.132  2.4246 -0.1979  1.1645
 8121TIP3    H245855   0.221   4.427   6.266 -0.2512 -0.0479  0.3854
 8122TIP3   OH245856   6.291   2.210  16.071 -0.0286 -0.0786  0.5392
 8122TIP3    H145857   6.291   2.118  16.044  0.7068 -0.3914  1.5215
 8122TIP3    H245858   6.350   2.212  16.147 -2.2873  0.6812  2.3640
 8123TIP3   OH245859   3.396   5.976   4.541 -0.3955 -0.5204  0.1126
 8123TIP3    H145860   3.369   5.914   4.608  0.7022 -0.4840  0.6057
 8123TIP3    H245861   3.404   5.924   4.461 -1.2014 -0.6566  0.1079
 8124TIP3   OH245862   0.660   3.373  12.238 -0.2589  0.1055 -0.2210
 8124TIP3    H145863   0.567   3.375  12.263 -0.1178 -0.6258  0.4182
 8124TIP3    H245864   0.666   3.299  12.178 -0.0846  0.1106 -0.2097
 8125TIP3   OH245865   0.419   3.118  14.165 -0.5066 -0.0944 -0.4832
 8125TIP3    H145866   0.365   3.095  14.241 -0.1768  0.1965 -0.1535
 8125TIP3    H245867   0.394   3.208  14.145  1.0323  0.6598  0.7315
 8126TIP3   OH245868   2.238   1.047  12.117  0.1375 -0.2139 -0.7319
 8126TIP3    H145869   2.302   0.987  12.081  1.2111  0.6214 -0.2830
 8126TIP3    H245870   2.245   1.036  12.212  1.7755  1.9362 -0.5102
 8127TIP3   OH245871   1.093   4.047  15.667 -0.2227 -0.4186 -0.6440
 8127TIP3    H145872   1.151   4.049  15.743  0.3963  0.0097 -1.1217
 8127TIP3    H245873   1.015   4.000  15.698  0.2866 -0.8184  0.0621
 8128TIP3   OH245874   0.452   0.935   4.581 -0.1900 -0.0828 -0.2791
 8128TIP3    H145875   0.377   0.877   4.567 -0.0702  0.3556 -3.3855
 8128TIP3    H245876   0.520   0.902   4.522  1.9518 -0.1145  2.0425
 8129TIP3   OH245877   2.883   4.629  14.513  0.4484  0.3048  0.6152
 8129TIP3    H145878   2.879   4.551  14.457  1.5216  0.4544  0.3025
 8129TIP3    H245879   2.827   4.608  14.587 -1.0845  0.1355 -0.5315
 8130TIP3   OH245880   0.467   1.359   1.897  0.5921  0.1696 -0.2354
 8130TIP3    H145881   0.377   1.383   1.919 -0.2549 -2.3621 -0.5187
 8130TIP3    H245882   0.513   1.357   1.981 -0.6697 -2.1687  0.4976
 8131TIP3   OH245883   4.650   4.370  10.962 -0.0005 -0.2299 -0.4120
 8131TIP3    H145884   4.591   4.367  11.037 -0.6486 -1.5246 -0.9398
 8131TIP3    H245885   4.647   4.461  10.933 -1.6301 -0.2218 -0.3121
 8132TIP3   OH245886   1.750   3.057   3.739 -0.0538  0.4228 -0.0733
 8132TIP3    H145887   1.815   3.033   3.673 -0.3727 -0.5501 -0.0532
 8132TIP3    H245888   1.799   3.062   3.821 -0.0047 -0.3908 -0.0422
 8133TIP3   OH245889   0.402   1.302  11.416 -0.0590 -0.1510  0.1228
 8133TIP3    H145890   0.350   1.334  11.490  1.4009  1.8904  0.3288
 8133TIP3    H245891   0.395   1.370  11.350  1.1426 -0.5328 -0.4213
 8134TIP3   OH245892   2.557   5.145   4.874  0.0426  0.3432 -0.2047
 8134TIP3    H145893   2.503   5.190   4.939 -0.3055  0.8050 -0.8102
 8134TIP3    H245894   2.502   5.073   4.843  0.3900 -0.1755  0.3528
 8135TIP3   OH245895   5.418   1.669   2.303  0.2665  0.6495 -0.2361
 8135TIP3    H145896   5.344   1.698   2.356  1.3476 -0.5294  2.0706
 8135TIP3    H245897   5.430   1.577   2.326  0.9085  0.1121 -2.4696
 8136TIP3   OH245898   1.650   6.095   4.600 -0.6059 -0.5041 -0.0814
 8136TIP3    H145899   1.585   6.046   4.650 -1.8165 -0.6837 -1.7590
 8136TIP3    H245900   1.733   6.050   4.618 -0.3757  1.0365  3.8835
 8137TIP3   OH245901   1.547   4.915  12.808 -0.2965 -0.3556 -0.2638
 8137TIP3    H145902   1.623   4.911  12.865 -0.0188 -0.3126 -0.6303
 8137TIP3    H245903   1.545   4.830  12.764 -0.8655 -0.6233  0.2593
 8138TIP3   OH245904   5.495   6.073  12.196 -0.2193 -0.4738 -0.0189
 8138TIP3    H145905   5.572   6.020  12.212  0.6015 -0.0592 -2.2828
 8138TIP3    H245906   5.504   6.147  12.256  0.0197 -1.4832  1.2207
 8139TIP3   OH245907   4.768   3.292   3.927  0.0517 -0.4328  0.1553
 8139TIP3    H145908   4.727   3.379   3.936 -0.2161 -0.6630  1.2522
 8139TIP3    H245909   4.862   3.309   3.940  0.2350 -0.0466 -1.4501
 8140TIP3   OH245910   5.875   3.381  16.974 -0.4616  0.1211 -0.5694
 8140TIP3    H145911   5.810   3.381  16.903 -1.3342  0.0604  0.2028
 8140TIP3    H245912   5.823   3.392  17.053  0.5620  0.8670  0.0185
 8141TIP3   OH245913   3.696   0.584   4.713 -0.1978  0.2265 -0.3122
 8141TIP3    H145914   3.681   0.679   4.719  0.9872  0.3948  0.1673
 8141TIP3    H245915   3.695   0.566   4.619 -2.4789  0.3419 -0.3660
 8142TIP3   OH245916   3.971   1.276  13.430 -0.5630  0.5017 -0.6383
 8142TIP3    H145917   3.959   1.198  13.377  0.3611  0.4243 -0.7556
 8142TIP3    H245918   3.922   1.344  13.385 -2.3799 -0.2571  0.1045
 8143TIP3   OH245919   6.172   5.313  13.039  0.0346  0.0782 -0.8311
 8143TIP3    H145920   6.198   5.294  12.949 -0.9888 -0.6358 -0.9798
 8143TIP3    H245921   6.213   5.398  13.057  0.3963  0.1512 -1.9055
 8144TIP3   OH245922   3.204   0.046   3.478 -0.1067 -0.0680 -0.3274
 8144TIP3    H145923   3.272  -0.020   3.493 -0.1697 -0.0281  0.1222
 8144TIP3    H245924   3.178   0.075   3.565 -0.9092 -0.2883 -0.4919
 8145TIP3   OH245925   0.084   6.207   5.299 -0.5165 -0.4541 -0.1542
 8145TIP3    H145926   0.145   6.242   5.234 -0.3442  2.5924  1.4835
 8145TIP3    H245927   0.040   6.284   5.335 -1.6178 -2.1244  2.3474
 8146TIP3   OH245928   2.869   4.160  11.132 -0.1578  0.0995  0.2204
 8146TIP3    H145929   2.942   4.110  11.167 -1.0411 -0.7843  0.8424
 8146TIP3    H245930   2.909   4.242  11.101  1.0992 -0.4144  0.4248
 8147TIP3   OH245931   4.437   3.510   0.062 -0.1922  0.3443  0.2303
 8147TIP3    H145932   4.518   3.494   0.013 -0.8488 -0.5499 -0.6056
 8147TIP3    H245933   4.413   3.424   0.096 -1.0055  0.5199  0.1166
 8148TIP3   OH245934   4.203   1.328   0.124  0.4387 -0.1414 -0.1998
 8148TIP3    H145935   4.233   1.268   0.055 -1.9503 -1.5776 -0.1102
 8148TIP3    H245936   4.156   1.397   0.077 -2.9560 -2.1751 -0.0934
 8149TIP3   OH245937   4.173   1.672  13.016  0.4925 -0.5919  0.2242
 8149TIP3    H145938   4.220   1.588  13.022  2.9112  0.7284  2.0149
 8149TIP3    H245939   4.243   1.738  13.010 -1.3362  1.3050 -2.0166
 8150TIP3   OH245940   6.321   5.784  12.369 -0.1253 -0.0935 -0.3365
 8150TIP3    H145941   6.405   5.780  12.416  0.0728 -1.1144 -0.7528
 8150TIP3    H245942   6.343   5.820  12.284  0.2211 -1.8878 -1.0671
 8151TIP3   OH245943   5.241   1.954   6.190 -0.2569 -0.3633  0.0459
 8151TIP3    H145944   5.174   1.932   6.254 -0.2320 -1.4961 -0.2883
 8151TIP3    H245945   5.319   1.905   6.218 -0.3591 -1.1814 -1.0338
 8152TIP3   OH245946   2.285   4.012  10.815  0.1191 -0.3125  0.2916
 8152TIP3    H145947   2.311   4.002  10.906 -1.2926  0.6620  0.8293
 8152TIP3    H245948   2.368   4.011  10.766  0.8209 -2.0117  1.4245
 8153TIP3   OH245949   1.244   2.498  15.279 -0.1988  0.0246 -0.6107
 8153TIP3    H145950   1.291   2.421  15.248 -1.2048 -0.3647 -1.2405
 8153TIP3    H245951   1.225   2.548  15.199 -0.4703  0.3846 -0.3247
 8154TIP3   OH245952   2.321   3.663  15.870 -0.0295 -0.0875  0.2325
 8154TIP3    H145953   2.270   3.661  15.789 -2.7343 -0.9528  1.8259
 8154TIP3    H245954   2.349   3.573  15.883 -1.7645 -0.5114  1.4349
 8155TIP3   OH245955   6.598   5.449   2.062  0.1497  0.5977  0.0085
 8155TIP3    H145956   6.671   5.427   2.003 -0.1704  0.4376 -0.3300
 8155TIP3    H245957   6.610   5.389   2.136  0.0428  0.1833 -0.3051
 8156TIP3   OH245958   4.608   2.211  13.106  0.2311 -0.4787  0.2827
 8156TIP3    H145959   4.516   2.196  13.125  0.1030  0.8483  0.7984
 8156TIP3    H245960   4.626   2.299  13.140  1.3301 -0.1451 -1.0725
 8157TIP3   OH245961   0.806   5.969  12.310  0.5913  0.0009  0.3290
 8157TIP3    H145962   0.751   5.943  12.236 -0.1927  3.2357 -0.3775
 8157TIP3    H245963   0.757   5.942  12.387 -0.1785 -0.4830 -0.3132
 8158TIP3   OH245964   0.267   1.734   2.609 -0.4231 -0.0771  0.0494
 8158TIP3    H145965   0.244   1.693   2.525 -3.6030  0.4417  0.5389
 8158TIP3    H245966   0.272   1.662   2.671  1.5318 -0.4146 -0.4127
 8159TIP3   OH245967   5.991   2.823   6.554 -0.6581 -0.1557 -0.5732
 8159TIP3    H145968   6.032   2.842   6.470 -1.3894 -1.3808 -1.2406
 8159TIP3    H245969   6.034   2.882   6.616  1.7811 -1.0663 -1.2965
 8160TIP3   OH245970   3.606   4.254   2.715  0.1181  0.5037  0.3507
 8160TIP3    H145971   3.594   4.281   2.806  0.6444  2.6389 -0.1424
 8160TIP3    H245972   3.609   4.336   2.666  2.7135 -0.4034 -1.2315
 8161TIP3   OH245973   0.754   3.465   0.453  0.4402  0.3542  0.0736
 8161TIP3    H145974   0.778   3.398   0.517  0.3714  0.5957  0.3491
 8161TIP3    H245975   0.689   3.422   0.397  2.4265 -0.7885 -1.5156
 8162TIP3   OH245976   4.667   2.617   2.881  0.0190 -0.5343 -0.4671
 8162TIP3    H145977   4.720   2.662   2.946 -0.2624 -0.8624 -0.0004
 8162TIP3    H245978   4.657   2.680   2.810  0.5663 -0.2726 -0.3204
 8163TIP3   OH245979   3.055   5.554   3.592  0.0582  0.0549 -0.4938
 8163TIP3    H145980   3.133   5.537   3.646 -0.6325  1.3535  1.0090
 8163TIP3    H245981   3.088   5.605   3.518  0.8967 -0.9804 -0.8600
 8164TIP3   OH245982   6.302   5.582  14.758 -0.2358  0.2599 -0.4349
 8164TIP3    H145983   6.347   5.566  14.675  2.2582 -1.3316  1.0850
 8164TIP3    H245984   6.345   5.659  14.795  0.7873 -0.7848  0.6558
 8165TIP3   OH245985   5.782   6.395   5.345 -0.1363 -0.2874 -0.4307
 8165TIP3    H145986   5.854   6.363   5.400 -0.0806  1.0340  0.2876
 8165TIP3    H245987   5.822   6.410   5.259  0.6921  1.2821  0.1898
 8166TIP3   OH245988   1.356   1.388   2.370  0.0008 -0.6415  0.2111
 8166TIP3    H145989   1.375   1.343   2.453  4.0267 -0.5907 -0.4560
 8166TIP3    H245990   1.326   1.476   2.397  2.2205 -0.2590  1.7282
 8167TIP3   OH245991   0.970   5.525  14.744 -0.4651 -0.5336 -0.5936
 8167TIP3    H145992   0.956   5.587  14.816  0.4318  0.1244 -0.9701
 8167TIP3    H245993   0.884   5.486  14.730 -0.5545 -1.0726  1.1884
 8168TIP3   OH245994   3.176   3.716   6.358 -0.4366  0.4133 -0.3418
 8168TIP3    H145995   3.230   3.722   6.437 -1.8774  1.6462  0.6215
 8168TIP3    H245996   3.171   3.623   6.339 -1.3498 -0.1018  2.0149
 8169TIP3   OH245997   6.576   4.787   3.181  0.2381 -0.0078 -0.0262
 8169TIP3    H145998   6.587   4.869   3.229  0.7523  0.1018 -0.3221
 8169TIP3    H245999   6.658   4.740   3.194  0.2924 -0.0813 -0.5907
 8170TIP3   OH246000   2.414   0.196  16.893  0.4998  0.0559  0.3590
 8170TIP3    H146001   2.450   0.128  16.836  0.5997 -0.5862  1.1600
 8170TIP3    H246002   2.438   0.167  16.982 -0.3313  0.6117  0.7767
 8171TIP3   OH246003   1.163   5.548  11.072 -0.6417  0.0322  0.3943
 8171TIP3    H146004   1.076   5.520  11.045 -0.6413  1.4361 -1.2201
 8171TIP3    H246005   1.151   5.636  11.107  0.1224  0.2513  0.1372
 8172TIP3   OH246006   2.447   0.559  13.857  0.2872  0.1076 -0.4859
 8172TIP3    H146007   2.421   0.468  13.863  0.7690  0.0556  1.6181
 8172TIP3    H246008   2.383   0.607  13.910 -1.1957  1.3538 -3.1876
 8173TIP3   OH246009   1.558   0.959   1.826  0.4724 -0.6002 -0.2142
 8173TIP3    H146010   1.520   0.997   1.747  2.1439  1.5679 -0.0644
 8173TIP3    H246011   1.520   1.009   1.898  1.7269 -0.0138  0.0748
 8174TIP3   OH246012   1.138   6.397   2.453  0.1185 -0.1625 -0.0247
 8174TIP3    H146013   1.134   6.324   2.514  0.6464 -0.7078 -0.6260
 8174TIP3    H246014   1.229   6.426   2.456 -0.1305  0.6199  0.3674
 8175TIP3   OH246015   0.365   1.678  10.967 -0.2248 -0.2379 -0.0827
 8175TIP3    H146016   0.380   1.586  10.947  1.8884  0.1968 -0.6465
 8175TIP3    H246017   0.381   1.685  11.061 -2.3755 -0.7677  0.3875
 8176TIP3   OH246018   5.034   0.102   4.362 -0.3321  0.5760  0.0049
 8176TIP3    H146019   4.969   0.034   4.379  0.5703 -0.5428 -0.8657
 8176TIP3    H246020   5.112   0.073   4.410 -0.2771  1.6175  0.5896
 8177TIP3   OH246021   5.956   4.372  10.372  0.0120  0.3470 -0.4212
 8177TIP3    H146022   6.003   4.361  10.454  1.5953  0.7077 -1.2520
 8177TIP3    H246023   5.875   4.322  10.383 -0.7415  1.9600  2.0777
 8178TIP3   OH246024   6.606   6.559  15.065  0.3896  0.2439 -0.1951
 8178TIP3    H146025   6.519   6.597  15.068  1.6257  3.3244 -0.0621
 8178TIP3    H246026   6.650   6.603  14.992  2.2506 -0.2602  0.5453
 8179TIP3   OH246027   1.373   5.852   5.377  0.4643  0.4847 -0.2561
 8179TIP3    H146028   1.394   5.924   5.317 -0.9808 -1.0629 -2.7830
 8179TIP3    H246029   1.420   5.777   5.341  2.4318  0.1479  2.6635
 8180TIP3   OH246030   1.473   5.869   2.760  0.3871  0.2723  0.2945
 8180TIP3    H146031   1.540   5.867   2.692 -0.1169 -0.5763 -0.1951
 8180TIP3    H246032   1.448   5.961   2.766  0.0368  0.2938 -1.0844
 8181TIP3   OH246033   1.026   1.411  10.795 -0.6612 -0.3192  0.4953
 8181TIP3    H146034   1.112   1.451  10.790 -0.4415 -0.9256 -1.8125
 8181TIP3    H246035   0.985   1.450  10.872  0.4147  2.5545 -0.2817
 8182TIP3   OH246036   2.746   2.056   6.014  0.0383 -0.2103  0.3757
 8182TIP3    H146037   2.707   1.974   5.983  1.1901 -0.6840  0.1476
 8182TIP3    H246038   2.840   2.042   6.007  0.2834  0.5432  1.8602
 8183TIP3   OH246039   6.505   0.308   3.765  0.5756  0.2177  0.3556
 8183TIP3    H146040   6.451   0.334   3.839 -2.4469 -0.1724 -1.5441
 8183TIP3    H246041   6.507   0.385   3.709  1.1302 -0.1041 -0.0734
 8184TIP3   OH246042   0.782   4.470  12.992 -0.1819  0.2639 -0.1361
 8184TIP3    H146043   0.742   4.398  12.943  1.4591 -0.0642 -1.0706
 8184TIP3    H246044   0.877   4.455  12.983  0.1776  1.9415  0.5679
 8185TIP3   OH246045   6.695   0.430   0.243  0.0495 -0.1973  0.2709
 8185TIP3    H146046   6.706   0.483   0.164 -1.1900  2.9550  2.0265
 8185TIP3    H246047   6.601   0.410   0.245 -0.0425  0.2600  1.1859
 8186TIP3   OH246048   6.244   6.500  14.703 -0.4190  0.1018  0.4497
 8186TIP3    H146049   6.331   6.464  14.723 -0.6233 -1.1520 -0.7319
 8186TIP3    H246050   6.252   6.531  14.612 -1.3086 -0.4218  0.1806
 8187TIP3   OH246051   3.500   0.280   4.640  0.1549 -0.1400  0.0934
 8187TIP3    H146052   3.589   0.304   4.612  0.1931 -1.1135 -0.6847
 8187TIP3    H246053   3.493   0.186   4.620 -0.3679 -0.5499  1.9686
 8188TIP3   OH246054   3.623   5.671   3.275 -0.4849 -0.1720  0.1369
 8188TIP3    H146055   3.713   5.656   3.245 -0.5743 -0.2001 -0.1203
 8188TIP3    H246056   3.631   5.684   3.369  0.2354  3.3534 -0.2692
 8189TIP3   OH246057   5.939   3.963  11.879  0.9784 -0.5150  0.3343
 8189TIP3    H146058   5.934   3.872  11.909  0.7290 -0.6809 -0.2082
 8189TIP3    H246059   5.880   3.967  11.804 -0.0301  0.4237  1.1464
 8190TIP3   OH246060   1.999   0.641  10.180 -0.4999  0.2250 -0.3238
 8190TIP3    H146061   2.094   0.646  10.187 -0.4636 -1.0164  0.4276
 8190TIP3    H246062   1.982   0.567  10.122 -0.9760 -1.4709  1.8309
 8191TIP3   OH246063   4.421   1.769   3.085 -0.3375 -0.0201  0.3059
 8191TIP3    H146064   4.463   1.689   3.116 -1.4594 -0.4207  0.8423
 8191TIP3    H246065   4.458   1.839   3.139  0.9098 -0.1142 -0.4060
 8192TIP3   OH246066   4.909   5.921  12.929 -0.3154  0.6742 -0.6970
 8192TIP3    H146067   4.815   5.924  12.943 -0.1002  1.3458  0.7682
 8192TIP3    H246068   4.925   5.981  12.856 -0.8874  1.5624 -0.0989
 8193TIP3   OH246069   1.378   5.393  16.170  0.5287 -0.5358  0.0274
 8193TIP3    H146070   1.415   5.471  16.211 -0.3554  0.7751 -1.5646
 8193TIP3    H246071   1.448   5.361  16.114 -0.1828  1.1669 -1.9543
 8194TIP3   OH246072   2.291   0.984  15.574 -0.4077 -0.2762  0.0269
 8194TIP3    H146073   2.219   1.047  15.569  0.6771  1.1477  1.3715
 8194TIP3    H246074   2.287   0.936  15.492 -2.5791  0.0967 -0.1381
 8195TIP3   OH246075   5.811   6.648   0.984 -0.0524  0.2456 -0.3865
 8195TIP3    H146076   5.754   6.649   0.907 -0.9240  0.7927  0.2523
 8195TIP3    H246077   5.757   6.682   1.055  0.2065 -1.7348  0.8467
 8196TIP3   OH246078   0.475   1.943   3.854  0.0073  0.1522  0.8040
 8196TIP3    H146079   0.555   1.943   3.907 -0.7892 -1.2000  2.0946
 8196TIP3    H246080   0.406   1.914   3.915 -1.6106  1.9281 -0.0660
 8197TIP3   OH246081   5.178   2.431  14.438  0.4303  0.3012 -0.1256
 8197TIP3    H146082   5.178   2.504  14.500  0.0374 -0.5457  0.9133
 8197TIP3    H246083   5.159   2.354  14.492 -0.8754 -0.3542 -1.4462
 8198TIP3   OH246084   5.604   1.140  14.964  0.5000  0.4474  0.3429
 8198TIP3    H146085   5.654   1.119  15.043 -1.3823  0.5593  1.6332
 8198TIP3    H246086   5.573   1.055  14.932  0.6731  0.4687  0.1108
 8199TIP3   OH246087   0.822   0.613  10.747  0.1950 -0.1593 -0.1599
 8199TIP3    H146088   0.754   0.610  10.680  0.3496  0.1343 -0.3364
 8199TIP3    H246089   0.852   0.522  10.756 -0.0153 -0.2418 -0.2939
 8200TIP3   OH246090   1.377   3.964   1.831 -0.2339  0.7954  0.0382
 8200TIP3    H146091   1.346   4.054   1.831 -0.3495  0.7556 -0.3106
 8200TIP3    H246092   1.305   3.914   1.869 -0.8540  0.6202 -1.3155
 8201TIP3   OH246093   5.569   1.914  15.166  0.1865  0.2852  0.5241
 8201TIP3    H146094   5.475   1.927  15.173  0.2227  0.9029 -0.0408
 8201TIP3    H246095   5.605   2.003  15.158  0.9384  0.1525  2.0677
 8202TIP3   OH246096   0.016   2.737  12.501 -0.2775 -0.5174  0.5749
 8202TIP3    H146097   0.005   2.715  12.408  0.1607  0.0590  0.3754
 8202TIP3    H246098  -0.069   2.721  12.540 -0.8906  0.6533 -0.2277
 8203TIP3   OH246099   2.134   1.377   5.530  0.5040  0.8856  0.5078
 8203TIP3    H146100   2.171   1.337   5.608  0.2145 -0.3271  0.0446
 8203TIP3    H246101   2.058   1.426   5.562 -0.8952 -1.2907  0.8015
 8204TIP3   OH246102   1.707   3.581   2.320  0.1934  0.2219  0.2759
 8204TIP3    H146103   1.700   3.631   2.238  1.2251 -0.6161 -0.3431
 8204TIP3    H246104   1.760   3.505   2.297 -0.8520 -0.8649  1.3507
 8205TIP3   OH246105   0.897   0.870  11.393 -0.2158 -0.2073 -0.8734
 8205TIP3    H146106   0.940   0.902  11.314 -0.2125 -1.7885 -1.5439
 8205TIP3    H246107   0.804   0.868  11.371  0.0118 -4.2195 -2.3266
 8206TIP3   OH246108   0.649   0.744   3.497  0.3609  0.0739 -0.0924
 8206TIP3    H146109   0.683   0.812   3.439  1.0698 -0.9059 -0.8663
 8206TIP3    H246110   0.707   0.669   3.483 -2.3746 -1.8748 -1.8586
 8207TIP3   OH246111   2.927   5.624   1.213 -0.6789 -0.6355 -0.0299
 8207TIP3    H146112   2.851   5.584   1.254 -1.1199  0.4055  0.2156
 8207TIP3    H246113   2.925   5.715   1.243  0.1096 -0.3472 -0.7973
 8208TIP3   OH246114   5.911   4.858   1.407  0.0448 -0.1294 -0.9780
 8208TIP3    H146115   5.869   4.873   1.492  0.0845 -0.6004 -0.8746
 8208TIP3    H246116   5.989   4.914   1.410 -0.9496  1.3445 -1.4809
 8209TIP3   OH246117   3.628   0.340  16.376 -0.0934  0.0879  0.3006
 8209TIP3    H146118   3.698   0.338  16.442 -0.5731 -0.0072  0.8137
 8209TIP3    H246119   3.673   0.356  16.294  0.6178 -0.8116  0.5082
 8210TIP3   OH246120   2.805   5.983   2.184 -0.2279 -0.0597 -0.4388
 8210TIP3    H146121   2.801   6.077   2.204 -0.2083 -0.2662  0.6285
 8210TIP3    H246122   2.786   5.941   2.268  1.1153 -1.0103 -0.5838
 8211TIP3   OH246123   6.583   3.226   2.348 -0.2511  0.0706 -0.0584
 8211TIP3    H146124   6.610   3.297   2.407  1.3057  0.3497 -1.0405
 8211TIP3    H246125   6.578   3.149   2.404 -2.2672  0.9796  1.0914
 8212TIP3   OH246126   0.123   5.547  13.584  0.2053  0.1642  0.1950
 8212TIP3    H146127   0.113   5.563  13.490 -1.0463  0.9239  0.4315
 8212TIP3    H246128   0.187   5.476  13.590 -0.0093 -0.1808 -1.2444
 8213TIP3   OH246129   3.112   2.635   3.635 -0.1006  0.2687 -0.5036
 8213TIP3    H146130   3.074   2.548   3.645  1.2222 -0.1902  0.8598
 8213TIP3    H246131   3.206   2.620   3.630  0.0421  1.4935 -2.2122
 8214TIP3   OH246132   1.840   3.524  16.038 -1.0917 -0.9880  0.3187
 8214TIP3    H146133   1.876   3.603  15.999  1.8387 -1.8064  1.0735
 8214TIP3    H246134   1.768   3.499  15.980 -1.2016  1.4308 -0.6967
 8215TIP3   OH246135   3.085   1.907  13.029 -0.2382  0.0302  0.0880
 8215TIP3    H146136   3.055   1.986  13.073 -1.5187  0.1929 -1.0079
 8215TIP3    H246137   3.009   1.878  12.978  0.6596 -1.0895 -0.6593
 8216TIP3   OH246138   1.016   2.399  14.388  0.4722  0.7683 -0.0041
 8216TIP3    H146139   1.091   2.388  14.447  1.6555  0.8679 -1.4115
 8216TIP3    H246140   1.041   2.350  14.309 -2.0556 -1.3784  0.3897
 8217TIP3   OH246141   3.843   2.636   4.903 -0.1428  0.4652  0.2641
 8217TIP3    H146142   3.903   2.571   4.940 -2.6269 -0.5871  2.8934
 8217TIP3    H246143   3.870   2.719   4.942  0.5934  0.3019  0.1054
 8218TIP3   OH246144   4.191   0.447   6.452 -0.1386 -0.6937  0.3971
 8218TIP3    H146145   4.113   0.443   6.508  0.1428  1.7581  1.0714
 8218TIP3    H246146   4.262   0.469   6.512  1.1581 -2.8917 -0.2081
 8219TIP3   OH246147   5.315   4.745   4.174  0.4916 -0.9854  0.2464
 8219TIP3    H146148   5.384   4.737   4.108  0.4144 -0.4184  0.0901
 8219TIP3    H246149   5.253   4.676   4.152 -0.6738  0.5557 -1.6609
 8220TIP3   OH246150   3.131   1.219  14.415 -0.3018 -0.5103  0.0051
 8220TIP3    H146151   3.182   1.162  14.358 -0.0161  1.1419 -1.4779
 8220TIP3    H246152   3.149   1.307  14.384 -0.9399  0.4095  2.0426
 8221TIP3   OH246153   5.435   1.176   3.270  0.0038 -0.0782 -0.3278
 8221TIP3    H146154   5.417   1.269   3.283  0.0552 -0.0570 -0.4022
 8221TIP3    H246155   5.354   1.140   3.235 -0.0496 -0.0827 -0.1968
 8222TIP3   OH246156   6.549   4.823  15.458 -0.0344 -0.0234 -0.0680
 8222TIP3    H146157   6.514   4.823  15.547 -0.7951 -0.1305 -0.3592
 8222TIP3    H246158   6.642   4.844  15.468  0.1598 -1.2497  0.8587
 8223TIP3   OH246159   0.906   0.228   5.275  0.1241 -0.7148 -0.8436
 8223TIP3    H146160   0.921   0.142   5.312 -0.2083 -0.6568 -0.5649
 8223TIP3    H246161   0.992   0.259   5.249  0.1239 -1.5773 -1.9606
 8224TIP3   OH246162   1.650   0.866  16.810 -0.4589  0.1330 -0.5211
 8224TIP3    H146163   1.569   0.899  16.772 -0.8886 -0.5868 -0.2497
 8224TIP3    H246164   1.719   0.902  16.755 -1.0142 -0.0200 -1.3280
 8225TIP3   OH246165   4.039   6.436  11.601  0.2943 -0.1827 -0.3329
 8225TIP3    H146166   3.956   6.446  11.649  0.4366  0.2265 -0.1648
 8225TIP3    H246167   4.040   6.345  11.572  0.8839 -0.8660  1.7011
 8226TIP3   OH246168   4.303   1.902   4.876 -0.7253  0.0127  0.0924
 8226TIP3    H146169   4.329   1.900   4.968  0.0424 -0.6131 -0.1286
 8226TIP3    H246170   4.237   1.833   4.867  0.9259 -1.5952 -0.3025
 8227TIP3   OH246171   2.787   1.555  13.116 -0.2869 -0.1226 -0.3694
 8227TIP3    H146172   2.855   1.616  13.145 -1.6304  0.4269  1.9112
 8227TIP3    H246173   2.785   1.564  13.021  2.1813  0.5072 -0.4116
 8228TIP3   OH246174   2.424   4.552   0.304 -0.2438  0.4112 -0.0076
 8228TIP3    H146175   2.445   4.458   0.301 -0.9220  0.1698  1.7492
 8228TIP3    H246176   2.423   4.579   0.212  1.3926 -0.9682 -0.4847
 8229TIP3   OH246177   5.213   3.647   1.724 -0.2023  0.4893  0.3120
 8229TIP3    H146178   5.199   3.577   1.660 -0.2833 -1.1510  2.0519
 8229TIP3    H246179   5.300   3.683   1.702 -0.0960 -0.2432 -0.5111
 8230TIP3   OH246180   2.658   5.488   3.128  0.3631  0.4157 -0.7399
 8230TIP3    H146181   2.663   5.504   3.222  0.5123 -1.1192 -0.4612
 8230TIP3    H246182   2.599   5.555   3.095  0.5571  1.1691  0.3968
 8231TIP3   OH246183   1.148   3.315   1.957 -0.2467 -0.5346  0.0854
 8231TIP3    H146184   1.205   3.240   1.938 -0.8514 -2.0470  3.4151
 8231TIP3    H246185   1.060   3.280   1.950 -0.5645  0.0815  0.8881
 8232TIP3   OH246186   1.540   6.014  12.208  0.0405  0.1868  0.3530
 8232TIP3    H146187   1.470   5.992  12.269  1.0386 -0.7657  1.2114
 8232TIP3    H246188   1.562   6.105  12.229 -2.2647  1.2341 -1.3360
 8233TIP3   OH246189   3.891   3.562   5.926  0.2008 -0.3065 -0.3759
 8233TIP3    H146190   3.802   3.558   5.961  0.9831 -1.9333  1.6286
 8233TIP3    H246191   3.941   3.608   5.992  1.3016 -1.5091 -0.3325
 8234TIP3   OH246192   0.477   2.148  10.630 -0.2639 -0.0582  0.5023
 8234TIP3    H146193   0.475   2.155  10.535 -1.3458 -1.0736  0.4285
 8234TIP3    H246194   0.566   2.119  10.649 -0.0567  0.0854 -0.2047
 8235TIP3   OH246195   1.561   3.201   2.575  0.4268 -0.0778  0.5337
 8235TIP3    H146196   1.557   3.106   2.562 -0.5912 -0.1072  0.9443
 8235TIP3    H246197   1.503   3.237   2.508  0.9305  0.2653  0.2821
 8236TIP3   OH246198   0.207   4.835  11.760 -0.0803 -0.2059  0.0925
 8236TIP3    H146199   0.214   4.856  11.853  0.9049 -1.9587  0.4586
 8236TIP3    H246200   0.179   4.744  11.758  1.0379 -0.5558 -1.2987
 8237TIP3   OH246201   5.666   4.839   4.527 -0.0762 -0.0215  0.0815
 8237TIP3    H146202   5.577   4.830   4.494  0.0160 -0.5746 -0.0334
 8237TIP3    H246203   5.667   4.924   4.571  0.0719  1.2382 -2.2081
 8238TIP3   OH246204   3.439   1.867   4.861 -0.1712 -0.1632  0.1437
 8238TIP3    H146205   3.468   1.779   4.884 -0.7392  0.0327  1.7093
 8238TIP3    H246206   3.517   1.922   4.869  0.3545 -0.6061 -1.5391
 8239TIP3   OH246207   5.191   0.292   4.609 -0.2146 -0.2339  0.4176
 8239TIP3    H146208   5.195   0.326   4.520 -1.0295  0.2744  0.5539
 8239TIP3    H246209   5.276   0.250   4.624  0.0163 -0.1058 -0.5052
 8240TIP3   OH246210   0.211   2.026  15.620  0.0022 -0.4146  0.5201
 8240TIP3    H146211   0.190   2.031  15.713  1.0291  0.7134  0.7280
 8240TIP3    H246212   0.262   2.105  15.603 -2.1616  0.6436 -1.5566
 8241TIP3   OH246213   1.323   5.601  14.371  0.3195  0.0593  0.8325
 8241TIP3    H146214   1.336   5.517  14.415  0.1859 -0.2791  0.2293
 8241TIP3    H246215   1.245   5.589  14.317  0.2177  0.6160  0.8453
 8242TIP3   OH246216   1.025   1.223  15.980 -0.1322 -0.2090  0.1768
 8242TIP3    H146217   1.046   1.233  16.073 -0.5789  0.9502  0.1690
 8242TIP3    H246218   0.972   1.300  15.959 -0.5558 -0.7731 -0.8942
 8243TIP3   OH246219   2.781   1.845   3.367 -0.0962 -0.6012  0.0296
 8243TIP3    H146220   2.708   1.906   3.379  0.0690 -0.3665 -0.1656
 8243TIP3    H246221   2.790   1.801   3.452 -1.5180 -1.7976 -0.3873
 8244TIP3   OH246222   6.453   4.903  17.016  0.3248  0.3990  0.1259
 8244TIP3    H146223   6.383   4.868  17.072  0.5009  0.4580  0.3845
 8244TIP3    H246224   6.426   4.992  16.997  0.7037  0.6868  0.8717
 8245TIP3   OH246225   4.523   0.126  11.862 -0.0110  0.0424 -0.2927
 8245TIP3    H146226   4.584   0.054  11.879  2.3349  0.9008 -3.8675
 8245TIP3    H246227   4.526   0.179  11.941  1.5417 -1.5367  0.7958
 8246TIP3   OH246228   5.174   6.307   1.434  0.2502 -0.1117  0.2157
 8246TIP3    H146229   5.096   6.330   1.384  0.6585 -0.8359 -0.7905
 8246TIP3    H246230   5.144   6.240   1.495 -0.0135 -0.0605  0.1450
 8247TIP3   OH246231   6.816   6.618   0.021 -0.1051  0.4557  0.3941
 8247TIP3    H146232   6.836   6.699  -0.027  0.8709 -0.0148 -0.0294
 8247TIP3    H246233   6.837   6.548  -0.041 -2.2216 -0.1264  0.2658
 8248TIP3   OH246234   1.835   1.431  11.932 -0.2603 -0.1095  0.1107
 8248TIP3    H146235   1.778   1.412  12.007  0.0714  0.1189  0.4234
 8248TIP3    H246236   1.866   1.520  11.948 -1.2622  0.4650 -0.9951
 8249TIP3   OH246237   4.125   5.655   0.443  0.1542  0.3935 -0.4714
 8249TIP3    H146238   4.095   5.707   0.518  0.5065 -1.3966  0.9906
 8249TIP3    H246239   4.046   5.638   0.393 -0.5868 -0.5111  0.9176
 8250TIP3   OH246240   6.572   1.031  10.891 -0.1742  0.0027 -0.0994
 8250TIP3    H146241   6.509   1.009  10.823 -1.0671  0.7891  0.4359
 8250TIP3    H246242   6.556   1.124  10.908 -0.3707 -0.3034  1.5540
 8251TIP3   OH246243   2.125   6.502  12.254 -0.4858  0.2040 -0.2836
 8251TIP3    H146244   2.087   6.468  12.173  0.6680  1.0445 -1.2063
 8251TIP3    H246245   2.108   6.596  12.252 -0.8262  0.1759  0.6702
 8252TIP3   OH246246   6.792   1.507   1.829 -0.0381 -0.1663 -0.5400
 8252TIP3    H146247   6.699   1.491   1.844  0.0155 -0.3909 -0.4462
 8252TIP3    H246248   6.809   1.591   1.872 -0.3387  0.1891 -1.0984
 8253TIP3   OH246249   4.460   1.629   3.730 -0.5601 -0.0297  0.2373
 8253TIP3    H146250   4.533   1.682   3.698  0.3391 -0.9435  0.7032
 8253TIP3    H246251   4.480   1.614   3.823 -0.0163 -2.3111 -0.1677
 8254TIP3   OH246252   1.067   4.156   1.147 -0.1929  0.4431 -0.2085
 8254TIP3    H146253   1.016   4.210   1.087 -1.8607  1.2237  1.8063
 8254TIP3    H246254   1.135   4.215   1.181 -1.2173  0.9727  1.0109
 8255TIP3   OH246255   6.378   4.603  13.573  0.1204  0.8300 -0.1895
 8255TIP3    H146256   6.390   4.622  13.667  1.4598  0.8693 -0.3397
 8255TIP3    H246257   6.297   4.648  13.550 -0.0929  1.0454  0.8924
 8256TIP3   OH246258   4.081   5.878   4.741 -0.3883 -0.3496  0.1953
 8256TIP3    H146259   4.016   5.885   4.670 -2.8669 -2.2506  2.0986
 8256TIP3    H246260   4.155   5.833   4.700 -1.8430 -1.6424 -1.2129
 8257TIP3   OH246261   2.396   4.147  14.420 -0.4290  0.2030 -0.5246
 8257TIP3    H146262   2.456   4.221  14.428  1.3515 -1.2376  0.2318
 8257TIP3    H246263   2.317   4.175  14.466  0.2859  1.5145 -0.0345
 8258TIP3   OH246264   2.606   2.847  14.957  0.5807  0.5517 -0.8347
 8258TIP3    H146265   2.668   2.785  14.918  0.4199  0.7526 -1.4138
 8258TIP3    H246266   2.644   2.933  14.939 -0.0573  0.6942 -1.5326
 8259TIP3   OH246267   1.749   4.274   6.048 -0.7255 -0.2575 -0.6590
 8259TIP3    H146268   1.713   4.308   6.130  2.2610 -1.0271  1.1091
 8259TIP3    H246269   1.823   4.331   6.029  1.5972 -2.8831 -0.0968
 8260TIP3   OH246270   5.763   4.910  12.271  0.2749  0.3667 -0.2657
 8260TIP3    H146271   5.805   4.950  12.195 -0.9604 -0.5227 -1.4731
 8260TIP3    H246272   5.814   4.831  12.288 -0.1509 -0.0579 -0.9355
 8261TIP3   OH246273   0.970   2.321  15.545  0.4010  0.4300 -0.4386
 8261TIP3    H146274   0.956   2.329  15.451  2.1811  1.3932 -0.6660
 8261TIP3    H246275   1.062   2.345  15.558 -0.4284  2.8801  1.8450
 8262TIP3   OH246276   2.997   3.917  14.996  0.3618  0.1483  0.0318
 8262TIP3    H146277   3.009   3.857  15.070  1.6802 -0.0585 -0.3337
 8262TIP3    H246278   2.919   3.968  15.020  0.5217 -0.1896  1.3770
 8263TIP3   OH246279   1.415   4.197   3.239  0.6345 -0.5940  0.0679
 8263TIP3    H146280   1.506   4.228   3.246 -0.0786  1.7142  0.1117
 8263TIP3    H246281   1.422   4.113   3.194  2.7135 -0.0176 -0.8418
 8264TIP3   OH246282   0.885   1.928   1.291  0.1932 -0.6080 -0.4244
 8264TIP3    H146283   0.906   1.999   1.231 -0.7743  0.5780  0.5981
 8264TIP3    H246284   0.959   1.924   1.352  1.3360 -2.0307 -1.8101
 8265TIP3   OH246285   6.602   3.982   1.810  0.3763 -0.2115  0.4884
 8265TIP3    H146286   6.661   4.056   1.796  0.3066 -0.3535 -0.6495
 8265TIP3    H246287   6.646   3.928   1.875  0.0045  1.2623  2.0652
 8266TIP3   OH246288   0.147   3.322  13.870  0.1476 -0.1047 -0.6698
 8266TIP3    H146289   0.051   3.329  13.876  0.1461 -0.0884 -0.7156
 8266TIP3    H246290   0.161   3.241  13.820  0.1436  0.4630 -1.6173
 8267TIP3   OH246291   0.151   5.514   1.749  0.4848 -0.5859  0.1965
 8267TIP3    H146292   0.195   5.458   1.685  0.7771 -0.5977  0.4055
 8267TIP3    H246293   0.103   5.578   1.697  0.7935 -0.5413 -0.0338
 8268TIP3   OH246294   4.002   6.655  13.439 -0.5946 -0.2799 -0.1161
 8268TIP3    H146295   3.977   6.644  13.347 -1.9627  2.6860 -0.2485
 8268TIP3    H246296   3.969   6.577  13.483 -0.6664 -1.3682 -2.0013
 8269TIP3   OH246297   0.527   5.542  17.016  0.4584  0.3468  1.4254
 8269TIP3    H146298   0.488   5.628  16.999  1.4962  0.5387 -0.1896
 8269TIP3    H246299   0.487   5.484  16.951  2.1019  0.3601  0.3216
 8270TIP3   OH246300   0.251   2.908   5.794 -0.0509 -0.1065 -0.5483
 8270TIP3    H146301   0.319   2.954   5.844 -1.8865  0.6889  1.3595
 8270TIP3    H246302   0.279   2.817   5.793  1.8839  0.4458 -1.3195
 8271TIP3   OH246303   4.417   5.113   5.085 -0.0082  0.1694  0.0328
 8271TIP3    H146304   4.329   5.120   5.050 -0.3570 -0.0992  0.8358
 8271TIP3    H246305   4.446   5.025   5.058 -0.2343  0.0044  0.3284
 8272TIP3   OH246306   0.713   0.489  11.001  0.5096 -0.4600 -0.2717
 8272TIP3    H146307   0.778   0.532  10.945  1.0795 -1.3623 -0.3164
 8272TIP3    H246308   0.629   0.525  10.972  1.0067  1.0816  0.1065
 8273TIP3   OH246309   3.743   3.280   4.262  0.1523  0.1133  0.1209
 8273TIP3    H146310   3.829   3.317   4.244  0.2997  0.9233  2.1550
 8273TIP3    H246311   3.734   3.209   4.199  2.0143  0.4332 -0.5855
 8274TIP3   OH246312   2.706   2.431   2.791  0.2860  0.0606  0.3362
 8274TIP3    H146313   2.714   2.341   2.760  0.0987 -0.2655  1.1845
 8274TIP3    H246314   2.702   2.484   2.712 -0.3258 -0.7431 -0.1862
 8275TIP3   OH246315   4.098   4.962  11.390  0.3113 -0.0742 -0.2193
 8275TIP3    H146316   4.127   4.902  11.459  1.5829 -0.5194 -1.0940
 8275TIP3    H246317   4.003   4.950  11.386  0.5002 -1.9946 -0.2921
 8276TIP3   OH246318   6.638   4.795   1.720 -0.4205  0.1479  0.2666
 8276TIP3    H146319   6.664   4.874   1.766  1.0694 -0.4686  0.5233
 8276TIP3    H246320   6.660   4.812   1.628 -0.2386  0.0770  0.2983
 8277TIP3   OH246321   6.406   0.613  17.048 -0.6054  0.3347  0.5926
 8277TIP3    H146322   6.382   0.521  17.041 -1.5739  0.7079 -1.9520
 8277TIP3    H246323   6.502   0.613  17.037 -0.5194 -0.3868  1.2386
 8278TIP3   OH246324   2.545   2.925   3.279  0.3365  0.5391 -0.2618
 8278TIP3    H146325   2.605   2.932   3.354  2.8787  0.7959 -2.1994
 8278TIP3    H246326   2.527   3.015   3.254 -0.0729  0.4530 -0.2737
 8279TIP3   OH246327   4.218   2.528  12.770  0.1543  0.0618  0.2838
 8279TIP3    H146328   4.156   2.579  12.822  0.7752  1.2341 -0.0809
 8279TIP3    H246329   4.304   2.553  12.803  0.6267  1.5749 -1.8604
 8280TIP3   OH246330   6.053   0.128  11.099  0.3095 -0.1249 -0.6529
 8280TIP3    H146331   6.027   0.218  11.075  0.0445 -0.3290 -1.1573
 8280TIP3    H246332   6.111   0.101  11.028 -1.9681 -1.4188 -2.1685
 8281TIP3   OH246333   3.839   3.059   5.433  0.3198 -0.0727  0.3552
 8281TIP3    H146334   3.781   3.098   5.498 -0.5475  0.2740 -0.6029
 8281TIP3    H246335   3.923   3.050   5.478 -0.0793  0.7969  1.3061
 8282TIP3   OH246336   5.307   6.011  14.328  0.0465 -0.4323 -0.5456
 8282TIP3    H146337   5.370   6.082  14.315 -1.5410  2.3306  4.3749
 8282TIP3    H246338   5.222   6.051  14.308 -0.6973 -1.7528 -0.1207
 8283TIP3   OH246339   5.750   6.280   5.733 -0.3724  0.4481 -0.4300
 8283TIP3    H146340   5.712   6.355   5.689 -0.5905  0.9541  0.5868
 8283TIP3    H246341   5.726   6.205   5.678 -1.1380  0.9838 -0.8486
 8284TIP3   OH246342   5.922   4.886   3.728 -0.0991  0.0059 -0.1051
 8284TIP3    H146343   5.943   4.976   3.753 -0.9218  0.2365 -0.2226
 8284TIP3    H246344   5.827   4.880   3.739 -0.1020 -0.7139 -0.5236
 8285TIP3   OH246345   1.299   1.035   2.026  0.3743  0.0240  0.1393
 8285TIP3    H146346   1.254   1.100   2.080  0.5898  1.4550 -1.3225
 8285TIP3    H246347   1.240   1.020   1.952  1.2647  0.1948 -0.6290
 8286TIP3   OH246348   5.536   0.896   3.671  0.1925  0.0154 -0.3257
 8286TIP3    H146349   5.560   0.920   3.582  0.2095 -0.4999 -0.4618
 8286TIP3    H246350   5.552   0.802   3.676 -3.6652 -0.8869 -1.1044
 8287TIP3   OH246351   0.650   4.820   3.653  0.0715  0.2553  0.3996
 8287TIP3    H146352   0.648   4.908   3.691  3.1103  1.3636 -1.6370
 8287TIP3    H246353   0.624   4.832   3.562  2.3914 -0.4920 -0.4493
 8288TIP3   OH246354   1.152   3.529   3.167  0.0196 -0.1579 -0.1594
 8288TIP3    H146355   1.210   3.537   3.242 -0.5177 -0.7738  0.3416
 8288TIP3    H246356   1.095   3.455   3.190 -0.8684  0.3528 -0.6865
 8289TIP3   OH246357   5.748   5.108  14.966 -0.1086  0.0069 -0.0924
 8289TIP3    H146358   5.690   5.157  14.909 -1.0831 -0.1683  0.7095
 8289TIP3    H246359   5.770   5.169  15.036  0.8163  0.1197 -0.4695
 8290TIP3   OH246360   5.350   6.423   3.211 -0.2754  0.3652 -0.0406
 8290TIP3    H146361   5.398   6.468   3.142  0.3130  1.8297  1.2621
 8290TIP3    H246362   5.296   6.492   3.252 -1.0131 -0.5697  0.6234
 8291TIP3   OH246363   3.458   1.228  16.401  0.6679  1.0031  0.1118
 8291TIP3    H146364   3.368   1.257  16.414 -0.5741 -2.8567  1.4167
 8291TIP3    H246365   3.484   1.190  16.485  2.7149  0.0842 -0.8582
 8292TIP3   OH246366   2.354   6.075   2.431  0.4309 -0.6808  0.3902
 8292TIP3    H146367   2.371   6.137   2.501 -1.0000 -0.9866  1.0416
 8292TIP3    H246368   2.271   6.102   2.393 -0.4530 -2.4115  0.9756
 8293TIP3   OH246369   0.753   0.903   3.269  0.1611 -0.0690  0.0399
 8293TIP3    H146370   0.716   0.991   3.286  1.1435  0.2347  0.6738
 8293TIP3    H246371   0.847   0.914   3.281  0.2241 -1.4051  0.9802
 8294TIP3   OH246372   0.961   4.934  14.330  0.2375 -0.0660 -0.1635
 8294TIP3    H146373   1.042   4.946  14.380  2.0688  0.7283 -3.0777
 8294TIP3    H246374   0.945   4.840  14.332  1.6614 -0.3246 -0.1151
 8295TIP3   OH246375   4.434   3.530   5.071  0.3619 -0.0103 -0.1338
 8295TIP3    H146376   4.375   3.580   5.013 -2.3072 -1.2947  1.2776
 8295TIP3    H246377   4.425   3.440   5.041 -2.1292 -0.9381  2.8682
 8296TIP3   OH246378   4.565   4.482   5.988  0.5890 -0.0854 -0.1400
 8296TIP3    H146379   4.588   4.575   5.992  0.7012 -0.1591  1.1428
 8296TIP3    H246380   4.572   4.451   6.078  1.4007 -1.5542 -0.6739
 8297TIP3   OH246381   5.827   6.113  13.048 -0.9371 -0.1523  0.0522
 8297TIP3    H146382   5.890   6.122  13.119  0.2186  0.5385 -1.0289
 8297TIP3    H246383   5.773   6.192  13.053  0.2624  0.7582 -0.8760
 8298TIP3   OH246384   4.625   2.924   4.216  0.1431  0.1966  0.3767
 8298TIP3    H146385   4.580   2.842   4.195 -1.7015  0.7063  2.0565
 8298TIP3    H246386   4.707   2.896   4.258  0.2884 -0.7683 -0.5242
 8299TIP3   OH246387   5.512   1.773   3.900  0.1185  0.0893 -0.6146
 8299TIP3    H146388   5.455   1.838   3.856  1.0424  0.0737 -1.9054
 8299TIP3    H246389   5.600   1.795   3.869  0.5838 -1.0544 -0.1313
 8300TIP3   OH246390   0.231   0.209   5.249 -0.2634  0.2957  0.1790
 8300TIP3    H146391   0.161   0.148   5.273  0.2585 -0.0341  0.9067
 8300TIP3    H246392   0.309   0.155   5.246 -0.2968  0.2447 -2.5989
 8301TIP3   OH246393   5.440   3.798   1.626  0.2400 -0.0600 -0.1153
 8301TIP3    H146394   5.458   3.870   1.566  1.4452 -0.6022 -0.4362
 8301TIP3    H246395   5.526   3.772   1.659  0.2300 -3.1847 -2.1479
 8302TIP3   OH246396   1.821   2.734  15.203 -0.6505 -0.0521 -0.4503
 8302TIP3    H146397   1.795   2.799  15.268 -0.8024 -0.5293 -0.0264
 8302TIP3    H246398   1.739   2.702  15.166 -0.7570 -1.8561  1.1787
 8303TIP3   OH246399   1.327   5.973  11.407 -0.8123  0.3452  0.1328
 8303TIP3    H146400   1.340   5.959  11.314  0.6521  0.4636  0.2990
 8303TIP3    H246401   1.394   6.037  11.432 -1.6214  0.8376  1.1364
 8304TIP3   OH246402   5.857   5.600   5.873  0.1532  0.1884  0.3168
 8304TIP3    H146403   5.952   5.612   5.875  0.0238  1.2938  0.9675
 8304TIP3    H246404   5.829   5.634   5.788  0.5170 -1.9042 -0.6984
 8305TIP3   OH246405   5.832   5.107   3.334  0.3472 -0.3036 -0.0925
 8305TIP3    H146406   5.775   5.182   3.347 -0.4203 -0.5156 -1.9049
 8305TIP3    H246407   5.853   5.109   3.241  1.7218 -1.3577  0.1667
 8306TIP3   OH246408   4.008   2.941  13.350 -0.1491 -0.2866  0.2127
 8306TIP3    H146409   3.979   3.029  13.377  1.5182 -0.0529  1.3431
 8306TIP3    H246410   4.027   2.951  13.256 -0.8121  0.3144  0.1291
 8307TIP3   OH246411   1.774   5.934  12.389  0.2293  0.8627 -0.2206
 8307TIP3    H146412   1.701   5.877  12.365 -1.1128  2.1567  0.5756
 8307TIP3    H246413   1.821   5.949  12.307  1.2805 -2.1599 -0.2853
 8308TIP3   OH246414   3.380   2.613   3.615  0.3190  0.6426  0.2853
 8308TIP3    H146415   3.405   2.585   3.704  1.9264  1.0891  0.0011
 8308TIP3    H246416   3.382   2.533   3.563 -1.6674  0.1846  0.8273
 8309TIP3   OH246417   5.326   3.468  10.516  0.1839 -0.2415  0.4233
 8309TIP3    H146418   5.244   3.466  10.468  0.0431  2.4359  0.4146
 8309TIP3    H246419   5.393   3.453  10.450 -0.2099 -3.5414  0.5882
 8310TIP3   OH246420   0.605   3.134   0.566 -0.1877  0.1073  0.2394
 8310TIP3    H146421   0.700   3.150   0.568  0.1086 -1.3885 -0.2896
 8310TIP3    H246422   0.584   3.106   0.655  0.5464 -2.7855 -0.3910
 8311TIP3   OH246423   4.835   1.876  14.921 -0.0890 -0.1219 -0.0046
 8311TIP3    H146424   4.777   1.832  14.984  0.5700  0.6801  1.1932
 8311TIP3    H246425   4.908   1.815  14.910 -1.7862 -1.9068 -2.7681
 8312TIP3   OH246426   2.440   4.931  15.923  0.0790 -0.4897  0.1413
 8312TIP3    H146427   2.488   4.849  15.914 -0.5606 -0.7907 -0.7063
 8312TIP3    H246428   2.350   4.904  15.943 -0.6232 -0.1140 -2.2264
 8313TIP3   OH246429   5.341   3.177   4.201  0.1417 -0.4428 -0.6502
 8313TIP3    H146430   5.307   3.258   4.240  1.4373 -0.5055  0.6796
 8313TIP3    H246431   5.371   3.125   4.275 -2.8446 -3.2843 -1.2002
 8314TIP3   OH246432   4.035   1.645  14.182  0.1765 -0.4524 -0.2792
 8314TIP3    H146433   4.110   1.598  14.220 -0.4838 -0.6616  0.7889
 8314TIP3    H246434   4.074   1.701  14.115  1.4490  0.3088  1.0519
 8315TIP3   OH246435   0.392   4.652   3.538 -0.1559 -0.2587  0.8582
 8315TIP3    H146436   0.385   4.747   3.550  0.4317 -0.2148  0.8968
 8315TIP3    H246437   0.479   4.639   3.501 -0.5273 -0.7232  0.1302
 8316TIP3   OH246438   3.417   3.421  11.270  0.0127  0.2555 -0.5117
 8316TIP3    H146439   3.491   3.364  11.289 -1.4805 -1.1763  1.4180
 8316TIP3    H246440   3.415   3.484  11.342 -0.8377  0.0695 -0.3614
 8317TIP3   OH246441   0.801   3.132  13.027  0.2278 -0.3169  0.5819
 8317TIP3    H146442   0.845   3.126  12.942  0.2855  1.2634  0.4709
 8317TIP3    H246443   0.834   3.212  13.066 -2.0066  0.6015  0.7764
 8318TIP3   OH246444   5.993   1.788   3.642  0.0034  0.3773  0.6161
 8318TIP3    H146445   6.042   1.707   3.653 -0.3849  0.1556  0.7726
 8318TIP3    H246446   6.045   1.855   3.686  1.1589  0.5518 -0.9562
 8319TIP3   OH246447   6.623   1.497   0.683  0.2126  0.0207 -0.5562
 8319TIP3    H146448   6.583   1.487   0.597 -2.3266 -0.8993  0.6004
 8319TIP3    H246449   6.573   1.567   0.724  0.8275 -0.1082  0.4473
 8320TIP3   OH246450   5.482   3.351   0.462  0.1873  0.3744  0.3328
 8320TIP3    H146451   5.415   3.326   0.526 -1.5195 -0.1135 -1.5266
 8320TIP3    H246452   5.560   3.302   0.488 -0.9970 -1.2711  0.9741
 8321TIP3   OH246453   3.902   3.470  12.136  0.3146  0.1412 -0.0250
 8321TIP3    H146454   3.976   3.419  12.171 -0.1859 -0.6255 -0.0701
 8321TIP3    H246455   3.830   3.452  12.196 -0.1518 -0.0175 -0.6362
 8322TIP3   OH246456   0.775   1.167  14.142 -0.4293 -0.4340 -0.2891
 8322TIP3    H146457   0.761   1.221  14.065  0.9879 -0.1412 -0.3773
 8322TIP3    H246458   0.730   1.084  14.123 -1.6689  0.2895 -0.6181
 8323TIP3   OH246459   3.062   6.110   2.481 -0.1917 -0.1767  0.7313
 8323TIP3    H146460   3.072   6.015   2.489 -1.5062 -0.4422 -0.3981
 8323TIP3    H246461   3.150   6.145   2.498  0.1094 -1.5072  2.1424
 8324TIP3   OH246462   5.167   5.406   4.084  0.3131  0.3109 -0.1720
 8324TIP3    H146463   5.105   5.335   4.064  0.3469  0.2470 -0.0467
 8324TIP3    H246464   5.181   5.400   4.178  1.2897 -0.3190 -0.3409
 8325TIP3   OH246465   5.681   3.209   5.470  0.1629 -0.0368  0.1905
 8325TIP3    H146466   5.666   3.280   5.407 -0.3671 -1.7454 -1.7218
 8325TIP3    H246467   5.605   3.152   5.461  1.0091 -1.3513  0.9711
 8326TIP3   OH246468   4.652   6.547   0.871  0.3517 -0.1883  0.5585
 8326TIP3    H146469   4.581   6.604   0.841  2.2523  2.2885  0.4530
 8326TIP3    H246470   4.699   6.524   0.791  0.3800 -0.8138  0.7534
 8327TIP3   OH246471   3.995   3.122   4.765 -0.3835 -0.3319  0.3613
 8327TIP3    H146472   4.014   3.042   4.716 -1.1638 -1.0913  1.2492
 8327TIP3    H246473   3.953   3.180   4.701 -0.6239 -0.9752 -0.0759
 8328TIP3   OH246474   5.048   2.980  15.741  0.1455  0.2842  0.0019
 8328TIP3    H146475   5.043   2.979  15.837  0.8284 -2.1370  0.0806
 8328TIP3    H246476   4.963   3.011  15.713 -1.6004 -2.7304  1.4350
 8329TIP3   OH246477   1.603   3.722   4.082  0.2801  0.3052 -0.1126
 8329TIP3    H146478   1.630   3.810   4.109  1.4701 -0.3398  0.9136
 8329TIP3    H246479   1.618   3.668   4.159  0.7217 -1.0156 -1.0979
 8330TIP3   OH246480   1.875   3.868  14.939 -0.4364 -0.1077 -0.5270
 8330TIP3    H146481   1.889   3.911  15.024  0.7061  1.4045 -1.4268
 8330TIP3    H246482   1.849   3.939  14.880  1.7848 -0.5322 -2.1524
 8331TIP3   OH246483   5.257   3.041   3.078 -0.2666  0.2245  0.1371
 8331TIP3    H146484   5.304   3.056   3.160  1.2126  0.4965 -0.7102
 8331TIP3    H246485   5.224   2.952   3.085 -0.7353  0.4798  1.2932
 8332TIP3   OH246486   5.649   5.259  14.441  0.5207  0.2326 -0.1723
 8332TIP3    H146487   5.601   5.197  14.387  2.5675 -2.0184  0.4341
 8332TIP3    H246488   5.582   5.296  14.500 -1.1603  0.4588 -2.1145
 8333TIP3   OH246489   5.792   4.281   5.790  0.0829  0.5426  0.0887
 8333TIP3    H146490   5.820   4.190   5.781  1.1164  0.9301 -0.9235
 8333TIP3    H246491   5.730   4.280   5.862  1.6164 -0.6252  1.4763
 8334TIP3   OH246492   1.075   4.334  11.450 -0.4591  0.0267 -0.3523
 8334TIP3    H146493   1.016   4.396  11.492 -0.7060 -1.0340  0.9563
 8334TIP3    H246494   1.100   4.274  11.520 -0.3647 -1.4371 -1.5815
 8335TIP3   OH246495   6.063   4.395   0.492  0.6395 -0.4742 -0.0046
 8335TIP3    H146496   6.155   4.387   0.517  0.8313 -1.2008 -0.9022
 8335TIP3    H246497   6.040   4.486   0.513  1.1116 -0.7249  1.6602
 8336TIP3   OH246498   0.255   0.983  14.092 -0.2957 -0.2008 -0.4351
 8336TIP3    H146499   0.305   1.063  14.075 -0.1512 -0.2440 -0.2192
 8336TIP3    H246500   0.186   0.983  14.026  0.1798 -0.3033 -0.9408
 8337TIP3   OH246501   3.909   5.354  15.417  0.0846  0.3000 -0.1534
 8337TIP3    H146502   3.842   5.376  15.482 -1.0197 -1.1068 -0.7635
 8337TIP3    H246503   3.860   5.319  15.343  1.5163 -2.1795 -0.0616
 8338TIP3   OH246504   3.923   5.576   0.935  0.2649 -0.2158 -0.2414
 8338TIP3    H146505   3.970   5.496   0.912 -0.8428 -0.9037 -0.1704
 8338TIP3    H246506   3.901   5.616   0.851 -1.0958 -1.1415 -0.3535
 8339TIP3   OH246507   4.942   5.798  12.355 -0.6520 -0.1446 -0.0474
 8339TIP3    H146508   5.026   5.825  12.317 -0.7463 -0.5501 -0.5463
 8339TIP3    H246509   4.901   5.880  12.382  0.9438 -0.0614  2.4636
 8340TIP3   OH246510   4.433   2.515   1.631  0.3326 -0.1062 -0.7368
 8340TIP3    H146511   4.435   2.597   1.681 -1.8103 -0.2958 -0.2442
 8340TIP3    H246512   4.472   2.451   1.690  1.8070  0.4639 -1.0352
 8341TIP3   OH246513   1.546   3.805  14.645 -0.2187 -0.2252  0.1733
 8341TIP3    H146514   1.552   3.826  14.552  2.9505  0.4912  0.4475
 8341TIP3    H246515   1.630   3.765  14.666 -1.5031 -1.9952  2.4021
 8342TIP3   OH246516   4.736   2.979   6.000  0.1414  0.0497  0.0390
 8342TIP3    H146517   4.779   2.901   5.964 -0.4273 -0.4898  0.4963
 8342TIP3    H246518   4.650   2.947   6.029 -0.3440  0.9854 -0.3392
 8343TIP3   OH246519   2.708   3.835   0.491  0.7843 -0.1383 -0.3415
 8343TIP3    H146520   2.707   3.860   0.399  1.0328 -0.7285 -0.5059
 8343TIP3    H246521   2.796   3.860   0.522  1.1512 -1.0821 -0.5893
 8344TIP3   OH246522   0.569   1.208   2.519 -0.1702  0.2125  0.2258
 8344TIP3    H146523   0.536   1.297   2.504 -0.0173  0.4796  1.3461
 8344TIP3    H246524   0.513   1.152   2.465 -0.8450  0.9123  0.1786
 8345TIP3   OH246525   1.041   1.765   5.903  0.1216  0.2588  0.0469
 8345TIP3    H146526   0.967   1.728   5.952  0.5650  0.4701  0.8971
 8345TIP3    H246527   1.076   1.833   5.960 -0.5498  1.8840 -1.4195
 8346TIP3   OH246528   1.697   3.950   1.388 -0.0472 -0.4594  0.6809
 8346TIP3    H146529   1.743   3.963   1.472  0.3154  0.7432  0.3239
 8346TIP3    H246530   1.613   3.993   1.400  1.2247  2.7189 -0.5701
 8347TIP3   OH246531   4.789   5.102  12.686  0.0898 -0.3535  0.0952
 8347TIP3    H146532   4.882   5.082  12.693  0.3902  0.6754 -0.7157
 8347TIP3    H246533   4.755   5.086  12.775  0.1355 -4.6989 -0.4495
 8348TIP3   OH246534   3.682   6.545   5.401 -0.0460 -0.3121 -0.1677
 8348TIP3    H146535   3.650   6.634   5.415  1.6253  0.8604 -2.9263
 8348TIP3    H246536   3.777   6.552   5.411  0.1122 -1.7935 -0.3784
 8349TIP3   OH246537   3.904   0.645  16.302 -0.0685  0.0508  0.5980
 8349TIP3    H146538   3.908   0.564  16.251 -0.3401 -0.9444  2.0779
 8349TIP3    H246539   3.993   0.680  16.298  0.1550 -0.5356  0.2818
 8350TIP3   OH246540   4.343   0.078   4.267  0.4078 -0.4907  0.0409
 8350TIP3    H146541   4.299   0.145   4.214 -2.0809 -2.7865 -0.9790
 8350TIP3    H246542   4.283   0.061   4.340  1.1245 -1.4215  0.4350
 8351TIP3   OH246543   5.677   1.277  13.107  0.4789 -0.0690  0.1547
 8351TIP3    H146544   5.740   1.247  13.042  0.7966  0.1222  0.3685
 8351TIP3    H246545   5.644   1.197  13.149  1.0837 -0.1413  0.5040
 8352TIP3   OH246546   5.355   2.448  12.686 -0.1665 -0.4053 -0.9890
 8352TIP3    H146547   5.423   2.481  12.627  1.2603 -1.0171  0.2522
 8352TIP3    H246548   5.276   2.447  12.632  1.0814 -1.0615 -2.9300
 8353TIP3   OH246549   5.894   4.581   4.761 -0.3500 -0.1782  0.5551
 8353TIP3    H146550   5.920   4.523   4.832  1.0838 -0.6609 -0.3244
 8353TIP3    H246551   5.925   4.537   4.682 -1.9137  0.3381 -0.3841
 8354TIP3   OH246552   3.732   1.766   6.023  0.0663  0.0476  0.1383
 8354TIP3    H146553   3.773   1.680   6.011  0.0412  0.1097 -0.4071
 8354TIP3    H246554   3.802   1.821   6.058  0.6851  0.3372 -1.4355
 8355TIP3   OH246555   1.842   6.692   1.396 -0.2018 -0.0167  0.4376
 8355TIP3    H146556   1.781   6.621   1.378 -0.4542  0.1210  0.7439
 8355TIP3    H246557   1.841   6.701   1.491 -0.7608  0.9187  0.3526
 8356TIP3   OH246558   0.951   3.593   0.835 -0.4625 -0.1168 -0.5051
 8356TIP3    H146559   0.893   3.631   0.769 -0.9587 -0.6503 -0.3900
 8356TIP3    H246560   0.933   3.644   0.914 -0.5287 -0.0607 -0.5560
 8357TIP3   OH246561   5.441   6.472   3.493  0.2690 -0.0474  0.5221
 8357TIP3    H146562   5.416   6.553   3.538  1.4533 -0.4671  2.0020
 8357TIP3    H246563   5.485   6.501   3.414 -1.2104  0.7170 -0.0606
 8358TIP3   OH246564   1.158   5.629   4.451  0.0525  0.1477 -0.0602
 8358TIP3    H146565   1.092   5.697   4.437 -1.2244 -0.9580  0.4455
 8358TIP3    H246566   1.123   5.552   4.406 -0.6069 -1.3759  2.8399
 8359TIP3   OH246567   6.539   0.275   2.145 -0.1375  0.3230  0.0604
 8359TIP3    H146568   6.591   0.322   2.210 -0.7570  0.1494  0.6967
 8359TIP3    H246569   6.569   0.184   2.151  0.1558  0.3948 -0.2599
 8360TIP3   OH246570   5.151   5.923   2.109 -0.1972 -0.6488  0.6328
 8360TIP3    H146571   5.126   6.006   2.149  1.8587  1.6376 -2.3480
 8360TIP3    H246572   5.247   5.927   2.104 -0.2147 -1.3868 -2.8833
 8361TIP3   OH246573   3.611   2.980  14.573 -0.1795 -0.2300 -0.0873
 8361TIP3    H146574   3.664   2.954  14.648  0.2250 -0.8764 -0.5822
 8361TIP3    H246575   3.662   2.951  14.497 -0.4096  0.7274 -0.6278
 8362TIP3   OH246576   2.600   5.275   6.529 -0.4458  0.0705 -0.3223
 8362TIP3    H146577   2.671   5.259   6.466  0.3821 -1.6972  0.9534
 8362TIP3    H246578   2.631   5.233   6.610 -2.4714  0.2551  0.5932
 8363TIP3   OH246579   2.560   4.399   2.410 -0.0022  0.3171  0.2864
 8363TIP3    H146580   2.627   4.461   2.379  1.3275  0.4013  3.0818
 8363TIP3    H246581   2.606   4.341   2.469 -1.6257 -2.2813 -0.8190
 8364TIP3   OH246582   5.279   0.454  12.794 -0.1812  0.2627 -0.0414
 8364TIP3    H146583   5.340   0.391  12.755  1.1868  2.0918 -1.0307
 8364TIP3    H246584   5.280   0.434  12.887  0.7897 -0.7166 -0.2458
 8365TIP3   OH246585   2.262   3.029   5.956 -0.4400 -0.4052 -0.5478
 8365TIP3    H146586   2.330   2.961   5.955  0.8731  0.7190  2.0190
 8365TIP3    H246587   2.192   2.992   6.011  0.1108  0.1047  0.5345
 8366TIP3   OH246588   0.171   0.642  11.767  0.1860  0.1463  0.2707
 8366TIP3    H146589   0.146   0.574  11.705  2.5206  0.0621 -0.6843
 8366TIP3    H246590   0.215   0.596  11.838 -0.9211  0.4095  1.1485
 8367TIP3   OH246591   0.406   3.993  11.862 -0.4113 -0.0567 -0.2770
 8367TIP3    H146592   0.336   4.022  11.921 -0.0283  0.1333  0.0953
 8367TIP3    H246593   0.368   3.920  11.814 -1.7481  1.6196 -1.9603
 8368TIP3   OH246594   4.992   3.895   3.038  0.0530  0.3543  0.3016
 8368TIP3    H146595   5.020   3.879   2.948  0.0845  1.4833  0.0946
 8368TIP3    H246596   4.978   3.808   3.075  0.7927 -0.1423 -0.5565
 8369TIP3   OH246597   0.893   2.345   2.609  0.4183 -1.1182 -0.4492
 8369TIP3    H146598   0.986   2.360   2.595  0.2938 -1.0205 -1.2715
 8369TIP3    H246599   0.852   2.430   2.592 -0.0322 -1.6775 -2.4581
 8370TIP3   OH246600   6.407   1.339   0.820  0.3240  0.3811  0.4302
 8370TIP3    H146601   6.491   1.294   0.833  0.5158  0.1508 -1.3400
 8370TIP3    H246602   6.370   1.297   0.742 -1.0562  1.0578  0.6978
 8371TIP3   OH246603   3.584   1.171   4.820  1.3044 -0.1827 -0.2771
 8371TIP3    H146604   3.663   1.116   4.821  0.6933 -1.0687 -0.3729
 8371TIP3    H246605   3.512   1.110   4.806  0.5048  0.5215  0.6494
 8372TIP3   OH246606   4.851   5.736   3.708  0.0815 -0.1773  0.2176
 8372TIP3    H146607   4.928   5.682   3.689  0.8537  1.2922 -1.0514
 8372TIP3    H246608   4.886   5.821   3.735 -1.0456  0.7376 -1.0239
 8373TIP3   OH246609   0.497   2.580  16.525 -0.1930  0.2957 -0.5925
 8373TIP3    H146610   0.483   2.554  16.434 -1.9313  0.3393 -0.3723
 8373TIP3    H246611   0.532   2.502  16.567  0.9316  0.3695 -1.3411
 8374TIP3   OH246612   3.345   3.923  13.734 -0.1884 -0.0225 -0.0937
 8374TIP3    H146613   3.273   3.985  13.718 -0.7157 -0.5050  0.3632
 8374TIP3    H246614   3.422   3.965  13.695 -1.0386 -0.2577 -2.1780
 8375TIP3   OH246615   1.040   3.968  12.494 -0.0970  0.3774 -0.0584
 8375TIP3    H146616   1.134   3.984  12.504 -0.4608  2.9473 -0.2187
 8375TIP3    H246617   1.016   3.918  12.572  1.3103  0.0588  0.1959
 8376TIP3   OH246618   0.608   5.535  11.070  0.1936  0.1772  0.5746
 8376TIP3    H146619   0.557   5.467  11.115 -2.6148  1.1746 -0.9187
 8376TIP3    H246620   0.581   5.617  11.111 -0.0029  0.8042 -0.7611
 8377TIP3   OH246621   2.937   5.044   0.746 -0.1452  1.1944 -0.3095
 8377TIP3    H146622   2.877   5.119   0.755 -0.0677  1.0386  2.1555
 8377TIP3    H246623   2.899   4.977   0.802  0.5493 -0.1500 -1.4086
 8378TIP3   OH246624   2.444   3.397  13.586  0.3943  0.2820  0.5210
 8378TIP3    H146625   2.482   3.480  13.615 -0.1308  0.2446  1.3520
 8378TIP3    H246626   2.370   3.422  13.532 -0.3551  0.3700  1.5667
 8379TIP3   OH246627   1.702   4.716   4.536  0.1164 -0.4094  0.1153
 8379TIP3    H146628   1.647   4.667   4.597  1.1847 -1.2969  0.3892
 8379TIP3    H246629   1.665   4.697   4.450  0.4456 -1.6344  0.2238
 8380TIP3   OH246630   3.096   3.716  17.075 -0.3099 -0.5949  0.4622
 8380TIP3    H146631   3.187   3.721  17.045 -0.8979  1.1094 -1.2117
 8380TIP3    H246632   3.087   3.789  17.137 -1.2438  1.1656 -1.6238
 8381TIP3   OH246633   0.516   0.880   0.922 -0.0111 -0.0637 -0.6262
 8381TIP3    H146634   0.448   0.887   0.855 -0.4125 -3.2364 -0.7298
 8381TIP3    H246635   0.475   0.912   1.002 -0.5609  0.9040 -1.2842
 8382TIP3   OH246636   0.151   4.315  16.638 -0.2781  0.1986 -0.0094
 8382TIP3    H146637   0.132   4.256  16.564 -0.9242  0.0484  0.2713
 8382TIP3    H246638   0.212   4.266  16.693 -0.0644  0.1731 -0.2668
 8383TIP3   OH246639   2.767   0.030   3.593  0.1293 -0.2078 -0.1848
 8383TIP3    H146640   2.813  -0.041   3.549  1.2696  0.5259 -0.2134
 8383TIP3    H246641   2.818   0.047   3.672 -0.4911  0.1542  0.1447
 8384TIP3   OH246642   4.500   5.426  15.617  0.2905 -0.6091  0.2705
 8384TIP3    H146643   4.449   5.406  15.538 -0.1181 -2.4742  0.9546
 8384TIP3    H246644   4.591   5.415  15.590  0.3603  1.7542 -0.6939
 8385TIP3   OH246645   6.631   4.336  13.334  0.1143 -0.4175 -0.3590
 8385TIP3    H146646   6.600   4.401  13.399 -0.7883 -1.6648  0.5146
 8385TIP3    H246647   6.637   4.385  13.252 -0.5709  0.7725  0.2728
 8386TIP3   OH246648   1.805   2.032   0.006  0.2927  0.1330  0.6318
 8386TIP3    H146649   1.816   2.088   0.082  0.0915 -0.0579  0.8039
 8386TIP3    H246650   1.844   1.948   0.032  1.4421  0.4599  0.0478
 8387TIP3   OH246651   1.272   6.158  14.336  0.4156 -0.3909  0.1157
 8387TIP3    H146652   1.312   6.169  14.250  1.2689 -0.6187  0.4772
 8387TIP3    H246653   1.250   6.065  14.341 -1.7948  0.0156 -0.7660
 8388TIP3   OH246654   4.426   2.058   0.657 -0.1412  0.0415 -1.3767
 8388TIP3    H146655   4.342   2.082   0.616  0.4535  3.1558 -1.0060
 8388TIP3    H246656   4.488   2.055   0.585 -0.3160 -1.0065 -1.4913
 8389TIP3   OH246657   5.071   4.450   2.361  0.1336 -0.7824 -0.6491
 8389TIP3    H146658   5.079   4.530   2.412 -1.4318 -0.6904 -0.4939
 8389TIP3    H246659   5.027   4.389   2.418  0.9474 -1.6406 -0.9148
 8390TIP3   OH246660   4.469   2.528   0.340 -0.4641  0.3764  0.1771
 8390TIP3    H146661   4.460   2.475   0.419 -0.6671  1.7516  1.1046
 8390TIP3    H246662   4.561   2.557   0.341 -0.5406  0.6252  0.0633
 8391TIP3   OH246663   1.018   1.848   0.981 -0.1640 -0.0980  0.4400
 8391TIP3    H146664   1.073   1.866   0.905 -0.3890 -2.0932 -0.2332
 8391TIP3    H246665   1.002   1.935   1.019  0.9451  0.8235 -1.0672
 8392TIP3   OH246666   2.095   5.876  15.652  0.1234 -0.1037 -0.0543
 8392TIP3    H146667   2.141   5.931  15.589  1.2857  0.6303  1.3579
 8392TIP3    H246668   2.070   5.937  15.722  1.1542 -1.2772  1.4084
 8393TIP3   OH246669   2.738   2.227  14.629 -0.4537  0.0613  0.2964
 8393TIP3    H146670   2.752   2.322  14.623  0.5983 -0.1634 -1.3075
 8393TIP3    H246671   2.703   2.203  14.543 -1.6686 -0.8823  1.0270
 8394TIP3   OH246672   3.180   2.732   2.094  0.5546 -0.6545  0.5913
 8394TIP3    H146673   3.213   2.778   2.017  1.0085  0.0635  1.2163
 8394TIP3    H246674   3.088   2.759   2.100  0.1909 -1.5764 -0.3269
 8395TIP3   OH246675   6.599   0.372   3.344  0.2824  0.7035 -0.2191
 8395TIP3    H146676   6.612   0.347   3.253  1.0405  0.9844 -0.1914
 8395TIP3    H246677   6.603   0.468   3.344  0.2351  0.7077  0.1053
 8396TIP3   OH246678   2.151   1.188   2.989  0.3529  0.3790  0.4843
 8396TIP3    H146679   2.120   1.109   3.034  2.6152  0.6003  2.6189
 8396TIP3    H246680   2.142   1.167   2.896  0.0763 -2.0556  0.9868
 8397TIP3   OH246681   4.611   0.531  11.499 -0.0400  0.2483 -0.5263
 8397TIP3    H146682   4.606   0.618  11.540 -4.0150 -0.3659  0.7182
 8397TIP3    H246683   4.611   0.470  11.573 -1.4004 -0.8134 -1.3639
 8398TIP3   OH246684   3.468   3.285   5.353  0.2107 -0.4377 -0.2213
 8398TIP3    H146685   3.422   3.205   5.327  1.4385 -0.8754 -1.1601
 8398TIP3    H246686   3.410   3.327   5.417 -0.8770 -1.6029 -0.4096
 8399TIP3   OH246687   3.899   6.817   0.741  0.1948  0.1835 -0.3189
 8399TIP3    H146688   3.857   6.830   0.826 -0.8698  1.6007 -1.0408
 8399TIP3    H246689   3.903   6.721   0.732 -0.7994  0.0109  0.7652
 8400TIP3   OH246690   5.073   3.006   3.662  0.2379 -0.3568 -0.3724
 8400TIP3    H146691   5.152   2.953   3.673  0.9238  0.8967  1.1010
 8400TIP3    H246692   5.053   3.039   3.750  0.3288  2.4241 -1.2769
 8401TIP3   OH246693   3.748   3.709  13.779 -0.8236  0.1577 -0.0686
 8401TIP3    H146694   3.738   3.792  13.825 -1.0070  0.6461 -0.9614
 8401TIP3    H246695   3.825   3.722  13.723 -0.7147 -0.3512 -0.0354
 8402TIP3   OH246696   2.074   2.529   5.580 -0.4907 -0.2560  0.2082
 8402TIP3    H146697   2.127   2.604   5.606  0.4363 -0.9167  0.2557
 8402TIP3    H246698   2.018   2.512   5.655 -0.9401  0.5886  0.0729
 8403TIP3   OH246699   6.000   4.822  12.984  0.1338  0.0706 -0.5981
 8403TIP3    H146700   6.052   4.762  12.932  0.3182 -1.2325  1.0126
 8403TIP3    H246701   6.062   4.886  13.018  0.0508  0.7737 -1.7184
 8404TIP3   OH246702   0.802   3.329  16.600  0.0358 -0.1139  0.3093
 8404TIP3    H146703   0.857   3.276  16.658  0.0214  0.7066  1.0941
 8404TIP3    H246704   0.811   3.419  16.634 -0.3608  0.3065 -0.6615
 8405TIP3   OH246705   6.637   4.305  14.202 -0.0260 -0.2018  0.3801
 8405TIP3    H146706   6.562   4.245  14.199 -0.0668 -0.1679  0.7539
 8405TIP3    H246707   6.640   4.343  14.114 -0.2696 -0.4190  0.2751
 8406TIP3   OH246708   4.618   0.005  11.558  0.0063  0.6603 -0.6673
 8406TIP3    H146709   4.671   0.015  11.637 -0.1939  0.7424 -0.5424
 8406TIP3    H246710   4.588  -0.086  11.561  1.0580  0.2652 -1.3208
 8407TIP3   OH246711   4.399   5.882   2.968  0.0499 -0.0052  0.0788
 8407TIP3    H146712   4.467   5.859   3.031  0.7051 -0.7898 -0.8943
 8407TIP3    H246713   4.417   5.973   2.945 -1.2084  0.8748  2.2527
 8408TIP3   OH246714   0.720   2.088  15.852 -0.1588  0.4968 -0.5802
 8408TIP3    H146715   0.700   2.170  15.896 -0.4338  0.2526 -0.2374
 8408TIP3    H246716   0.762   2.113  15.770 -0.4408  0.9832 -0.5772
 8409TIP3   OH246717   4.094   3.705  16.766  0.1511  0.1140 -0.0835
 8409TIP3    H146718   4.156   3.643  16.803  1.1479  1.1663  0.0314
 8409TIP3    H246719   4.019   3.651  16.740  0.2357 -0.8890  1.6592
 8410TIP3   OH246720   0.104   3.261  14.416 -0.1959 -0.1244  0.1335
 8410TIP3    H146721   0.088   3.307  14.498  2.5815  0.3041  0.5344
 8410TIP3    H246722   0.042   3.299  14.354 -1.1351  0.8091  1.5934
 8411TIP3   OH246723   4.189   5.926  15.013  0.1765  0.0340  0.3211
 8411TIP3    H146724   4.212   5.898  15.102 -0.8954 -2.6310 -0.1397
 8411TIP3    H246725   4.146   6.010  15.025  2.4459  1.0911  1.9903
 8412TIP3   OH246726   5.981   2.526   4.931 -0.0226  0.1236  0.4549
 8412TIP3    H146727   5.982   2.581   5.009  0.8153 -2.0991  2.1116
 8412TIP3    H246728   5.888   2.515   4.910 -0.2668  0.6714  1.2075
 8413TIP3   OH246729   0.901   0.972  15.433  0.6488  0.5133 -0.4322
 8413TIP3    H146730   0.982   0.921  15.434 -1.0643 -2.5281  1.9464
 8413TIP3    H246731   0.899   1.015  15.519 -0.6415 -0.2445 -0.0560
 8414TIP3   OH246732   6.374   6.280  13.600 -0.2855  0.3087 -0.5056
 8414TIP3    H146733   6.334   6.356  13.643  1.1767  1.3713 -0.9288
 8414TIP3    H246734   6.440   6.249  13.663  0.5237  0.6764 -1.1508
 8415TIP3   OH246735   1.389   6.216   0.847 -0.5542 -0.5476 -0.1118
 8415TIP3    H146736   1.328   6.290   0.853  0.3279  0.1589  0.4590
 8415TIP3    H246737   1.439   6.233   0.767  0.3062  0.0162  0.5253
 8416TIP3   OH246738   5.186   3.956  11.588 -0.2647  0.5890  0.2479
 8416TIP3    H146739   5.149   3.948  11.500 -1.0402  0.6161  0.5612
 8416TIP3    H246740   5.258   3.893  11.589 -1.7299 -1.1785  0.3362
 8417TIP3   OH246741   4.013   3.582   1.259 -0.1571 -0.3793  0.2161
 8417TIP3    H146742   3.934   3.529   1.249 -0.8090 -0.0369  2.7781
 8417TIP3    H246743   4.077   3.523   1.298 -0.0413  0.0533  0.6817
 8418TIP3   OH246744   2.443   0.220  10.808 -0.7609 -0.8343 -0.2323
 8418TIP3    H146745   2.375   0.274  10.848 -0.2638  1.1820 -1.8998
 8418TIP3    H246746   2.487   0.279  10.747  3.2120 -1.7142  1.4689
 8419TIP3   OH246747   5.011   4.653   5.935 -0.1555 -0.5358 -0.1814
 8419TIP3    H146748   4.957   4.731   5.923  0.5126  0.3227  1.8411
 8419TIP3    H246749   5.072   4.677   6.005  1.1389 -2.3449 -0.6045
 8420TIP3   OH246750   2.758   1.157   0.831 -0.0977  0.0025  0.7098
 8420TIP3    H146751   2.747   1.135   0.924 -1.1563  1.5370  0.9760
 8420TIP3    H246752   2.769   1.072   0.788 -0.2664 -0.7808  2.1389
 8421TIP3   OH246753   3.034   6.566   5.167  0.1016 -0.0627  0.3869
 8421TIP3    H146754   2.956   6.542   5.217 -0.5834 -0.4243 -0.8134
 8421TIP3    H246755   3.078   6.483   5.150 -0.2237 -0.0613 -0.4879
 8422TIP3   OH246756   4.473   3.756   1.060  0.0846  0.5660  0.0781
 8422TIP3    H146757   4.515   3.809   1.127 -1.4060  0.1593  1.3842
 8422TIP3    H246758   4.419   3.817   1.010 -1.5701  0.3668  1.5321
 8423TIP3   OH246759   4.118   5.069   5.352  0.3851  0.2608 -0.0965
 8423TIP3    H146760   4.179   5.014   5.401  2.2268  0.9801 -1.4651
 8423TIP3    H246761   4.125   5.039   5.262  0.1557  1.6097 -0.5912
 8424TIP3   OH246762   4.064   2.338   1.979  0.3624 -0.3736 -0.2579
 8424TIP3    H146763   3.981   2.291   1.982  0.7041 -1.2184 -2.2041
 8424TIP3    H246764   4.109   2.313   2.060 -1.5350  0.7159  1.2205
 8425TIP3   OH246765   6.456   5.200   5.060  0.2556  0.1991  0.3519
 8425TIP3    H146766   6.378   5.159   5.024  1.0377 -1.8783  0.8941
 8425TIP3    H246767   6.427   5.237   5.144 -0.8831  2.5015 -0.9553
 8426TIP3   OH246768   1.747   1.407  15.027 -0.1343  0.2454  1.0283
 8426TIP3    H146769   1.684   1.468  15.064 -0.4224 -0.5449  1.8774
 8426TIP3    H246770   1.758   1.340  15.094  0.0213 -0.7490  0.0490
 8427TIP3   OH246771   0.311   3.376  14.127 -0.4483 -0.5605 -0.5116
 8427TIP3    H146772   0.250   3.357  14.055 -0.0605  0.4211 -1.1153
 8427TIP3    H246773   0.259   3.423  14.191 -0.4167 -0.0470 -0.8621
 8428TIP3   OH246774   1.578   1.571  15.737 -0.1144  0.4325  0.6512
 8428TIP3    H146775   1.663   1.595  15.774 -1.4260  2.1683  2.8031
 8428TIP3    H246776   1.519   1.641  15.764 -2.5361 -1.3491  0.3809
 8429TIP3   OH246777   1.278   1.069   1.101  0.2091  0.3940  0.4219
 8429TIP3    H146778   1.229   1.103   1.176 -0.3268  2.0446 -0.6025
 8429TIP3    H246779   1.212   1.027   1.046  0.0000  1.9683 -0.6036
 8430TIP3   OH246780   1.327   5.388  13.483 -0.6350  0.4863 -0.0104
 8430TIP3    H146781   1.355   5.479  13.482  1.1953  0.0341 -3.1489
 8430TIP3    H246782   1.256   5.384  13.419 -0.2874 -0.4187 -0.3431
 8431TIP3   OH246783   5.788   3.465  15.915 -0.8090 -0.3939  0.0087
 8431TIP3    H146784   5.733   3.459  15.836 -0.0803  0.7282 -0.6038
 8431TIP3    H246785   5.840   3.544  15.902 -1.1818  0.2155  1.9692
 8432TIP3   OH246786   3.299   0.525  13.522 -0.7137  0.8561 -0.1015
 8432TIP3    H146787   3.383   0.569  13.533 -1.1280  1.5125  0.6064
 8432TIP3    H246788   3.239   0.596  13.497 -1.2093  0.5346  0.1580
 8433TIP3   OH246789   2.485   3.994  15.659  0.2936 -0.1745 -0.2136
 8433TIP3    H146790   2.536   4.060  15.707  1.7634 -0.3851 -1.3887
 8433TIP3    H246791   2.408   3.979  15.713  0.7018  1.3503  0.8600
 8434TIP3   OH246792   5.988   0.881  13.822 -0.0909  0.0167 -0.6565
 8434TIP3    H146793   6.041   0.802  13.817  0.6403  0.3727  0.9925
 8434TIP3    H246794   6.025   0.938  13.755 -0.0940 -0.7090 -1.2931
 8435TIP3   OH246795   0.011   5.694  11.740  0.4421  0.0920 -0.5609
 8435TIP3    H146796   0.010   5.613  11.688 -0.4232 -1.6274  1.9251
 8435TIP3    H246797  -0.075   5.697  11.782  0.3310  2.5227 -0.8091
 8436TIP3   OH246798   0.884   4.577  13.763  0.1444  0.2475 -0.0812
 8436TIP3    H146799   0.813   4.641  13.756  0.3769  0.4583 -0.6357
 8436TIP3    H246800   0.845   4.503  13.809  0.3394  1.4459  2.1215
 8437TIP3   OH246801   1.925   6.537   2.400  0.0033 -0.1049 -0.5869
 8437TIP3    H146802   1.891   6.609   2.452 -0.6164 -2.0971  1.9736
 8437TIP3    H246803   2.020   6.547   2.403 -0.0981  1.7196 -2.0698
 8438TIP3   OH246804   2.541   5.209  15.598  0.0459  0.2009  0.4745
 8438TIP3    H146805   2.475   5.144  15.575 -1.9006  1.3299  2.4688
 8438TIP3    H246806   2.506   5.291  15.563  1.6777  0.4594 -0.6272
 8439TIP3   OH246807   6.595   2.472   4.874 -0.2663 -0.3870  0.4505
 8439TIP3    H146808   6.521   2.431   4.918 -0.4927  0.4698  0.8815
 8439TIP3    H246809   6.670   2.452   4.929 -0.3139 -0.5423  0.4593
 8440TIP3   OH246810   0.595   2.290   6.744  0.5328 -0.1488 -0.5246
 8440TIP3    H146811   0.688   2.285   6.722  0.0820  0.0616 -2.6292
 8440TIP3    H246812   0.589   2.363   6.806  1.3628  2.1512 -3.0010
 8441TIP3   OH246813   0.188   2.668  14.247 -0.7170  0.5386 -0.1362
 8441TIP3    H146814   0.222   2.628  14.167  2.3381  0.8392  0.8786
 8441TIP3    H246815   0.216   2.609  14.317  0.4552  2.3729  1.0381
 8442TIP3   OH246816   6.291   5.192  13.856 -0.2914 -0.3488  0.1732
 8442TIP3    H146817   6.295   5.179  13.951 -1.0671 -1.7074  0.0474
 8442TIP3    H246818   6.380   5.218  13.832 -0.2612  0.7556  1.3507
 8443TIP3   OH246819   3.399   0.971   5.167  0.3858  0.3784  0.1481
 8443TIP3    H146820   3.331   1.038   5.175  0.7775  0.6003  1.9984
 8443TIP3    H246821   3.439   0.966   5.254  0.7707 -1.8416 -0.0804
 8444TIP3   OH246822   2.773   4.224   1.628  0.7271 -0.5742  0.5222
 8444TIP3    H146823   2.799   4.140   1.593  1.9914  0.3279 -0.7885
 8444TIP3    H246824   2.740   4.273   1.553 -0.8767 -0.1898  1.4154
 8445TIP3   OH246825   6.487   3.666  14.380 -0.1027 -0.1569  0.2747
 8445TIP3    H146826   6.539   3.618  14.316 -1.6232 -1.3760 -0.0943
 8445TIP3    H246827   6.510   3.758  14.366  1.7362 -0.6353 -0.0330
 8446TIP3   OH246828   1.060   6.629  11.025 -0.4866  0.6301  0.2243
 8446TIP3    H146829   1.120   6.560  11.054  1.2287  2.0121  0.1218
 8446TIP3    H246830   0.986   6.582  10.988 -0.0496 -1.1569  1.4899
 8447TIP3   OH246831   3.723   0.119  12.466  0.0250  1.0486 -0.0370
 8447TIP3    H146832   3.765   0.128  12.551 -1.5214 -1.4027  1.1084
 8447TIP3    H246833   3.630   0.135  12.484 -0.8936 -2.9057 -0.3842
 8448TIP3   OH246834   1.853   0.668   0.534 -0.0585  0.1283 -0.0250
 8448TIP3    H146835   1.766   0.700   0.557  0.1624  0.7697 -0.0883
 8448TIP3    H246836   1.838   0.577   0.507 -0.7988  0.4297 -0.6708
 8449TIP3   OH246837   5.650   4.735   1.896  0.3478 -0.3572 -0.8443
 8449TIP3    H146838   5.690   4.781   1.969  2.0972 -1.7060 -0.8959
 8449TIP3    H246839   5.561   4.714   1.926  0.0486  1.5661 -0.2331
 8450TIP3   OH246840   2.820   5.200  14.124  0.5400 -0.0669 -0.0141
 8450TIP3    H146841   2.858   5.213  14.210  3.4867 -3.9150 -0.5065
 8450TIP3    H246842   2.879   5.245  14.064 -0.4927  1.0557 -0.2305
 8451TIP3   OH246843   4.641   2.514  13.106 -0.6070  0.2469 -0.0770
 8451TIP3    H146844   4.726   2.551  13.081 -0.2978 -1.2755 -1.4967
 8451TIP3    H246845   4.590   2.514  13.025 -1.2332 -0.6680  0.2957
 8452TIP3   OH246846   5.252   1.465  12.753  0.2568 -0.0429  0.0056
 8452TIP3    H146847   5.184   1.532  12.760  0.3912 -0.0845  2.4466
 8452TIP3    H246848   5.223   1.409  12.681 -1.0318  1.3050 -0.5797
 8453TIP3   OH246849   6.495   2.145   2.596 -0.7125  0.5815  0.1319
 8453TIP3    H146850   6.497   2.071   2.535 -1.1888 -1.1566  2.1048
 8453TIP3    H246851   6.586   2.159   2.620 -0.6812  0.1679  0.2643
 8454TIP3   OH246852   4.870   2.788  14.537 -0.1584  0.5362  0.4522
 8454TIP3    H146853   4.834   2.798  14.449  0.7707 -0.2653 -0.0338
 8454TIP3    H246854   4.804   2.736  14.584 -0.6589  0.9740  0.2498
 8455TIP3   OH246855   0.560   4.629  11.516 -0.4811  0.0299 -0.3093
 8455TIP3    H146856   0.557   4.705  11.458  0.3903 -0.2780 -0.7703
 8455TIP3    H246857   0.503   4.564  11.473 -2.1170  0.7744  0.6434
 8456TIP3   OH246858   2.190   2.163   2.771  0.5869  0.7815 -0.3436
 8456TIP3    H146859   2.099   2.190   2.760  0.3076  0.6707  1.3464
 8456TIP3    H246860   2.241   2.239   2.747 -0.0596  1.6292  0.8449
 8457TIP3   OH246861   5.096   3.425  16.682  0.0905  0.1283  0.0781
 8457TIP3    H146862   5.109   3.338  16.721  0.8522  0.0779 -0.2493
 8457TIP3    H246863   5.061   3.406  16.595 -0.6831  0.1972  0.3699
 8458TIP3   OH246864   2.476   1.490   0.099  0.0262 -0.0085 -0.6301
 8458TIP3    H146865   2.451   1.428   0.030  0.0150 -1.2075  0.4266
 8458TIP3    H246866   2.534   1.440   0.156 -0.1472  0.8947  0.3591
 8459TIP3   OH246867   0.561   3.329   2.095  0.0950 -0.0170  0.0772
 8459TIP3    H146868   0.550   3.321   2.000 -1.7247 -0.5754  0.3001
 8459TIP3    H246869   0.486   3.380   2.124  1.7077  1.9702  1.0214
 8460TIP3   OH246870   5.760   6.214  16.692  0.4908 -0.1832 -0.0290
 8460TIP3    H146871   5.771   6.130  16.736  1.9160  0.0089  0.0223
 8460TIP3    H246872   5.846   6.234  16.655  0.0295  0.9781 -0.5475
 8461TIP3   OH246873   1.262   4.697  16.520  0.0252  0.3459 -0.1899
 8461TIP3    H146874   1.344   4.736  16.490 -0.7878  1.2538 -1.3225
 8461TIP3    H246875   1.261   4.711  16.615  1.3046  0.0516 -0.1231
 8462TIP3   OH246876   1.138   4.329   1.587 -0.0951  0.3793  0.4935
 8462TIP3    H146877   1.063   4.287   1.545  0.8766  0.2136 -1.1556
 8462TIP3    H246878   1.207   4.263   1.584 -0.0203  0.3075  2.5471
 8463TIP3   OH246879   5.597   2.190   5.346  0.4207  0.2417 -0.3114
 8463TIP3    H146880   5.536   2.117   5.355 -1.1802  1.4011 -1.0862
 8463TIP3    H246881   5.684   2.151   5.353 -0.3989 -1.3912  1.5398
 8464TIP3   OH246882   5.761   4.887   6.120  0.3485 -0.2567 -0.0563
 8464TIP3    H146883   5.731   4.821   6.183 -0.9516 -0.7686 -1.1561
 8464TIP3    H246884   5.758   4.969   6.168  3.9534 -1.1377  2.0053
 8465TIP3   OH246885   2.381   2.828  15.747  0.1265  0.6877  0.1737
 8465TIP3    H146886   2.393   2.742  15.706 -1.2568  0.7953 -0.5294
 8465TIP3    H246887   2.394   2.891  15.676  0.1545  1.0124  0.4627
 8466TIP3   OH246888   3.025   6.731  13.198  0.0374 -0.0599 -0.4451
 8466TIP3    H146889   2.937   6.726  13.236  0.3181  0.9700  0.3767
 8466TIP3    H246890   3.011   6.721  13.104 -0.7634 -1.8063 -0.1856
 8467TIP3   OH246891   6.383   0.286  16.024 -0.4300 -0.1624  0.2028
 8467TIP3    H146892   6.455   0.224  16.013 -0.9583 -0.8919  0.7655
 8467TIP3    H246893   6.323   0.266  15.953 -0.7520 -0.5153  0.5703
 8468TIP3   OH246894   2.377   4.243  15.807  0.0516 -0.2716 -0.2998
 8468TIP3    H146895   2.461   4.257  15.764 -0.1784  1.8933 -0.1783
 8468TIP3    H246896   2.399   4.197  15.888  1.0200 -0.4614 -0.6526
 8469TIP3   OH246897   3.891   4.045  12.425  0.5049  0.0665 -0.0735
 8469TIP3    H146898   3.943   4.071  12.350 -0.8169 -1.1795 -1.4953
 8469TIP3    H246899   3.868   3.954  12.407 -1.1120  0.2045  1.1104
 8470TIP3   OH246900   5.008   5.693   3.275  0.5036 -0.1642  0.2155
 8470TIP3    H146901   4.978   5.622   3.218 -0.1003  0.7818 -0.6832
 8470TIP3    H246902   4.931   5.751   3.284  1.7162  1.8287 -1.3761
 8471TIP3   OH246903   5.143   4.081   4.294  0.1941 -0.0059  0.1758
 8471TIP3    H146904   5.179   4.162   4.332 -0.5057  0.0879  0.6517
 8471TIP3    H246905   5.137   4.021   4.368  0.8909 -0.5709 -0.2113
 8472TIP3   OH246906   2.803   6.799   0.294 -0.3017 -0.6488 -0.4142
 8472TIP3    H146907   2.818   6.806   0.200  0.2826 -0.1457 -0.2862
 8472TIP3    H246908   2.890   6.783   0.331 -0.4658 -0.4025  0.0814
 8473TIP3   OH246909   5.102   3.955  13.831  0.0710 -0.3534 -0.0034
 8473TIP3    H146910   5.073   4.020  13.895  0.2345 -0.1921 -0.0939
 8473TIP3    H246911   5.176   3.996  13.787 -1.9314  0.8634 -2.4897
 8474TIP3   OH246912   1.481   2.310   4.994  0.7055  0.3438  0.2889
 8474TIP3    H146913   1.396   2.296   4.951  0.9107  1.7872 -0.6611
 8474TIP3    H246914   1.530   2.230   4.975  0.6203  0.7205 -1.8547
 8475TIP3   OH246915   1.448   2.676   4.261 -0.9916 -0.1731 -0.3144
 8475TIP3    H146916   1.361   2.644   4.286 -1.0217 -0.0432 -0.2527
 8475TIP3    H246917   1.438   2.701   4.169 -0.7607 -1.0810 -0.6000
 8476TIP3   OH246918   0.332   4.629   2.905 -0.1957 -0.4054  0.5855
 8476TIP3    H146919   0.393   4.609   2.976  1.0882 -0.4499 -0.4926
 8476TIP3    H246920   0.245   4.612   2.942  0.5343 -2.2227  1.5753
 8477TIP3   OH246921   2.859   2.909   0.720 -0.2281 -0.1108  0.0080
 8477TIP3    H146922   2.776   2.929   0.676  0.2600 -1.0700 -1.4016
 8477TIP3    H246923   2.920   2.975   0.688  0.1100 -0.7648 -0.7060
 8478TIP3   OH246924   4.454   0.792   5.869  0.1852 -0.5457 -0.5491
 8478TIP3    H146925   4.549   0.796   5.859  0.4393 -2.4004  0.6359
 8478TIP3    H246926   4.440   0.726   5.937 -1.9263  0.2518 -0.1391
 8479TIP3   OH246927   3.846   3.089  16.388 -0.3506 -0.5831  0.7329
 8479TIP3    H146928   3.912   3.153  16.364 -2.7376  1.3208 -1.4099
 8479TIP3    H246929   3.872   3.059  16.475  2.3358  1.2921  0.7059
 8480TIP3   OH246930   5.511   0.461   2.155 -0.0887 -0.2147 -0.5344
 8480TIP3    H146931   5.512   0.407   2.076 -1.0476 -0.8838 -0.1075
 8480TIP3    H246932   5.599   0.451   2.192  0.4633  0.3324 -1.6475
 8481TIP3   OH246933   4.377   3.580  15.280  0.4901  0.1285  0.1006
 8481TIP3    H146934   4.445   3.645  15.294  1.7239 -0.4630 -2.5935
 8481TIP3    H246935   4.423   3.504  15.245 -1.3138 -0.9867  0.0229
 8482TIP3   OH246936   6.229   5.350   0.281  0.0723  0.0365 -0.5730
 8482TIP3    H146937   6.233   5.420   0.216  1.2788  0.1972 -0.3377
 8482TIP3    H246938   6.236   5.395   0.366 -1.0198 -0.2144 -0.3322
 8483TIP3   OH246939   1.828   2.279  15.102  0.2121 -0.0880  0.4203
 8483TIP3    H146940   1.888   2.335  15.151  0.2041  0.6506 -0.3899
 8483TIP3    H246941   1.820   2.200  15.155  1.5338 -0.0132  0.7669
 8484TIP3   OH246942   0.045   1.393   1.079  0.4685  0.6298 -0.9427
 8484TIP3    H146943   0.109   1.375   1.148 -1.0372 -0.2773  0.2536
 8484TIP3    H246944   0.093   1.450   1.018  1.4454  2.6649  1.5323
 8485TIP3   OH246945   1.373   4.653  12.869 -0.0355 -0.1042 -0.0883
 8485TIP3    H146946   1.353   4.589  12.800 -0.2454 -0.2709  0.1251
 8485TIP3    H246947   1.467   4.642  12.885  0.3101  0.8865 -1.2975
 8486TIP3   OH246948   3.599   4.537   2.017 -0.0884 -0.2197  0.2389
 8486TIP3    H146949   3.601   4.632   2.028 -0.1837 -0.0255 -1.2329
 8486TIP3    H246950   3.558   4.504   2.097 -2.2144  1.1550 -0.2008
 8487TIP3   OH246951   6.301   4.293   0.612  0.8486 -0.2079 -0.0630
 8487TIP3    H146952   6.251   4.218   0.580  1.5973 -1.1144  0.8222
 8487TIP3    H246953   6.267   4.308   0.700 -0.3879  1.5291 -0.7737
 8488TIP3   OH246954   2.944   3.457  15.550 -0.0885 -0.0197 -0.1447
 8488TIP3    H146955   2.961   3.530  15.610 -0.6766  1.7366 -1.9872
 8488TIP3    H246956   2.890   3.396  15.600 -0.2331  1.1929  1.2266
 8489TIP3   OH246957   2.836   4.690  12.524  0.0530 -0.1716  0.2704
 8489TIP3    H146958   2.912   4.650  12.565  0.3513 -1.1407 -1.1396
 8489TIP3    H246959   2.775   4.707  12.596  1.5963  0.6621  1.4277
 8490TIP3   OH246960   3.191   3.171   1.621  0.0244  0.1802  0.3814
 8490TIP3    H146961   3.170   3.259   1.590  1.5272  0.9858  1.5174
 8490TIP3    H246962   3.278   3.153   1.586 -0.7488 -1.4029 -0.8669
 8491TIP3   OH246963   4.699   3.758  16.384  0.1821 -0.1160 -0.0294
 8491TIP3    H146964   4.709   3.668  16.354  0.3170 -0.0233 -0.2676
 8491TIP3    H246965   4.612   3.760  16.424  0.0995 -0.3055 -0.1949
 8492TIP3   OH246966   1.526   1.427   0.538 -0.8590 -0.4284 -0.3742
 8492TIP3    H146967   1.581   1.435   0.460 -3.4859 -1.9206 -2.5662
 8492TIP3    H246968   1.587   1.402   0.608  1.5667  0.6284 -1.9718
 8493TIP3   OH246969   3.522   6.145   3.548  0.3922  0.0702  0.5474
 8493TIP3    H146970   3.517   6.050   3.550  1.4819 -0.0578 -1.2158
 8493TIP3    H246971   3.472   6.171   3.471  0.9442  0.8394  0.4307
 8494TIP3   OH246972   1.267   5.798   3.357  0.4344 -0.1887  0.3530
 8494TIP3    H146973   1.244   5.792   3.450 -0.4533  0.7798  0.2130
 8494TIP3    H246974   1.214   5.731   3.314  1.4763 -1.2187  0.6384
 8495TIP3   OH246975   6.145   1.674   5.112 -0.1595  0.1443 -0.0924
 8495TIP3    H146976   6.080   1.638   5.053  0.5775  0.3690 -1.0698
 8495TIP3    H246977   6.151   1.766   5.088 -0.1056  0.3204  0.5764
 8496TIP3   OH246978   1.855   2.023  15.934 -0.3601  0.2532  0.0857
 8496TIP3    H146979   1.780   2.046  15.880  0.3252 -0.2007 -1.1025
 8496TIP3    H246980   1.834   1.936  15.969  0.2828 -0.6620 -1.6380
 8497TIP3   OH246981   0.454   4.035   1.884  0.4242 -0.5816 -0.5891
 8497TIP3    H146982   0.525   4.080   1.838  0.1540 -0.4015 -0.8330
 8497TIP3    H246983   0.480   3.943   1.882  0.7838 -0.4839 -0.4391
 8498TIP3   OH246984   2.494   6.328   4.123 -0.3041  0.4793  0.0341
 8498TIP3    H146985   2.489   6.283   4.208 -0.8669  0.9301  0.2446
 8498TIP3    H246986   2.452   6.268   4.062 -2.8865  1.5108  0.6647
 8499TIP3   OH246987   6.019   0.748  15.806  0.1436 -0.3870 -0.0666
 8499TIP3    H146988   6.058   0.677  15.756  0.5703 -1.8503  2.2405
 8499TIP3    H246989   6.068   0.826  15.779  1.3645 -1.3757 -0.7665
 8500TIP3   OH246990   4.500   4.270  15.493 -0.1098  0.3763 -0.1404
 8500TIP3    H146991   4.499   4.364  15.511 -1.3361  0.1273  1.3338
 8500TIP3    H246992   4.478   4.229  15.577 -1.5601 -1.1253 -1.1808
 8501TIP3   OH246993   2.181   4.023  16.113 -0.1861  0.0586 -0.4087
 8501TIP3    H146994   2.093   4.054  16.091  0.3093  0.9064 -1.2900
 8501TIP3    H246995   2.197   4.055  16.201 -1.3062 -1.3451  0.3359
 8502TIP3   OH246996   6.449   6.820  13.096  0.0705  0.3083  0.3810
 8502TIP3    H146997   6.457   6.895  13.155  0.1948  1.2588 -0.8131
 8502TIP3    H246998   6.363   6.830  13.056  0.5400  0.4624 -0.6245
 8503TIP3   OH246999   4.280   2.171  11.649 -0.1346  0.3199  0.0763
 8503TIP3    H147000   4.211   2.224  11.690  0.4698 -0.3584  2.0931
 8503TIP3    H247001   4.359   2.195  11.697  0.9248  0.4855 -1.6698
 8504TIP3   OH247002   1.122   6.836  15.505 -0.2664  0.0108  0.1772
 8504TIP3    H147003   1.185   6.886  15.453 -0.1616 -2.0973 -1.8808
 8504TIP3    H247004   1.094   6.897  15.574 -0.1395  2.8542 -2.0956
 8505TIP3   OH247005   5.269   0.189  11.239  0.0727 -0.0378 -0.2607
 8505TIP3    H147006   5.337   0.257  11.236 -0.1157  0.2527  1.3211
 8505TIP3    H247007   5.198   0.224  11.186  0.9621 -0.1643 -1.6077
 8506TIP3   OH247008   2.653   0.976  15.147  0.2726  0.6799  0.1771
 8506TIP3    H147009   2.708   0.989  15.224  1.4938 -0.1076 -0.5195
 8506TIP3    H247010   2.634   1.065  15.116  2.1281  0.9878 -0.1986
 8507TIP3   OH247011   6.618   5.672   0.611  0.9633 -0.0675 -0.6088
 8507TIP3    H147012   6.676   5.675   0.688 -0.6591  0.9178  0.6254
 8507TIP3    H247013   6.661   5.610   0.552  2.4963 -0.5220  0.8979
 8508TIP3   OH247014   3.244   2.641   0.689 -0.5276  0.1143  0.3936
 8508TIP3    H147015   3.286   2.567   0.734  0.1884  0.5171  0.3928
 8508TIP3    H247016   3.151   2.632   0.712 -0.3992 -0.5743  0.6943
 8509TIP3   OH247017   5.112   1.105  14.918 -0.3913 -0.0666  0.1215
 8509TIP3    H147018   5.134   1.012  14.915 -1.4376 -0.3798  1.4677
 8509TIP3    H247019   5.197   1.149  14.916  0.1032 -0.9962 -1.2401
 8510TIP3   OH247020   4.482   3.066  12.242  0.0937  0.0532 -0.5938
 8510TIP3    H147021   4.443   3.095  12.159 -0.9863 -2.2109 -0.9724
 8510TIP3    H247022   4.417   3.088  12.308 -0.8231 -1.5259 -0.9083
 8511TIP3   OH247023   5.744   0.410   0.929 -0.2215 -0.4548 -0.0931
 8511TIP3    H147024   5.714   0.495   0.897  0.3403  0.1947  1.0347
 8511TIP3    H247025   5.773   0.427   1.018 -0.5975 -1.9461  0.3516
 8512TIP3   OH247026   3.366   0.109   5.658  0.1087 -0.0914  0.8099
 8512TIP3    H147027   3.329   0.061   5.584 -2.8456  1.8018  0.8866
 8512TIP3    H247028   3.353   0.051   5.733 -0.3875 -0.5031  0.4118
 8513TIP3   OH247029   0.615   6.650   5.801 -0.9666  0.4313 -0.3220
 8513TIP3    H147030   0.692   6.662   5.856 -0.9220  0.8490 -0.4692
 8513TIP3    H247031   0.578   6.738   5.792 -2.3682  0.0350  1.0432
 8514TIP3   OH247032   3.770   1.342   1.626  0.0376  0.3148  0.5586
 8514TIP3    H147033   3.795   1.264   1.576 -2.3569  0.1326 -0.4916
 8514TIP3    H247034   3.832   1.344   1.699  0.3776 -2.3950  0.4618
 8515TIP3   OH247035   6.625   3.465   2.510 -0.2644  0.2894 -0.7867
 8515TIP3    H147036   6.531   3.477   2.528 -1.2692 -2.7792 -3.1194
 8515TIP3    H247037   6.665   3.464   2.597 -2.9132 -1.4109  0.5610
 8516TIP3   OH247038   5.791   4.316   6.570  0.2037 -0.3803 -0.1878
 8516TIP3    H147039   5.884   4.330   6.588  0.2311 -0.6700 -0.0832
 8516TIP3    H247040   5.763   4.393   6.522  0.5311 -0.3502 -0.3326
 8517TIP3   OH247041   3.970   3.016   2.127  0.2201 -0.1190  0.2352
 8517TIP3    H147042   4.050   3.054   2.091  0.3297  1.8183  2.3457
 8517TIP3    H247043   3.910   3.012   2.052  1.7406 -0.0773 -1.0285
 8518TIP3   OH247044   5.321   2.509   3.591  0.1298 -0.3933  0.1974
 8518TIP3    H147045   5.378   2.467   3.527 -0.7938 -1.1723 -0.1430
 8518TIP3    H247046   5.336   2.462   3.673 -0.3992 -0.9503 -0.0194
 8519TIP3   OH247047   4.800   4.119  14.401  0.1837 -0.4969 -0.0065
 8519TIP3    H147048   4.715   4.115  14.444 -0.1230  0.9049 -0.4058
 8519TIP3    H247049   4.800   4.204  14.357  1.8555 -0.3928  0.1189
 8520TIP3   OH247050   1.870   2.328   4.036  0.0041 -0.7104 -0.3087
 8520TIP3    H147051   1.784   2.357   4.005 -0.9509 -2.3174  0.7552
 8520TIP3    H247052   1.915   2.300   3.956 -0.5631 -0.1764 -0.8341
 8521TIP3   OH247053   2.244   5.210  12.260  0.0021  0.3724 -0.0306
 8521TIP3    H147054   2.309   5.142  12.244 -1.7274 -1.2183 -0.7437
 8521TIP3    H247055   2.272   5.284  12.206  0.2862 -0.9296 -1.7652
 8522TIP3   OH247056   1.803   5.170  13.060  0.0004 -0.1063  0.3098
 8522TIP3    H147057   1.760   5.245  13.101  0.8810  0.2808  0.5448
 8522TIP3    H247058   1.827   5.113  13.132 -1.0342 -0.8411  0.1038
 8523TIP3   OH247059   2.071   1.342   1.351 -0.2194 -0.1176  0.1586
 8523TIP3    H147060   2.037   1.429   1.329 -1.5329 -0.7814 -0.5868
 8523TIP3    H247061   2.054   1.290   1.273  2.0856 -0.6574 -0.0245
 8524TIP3   OH247062   1.976   2.667   4.792  0.3282  0.3408  0.3648
 8524TIP3    H147063   1.892   2.713   4.789  1.2170  2.0468  0.5945
 8524TIP3    H247064   2.038   2.727   4.752  0.9971 -2.0427 -2.5746
 8525TIP3   OH247065   2.046   0.067   1.763 -0.0466 -0.0913 -0.4615
 8525TIP3    H147066   2.122   0.125   1.770  0.6893 -1.0393 -0.3077
 8525TIP3    H247067   1.971   0.125   1.773  0.6562  0.8477 -0.4139
 8526TIP3   OH247068   4.706   5.880   4.493  0.1983 -0.4265 -0.3752
 8526TIP3    H147069   4.757   5.886   4.413 -0.8055 -3.5724 -1.3796
 8526TIP3    H247070   4.639   5.949   4.484  1.8237  1.1595 -0.8145
 8527TIP3   OH247071   0.413   5.551   5.922 -0.1004 -0.3886  0.3034
 8527TIP3    H147072   0.499   5.592   5.916  0.1832 -1.1910 -1.5787
 8527TIP3    H247073   0.403   5.530   6.015  2.5891 -2.0123  0.3216
 8528TIP3   OH247074   3.343   5.569   3.066  0.0928 -0.1960 -0.4925
 8528TIP3    H147075   3.298   5.584   2.983  1.3728 -0.6962 -1.2992
 8528TIP3    H247076   3.361   5.657   3.100 -0.0917  0.0144 -0.9334
 8529TIP3   OH247077   5.426   3.168  13.280 -0.3356  0.0022  0.6921
 8529TIP3    H147078   5.430   3.113  13.358  2.1109  0.3730  0.9117
 8529TIP3    H247079   5.412   3.256  13.313 -1.5092 -0.1092  0.5283
 8530TIP3   OH247080   6.642   0.660   2.961  0.0741 -0.1499  0.3799
 8530TIP3    H147081   6.564   0.654   3.015 -0.4241  2.2034  0.0098
 8530TIP3    H247082   6.636   0.584   2.902 -0.6386 -1.3539  1.9286
 8531TIP3   OH247083   2.384   2.231  14.417 -0.0264 -0.2624  0.1150
 8531TIP3    H147084   2.402   2.258  14.327  1.7754  2.2013  1.1076
 8531TIP3    H247085   2.309   2.172  14.410 -0.5427  0.6074 -2.8925
 8532TIP3   OH247086   6.713   0.646  12.213 -0.2466 -0.6824  0.2780
 8532TIP3    H147087   6.704   0.670  12.305 -2.1006 -3.7305  1.0085
 8532TIP3    H247088   6.628   0.667  12.174  0.5850  0.7727 -0.8710
 8533TIP3   OH247089   3.524   1.759   1.863 -0.5977 -0.4616  0.4823
 8533TIP3    H147090   3.527   1.665   1.879  0.6083 -0.5241 -0.0344
 8533TIP3    H247091   3.562   1.770   1.775  0.7040  0.6348  1.1462
 8534TIP3   OH247092   4.952   4.212   3.708  0.1198  0.2813 -0.2407
 8534TIP3    H147093   5.004   4.184   3.633  0.9507  1.1604 -0.0139
 8534TIP3    H247094   4.885   4.268   3.671  0.0373  0.0734 -0.4085
 8535TIP3   OH247095   2.987   2.146  13.091 -0.7842  0.1937  0.1372
 8535TIP3    H147096   2.901   2.158  13.051 -0.6320 -1.9128 -0.9830
 8535TIP3    H247097   2.980   2.188  13.177 -1.9497  2.6233 -1.0372
 8536TIP3   OH247098   2.654   5.773   4.441 -0.5664 -0.1078 -0.2811
 8536TIP3    H147099   2.630   5.861   4.413 -1.2655 -0.6929 -1.6357
 8536TIP3    H247100   2.748   5.768   4.426 -0.3709  0.6510  0.5705
 8537TIP3   OH247101   1.404   1.255   0.324 -0.6882 -0.0101 -0.2812
 8537TIP3    H147102   1.478   1.264   0.384 -0.0367 -0.8955 -0.9100
 8537TIP3    H247103   1.352   1.183   0.360  0.8873 -2.0571 -1.8819
 8538TIP3   OH247104   5.907   2.110   0.407 -0.4711 -0.5356 -0.2470
 8538TIP3    H147105   5.943   2.143   0.324  1.7932 -2.5883 -0.2272
 8538TIP3    H247106   5.850   2.038   0.381  0.4212 -1.3317 -0.0670
 8539TIP3   OH247107   4.361   4.298   4.207  0.0600  0.0092 -0.1954
 8539TIP3    H147108   4.312   4.237   4.152 -1.3454  0.4483  0.5333
 8539TIP3    H247109   4.330   4.281   4.296  0.5577  0.9442  0.1705
 8540TIP3   OH247110   0.188   4.264   3.662 -0.2299 -0.3665  0.5019
 8540TIP3    H147111   0.164   4.178   3.697  0.0638 -0.5659  0.2245
 8540TIP3    H247112   0.149   4.326   3.723 -3.0129 -0.6213 -0.8598
 8541TIP3   OH247113   2.389   5.431  16.886 -0.0711 -0.3711 -0.5767
 8541TIP3    H147114   2.481   5.415  16.909 -0.3132 -0.8494  0.1097
 8541TIP3    H247115   2.371   5.372  16.813  0.0039 -0.7309 -0.3086
 8542TIP3   OH247116   5.482   1.370   2.313 -0.0376 -0.4656  0.3173
 8542TIP3    H147117   5.415   1.304   2.295  0.5909 -1.1801  0.5602
 8542TIP3    H247118   5.565   1.329   2.287  0.3800  0.1583  0.6233
 8543TIP3   OH247119   2.925   6.163  15.746 -0.2938  0.3459 -0.3913
 8543TIP3    H147120   2.949   6.110  15.822 -0.1053  2.0944  0.8334
 8543TIP3    H247121   2.830   6.156  15.741 -0.1355 -1.5992 -1.4349
 8544TIP3   OH247122   0.422   5.298   5.338 -0.0043 -0.5812 -0.0488
 8544TIP3    H147123   0.462   5.225   5.387 -1.3336 -0.0240  1.9757
 8544TIP3    H247124   0.328   5.280   5.341 -0.3057  0.9180  0.0033
 8545TIP3   OH247125   1.286   1.443   4.814  0.0728 -0.7381  0.2081
 8545TIP3    H147126   1.287   1.473   4.723  0.3935  0.4073  0.5681
 8545TIP3    H247127   1.372   1.403   4.826 -0.1005 -1.2087 -0.0848
 8546TIP3   OH247128   6.437   3.885   5.604 -0.0461  0.0658 -0.2580
 8546TIP3    H147129   6.446   3.895   5.509 -0.9019 -0.5548 -0.4146
 8546TIP3    H247130   6.489   3.957   5.640 -1.0979  1.3591 -1.2327
 8547TIP3   OH247131   3.236   6.181   4.317  0.0716 -0.1773 -0.4038
 8547TIP3    H147132   3.149   6.220   4.312  0.0819 -0.1575 -0.4315
 8547TIP3    H247133   3.236   6.129   4.397 -0.1553 -0.6330 -0.6935
 8548TIP3   OH247134   5.305   2.584   5.808 -1.5330  0.1646  0.6420
 8548TIP3    H147135   5.279   2.669   5.843 -1.9231  0.0163  0.7129
 8548TIP3    H247136   5.390   2.567   5.848 -1.4483  0.5211  0.6242
 8549TIP3   OH247137   3.275   4.235   1.564 -0.5889 -0.1319  0.3389
 8549TIP3    H147138   3.276   4.274   1.476 -0.0434 -1.1843 -0.1449
 8549TIP3    H247139   3.210   4.286   1.612 -1.6446 -0.1511 -0.9794
 8550TIP3   OH247140   3.312   0.417  16.988 -0.2453 -0.2252  0.3379
 8550TIP3    H147141   3.358   0.481  17.042  0.8461 -1.1486  0.5572
 8550TIP3    H247142   3.345   0.432  16.900  1.0899 -1.3366  0.6003
 8551TIP3   OH247143   2.643   3.306   4.189 -0.0109  0.1856  0.2317
 8551TIP3    H147144   2.603   3.282   4.105  0.5886  0.3416 -0.1113
 8551TIP3    H247145   2.644   3.224   4.239  1.7601 -0.5097 -0.8192
 8552TIP3   OH247146   2.138   1.597   4.996  0.0127 -0.7750 -0.4103
 8552TIP3    H147147   2.139   1.649   4.916  0.0567 -1.1787 -0.6737
 8552TIP3    H247148   2.085   1.520   4.975 -0.0095 -0.8649 -0.0406
 8553TIP3   OH247149   2.266   4.039  11.435  0.0215 -0.0301  0.2922
 8553TIP3    H147150   2.352   4.007  11.409 -0.4007 -1.5189  0.6640
 8553TIP3    H247151   2.212   4.028  11.357  0.0410  0.4809  0.2006
 8554TIP3   OH247152   4.835   4.770  13.440 -0.0216 -0.0405  0.0459
 8554TIP3    H147153   4.794   4.811  13.364  0.4816  0.7279  0.1747
 8554TIP3    H247154   4.802   4.680  13.439 -1.4357  0.4536 -0.0284
 8555TIP3   OH247155   4.554   1.725   0.824 -0.4666 -0.4214  0.4228
 8555TIP3    H147156   4.561   1.780   0.902 -1.3858  0.1411  0.1294
 8555TIP3    H247157   4.586   1.780   0.753  0.9634 -1.1520  0.4812
 8556TIP3   OH247158   6.276   3.464  16.923 -0.0557 -0.3853  0.3893
 8556TIP3    H147159   6.269   3.541  16.867  2.0270 -1.4722 -1.4839
 8556TIP3    H247160   6.333   3.492  16.995  0.5892 -0.1442 -0.2135
 8557TIP3   OH247161   5.205   0.787   1.256 -0.7783  0.0885  0.0994
 8557TIP3    H147162   5.278   0.848   1.265 -0.3458 -0.4371  0.2197
 8557TIP3    H247163   5.150   0.825   1.187  0.7353 -0.5991 -1.5824
 8558TIP3   OH247164   1.444   5.273  13.723 -0.1515  0.8067  0.1881
 8558TIP3    H147165   1.401   5.333  13.663  0.0860  0.9553  0.1658
 8558TIP3    H247166   1.427   5.310  13.810 -0.1524  0.8093  0.1866
 8559TIP3   OH247167   6.274   3.718  14.575 -0.3163 -0.5930 -0.6711
 8559TIP3    H147168   6.355   3.684  14.537 -0.2917 -0.0362 -1.1276
 8559TIP3    H247169   6.205   3.664  14.537 -0.1631 -1.1223 -0.2189
 8560TIP3   OH247170   1.410   4.186  12.308 -0.0162 -0.1884  0.3810
 8560TIP3    H147171   1.490   4.150  12.269  0.0220 -1.2421  1.3847
 8560TIP3    H247172   1.428   4.280  12.315  0.2140 -0.0454 -1.5050
 8561TIP3   OH247173   0.781   2.777  16.131 -0.1421  0.2651  0.1291
 8561TIP3    H147174   0.790   2.773  16.036  0.2014  1.5556  0.0999
 8561TIP3    H247175   0.837   2.849  16.158 -0.0892 -0.2068  1.3437
 8562TIP3   OH247176   5.385   1.706   4.416  0.4810 -0.5292  0.2198
 8562TIP3    H147177   5.391   1.736   4.325  0.5526  3.7373  1.4202
 8562TIP3    H247178   5.332   1.772   4.460 -1.7608 -3.7762  2.8882
 8563TIP3   OH247179   4.447   1.241   4.137 -0.1696 -0.0120 -0.0938
 8563TIP3    H147180   4.542   1.234   4.144 -0.0684  0.6297 -0.7245
 8563TIP3    H247181   4.425   1.318   4.190 -0.4601 -0.7035  0.8361
 8564TIP3   OH247182   5.591   4.516  14.423 -0.1266 -0.2794  0.2256
 8564TIP3    H147183   5.627   4.603  14.439 -0.5346  0.4372 -2.2614
 8564TIP3    H247184   5.575   4.480  14.510  0.9451  1.7401  1.3281
 8565TIP3   OH247185   2.775   5.722   6.351  0.4443  0.2474  0.4075
 8565TIP3    H147186   2.700   5.747   6.406  0.5450 -0.8408  1.0805
 8565TIP3    H247187   2.758   5.630   6.328  3.5584 -1.5633  4.1675
 8566TIP3   OH247188   5.155   6.161   2.490  0.2292 -0.2722 -0.5874
 8566TIP3    H147189   5.140   6.202   2.404  0.4810  1.9660  0.3787
 8566TIP3    H247190   5.069   6.129   2.516 -0.3356  1.0442 -0.7245
 8567TIP3   OH247191   5.449   6.572   3.002 -0.1090  0.0297 -0.5309
 8567TIP3    H147192   5.403   6.649   2.968  0.0088  0.3435  0.0098
 8567TIP3    H247193   5.422   6.501   2.944 -0.8875  0.3082 -0.5248
 8568TIP3   OH247194   4.308   2.692  11.494  0.2570  0.3680  0.8375
 8568TIP3    H147195   4.303   2.787  11.483  2.4129  0.4169 -0.2441
 8568TIP3    H247196   4.399   2.676  11.520  0.4691 -1.5311 -0.8415
 8569TIP3   OH247197   0.538   6.547  16.975  0.4204 -0.0474  0.1113
 8569TIP3    H147198   0.573   6.509  17.056  0.3282  0.7251  0.5210
 8569TIP3    H247199   0.464   6.600  17.003 -0.6949 -1.1258 -0.6779
 8570TIP3   OH247200   2.677   2.354  16.512  0.0869 -0.4031  0.1987
 8570TIP3    H147201   2.686   2.259  16.514 -1.7148 -0.6344 -0.4778
 8570TIP3    H247202   2.590   2.369  16.474  0.1724  1.5045  0.6460
 8571TIP3   OH247203   0.793   5.219  11.164  0.1539  0.3371 -0.2310
 8571TIP3    H147204   0.813   5.150  11.101  0.6470  0.2994 -0.0413
 8571TIP3    H247205   0.698   5.217  11.174  0.2979 -1.7722  1.4265
 8572TIP3   OH247206   6.382   1.991   2.305 -0.4964 -0.2600  0.0765
 8572TIP3    H147207   6.326   1.935   2.359 -0.7197  1.1973  1.4493
 8572TIP3    H247208   6.449   1.933   2.270 -1.2543 -1.5297  0.6739
 8573TIP3   OH247209   0.180   6.668  11.632 -0.4371  0.0104 -0.5646
 8573TIP3    H147210   0.208   6.758  11.650  1.9926 -0.8670  0.4214
 8573TIP3    H247211   0.255   6.614  11.656 -1.5542 -2.2576 -1.8280
 8574TIP3   OH247212   3.063   5.718   5.356 -0.2077  0.2074  0.1958
 8574TIP3    H147213   3.067   5.717   5.452 -0.6640 -1.0020  0.2310
 8574TIP3    H247214   3.154   5.721   5.328 -0.0580  0.2841  0.6801
 8575TIP3   OH247215   3.695   2.390   2.110  0.4173 -0.5371 -0.0574
 8575TIP3    H147216   3.616   2.350   2.072  2.4020 -3.4987 -1.4879
 8575TIP3    H247217   3.708   2.470   2.059 -0.8486 -0.7914 -0.8353
 8576TIP3   OH247218   0.833   3.210  13.425  0.1213 -0.3929  0.1000
 8576TIP3    H147219   0.774   3.148  13.383 -0.8681 -1.4817  2.8274
 8576TIP3    H247220   0.777   3.281  13.454  0.3340 -0.7400  1.4584
 8577TIP3   OH247221   0.351   3.634  15.792 -0.0681 -0.1321  0.1653
 8577TIP3    H147222   0.432   3.627  15.843 -0.6673  1.3368  1.4061
 8577TIP3    H247223   0.283   3.654  15.856 -1.3221 -0.6918 -0.9271
 8578TIP3   OH247224   1.657   2.787  11.450 -0.0220  0.6087  0.5496
 8578TIP3    H147225   1.727   2.728  11.421 -0.3264  0.1024  0.8442
 8578TIP3    H247226   1.677   2.804  11.542 -0.8561 -0.3673  0.9259
 8579TIP3   OH247227   0.835   0.465  15.874 -0.7316 -0.2917  0.3841
 8579TIP3    H147228   0.769   0.519  15.830 -1.9467 -1.1132  1.1383
 8579TIP3    H247229   0.807   0.375  15.858  0.3810 -0.6718  0.4847
 8580TIP3   OH247230   2.175   3.901   3.025 -0.0328 -0.6729 -0.4303
 8580TIP3    H147231   2.152   3.937   2.940 -3.1799 -1.6091 -0.0912
 8580TIP3    H247232   2.150   3.808   3.020 -0.1580 -0.7847  1.4549
 8581TIP3   OH247233   3.311   6.526   5.907 -0.3750  0.0921  0.5305
 8581TIP3    H147234   3.329   6.618   5.891  2.1042 -0.6649 -1.7270
 8581TIP3    H247235   3.257   6.499   5.833 -0.6739 -0.3803  0.9151
 8582TIP3   OH247236   4.509   2.088   5.398 -0.2961  0.0850 -0.2016
 8582TIP3    H147237   4.535   2.014   5.453 -1.2406 -0.2758 -0.2314
 8582TIP3    H247238   4.577   2.153   5.413 -0.5610  0.0215  1.4396
 8583TIP3   OH247239   5.767   5.542  14.294 -0.1348  0.2803 -0.1179
 8583TIP3    H147240   5.703   5.596  14.248 -0.7643  1.1155  1.6731
 8583TIP3    H247241   5.720   5.508  14.370  1.3493  0.3601  0.8749
 8584TIP3   OH247242   1.587   3.678  11.197  0.3785  0.0434  0.3271
 8584TIP3    H147243   1.564   3.722  11.115 -0.4960  0.5240  0.8136
 8584TIP3    H247244   1.506   3.680  11.249  0.5940 -1.2516  0.7652
 8585TIP3   OH247245   4.267   6.269   4.723 -0.1480  0.2377 -0.3998
 8585TIP3    H147246   4.346   6.309   4.686 -0.1516  0.8549  0.2288
 8585TIP3    H247247   4.198   6.291   4.660  0.0985  0.0910 -0.7217
 8586TIP3   OH247248   0.487   6.270  16.898 -0.8871 -0.1130 -0.4490
 8586TIP3    H147249   0.464   6.359  16.926 -1.1568  0.0168 -1.0615
 8586TIP3    H247250   0.574   6.255  16.935 -1.0446  0.2191  0.0678
 8587TIP3   OH247251   4.315   0.124  12.129 -0.4478  0.0959 -0.4310
 8587TIP3    H147252   4.312   0.045  12.074  2.4361 -1.5416  1.5002
 8587TIP3    H247253   4.398   0.166  12.106 -0.8206  1.2560  0.2746
 8588TIP3   OH247254   0.163   4.646  15.629 -0.4872  0.2499  0.6628
 8588TIP3    H147255   0.219   4.608  15.696  0.2675  0.7487  0.3228
 8588TIP3    H247256   0.224   4.682  15.564 -1.1853 -0.5164 -0.4639
 8589TIP3   OH247257   5.699   6.422  13.330  0.2475  0.2006 -0.1043
 8589TIP3    H147258   5.726   6.365  13.258  1.1613  2.6306 -1.8436
 8589TIP3    H247259   5.603   6.422  13.326  0.2858  0.7886 -1.8242
 8590TIP3   OH247260   0.062   5.701   4.451  0.0504  0.1745 -0.3093
 8590TIP3    H147261   0.009   5.622   4.460 -0.1548  0.2079 -1.1112
 8590TIP3    H247262   0.002   5.773   4.471 -0.3680  0.2406 -1.6442
 8591TIP3   OH247263   5.181   3.480   5.633  0.0588 -0.4132 -0.6416
 8591TIP3    H147264   5.170   3.385   5.627  0.4616 -0.4423 -0.9712
 8591TIP3    H247265   5.268   3.493   5.671  0.4333 -0.1813 -1.5430
 8592TIP3   OH247266   4.956   3.463   3.718 -0.3137  0.1172 -0.3289
 8592TIP3    H147267   5.022   3.531   3.730 -0.0719 -0.3378  1.1957
 8592TIP3    H247268   5.006   3.384   3.697 -0.3567 -0.2002  0.7031
 8593TIP3   OH247269   5.798   0.745  15.322  0.2004  0.8308  0.3190
 8593TIP3    H147270   5.858   0.746  15.397 -2.2061  0.3532  2.3812
 8593TIP3    H247271   5.719   0.702  15.355 -0.0851 -1.9501 -3.2839
 8594TIP3   OH247272   5.254   6.158  15.198  0.3228  0.0697 -0.5313
 8594TIP3    H147273   5.216   6.188  15.116  0.3177  0.6859 -0.3078
 8594TIP3    H247274   5.347   6.147  15.179  0.3235  0.2210 -0.6178
 8595TIP3   OH247275   3.966   1.184  11.082  0.2870 -1.0986  0.0962
 8595TIP3    H147276   4.028   1.188  11.155  0.1435 -2.6680  0.3259
 8595TIP3    H247277   3.888   1.143  11.118 -0.9913  0.9568 -0.1602
 8596TIP3   OH247278   6.126   4.618  13.168 -0.3206 -0.0539  0.2600
 8596TIP3    H147279   6.170   4.566  13.100 -0.6395  0.0143 -0.0010
 8596TIP3    H247280   6.195   4.676  13.201 -0.4560  0.7860 -0.8776
 8597TIP3   OH247281   3.989   1.209  16.983  0.1031 -0.0737 -0.3615
 8597TIP3    H147282   3.972   1.130  17.034 -0.3376  1.9482  2.9277
 8597TIP3    H247283   4.079   1.200  16.954  0.2670 -1.5158  0.5051
 8598TIP3   OH247284   0.991   2.949  16.868 -0.2046 -0.1725  0.0183
 8598TIP3    H147285   0.943   2.876  16.828 -0.5247  0.2489 -0.3834
 8598TIP3    H247286   1.040   2.910  16.939 -0.6692 -0.7208  0.0413
 8599TIP3   OH247287   4.099   6.453  12.391 -0.0912  0.0960  0.2385
 8599TIP3    H147288   4.129   6.362  12.384  0.1977  0.3138 -2.8212
 8599TIP3    H247289   4.015   6.454  12.347 -0.5457  1.1664  1.0840
 8600TIP3   OH247290   5.363   5.842   3.227  0.4976 -0.4868 -0.4244
 8600TIP3    H147291   5.395   5.820   3.315  1.9045  0.5137 -0.6500
 8600TIP3    H247292   5.347   5.757   3.186 -2.9554 -1.0456  1.6862
 8601TIP3   OH247293   1.124   1.444   1.395 -0.0545  0.2201  0.1760
 8601TIP3    H147294   1.117   1.519   1.454 -0.5372  1.3027 -1.2245
 8601TIP3    H247295   1.048   1.450   1.338 -0.0556 -1.2980 -0.0382
 8602TIP3   OH247296   2.354   0.276  15.505 -0.0532 -0.7031 -0.0344
 8602TIP3    H147297   2.304   0.308  15.430  0.0937 -0.5098 -0.0504
 8602TIP3    H247298   2.362   0.351  15.563 -2.8817 -1.5937  1.6912
 8603TIP3   OH247299   1.362   2.896   2.774  0.0017  0.0669 -0.1722
 8603TIP3    H147300   1.421   2.825   2.748 -0.0816  0.8945 -2.9839
 8603TIP3    H247301   1.302   2.905   2.700 -2.2384  0.7816  1.6263
 8604TIP3   OH247302   4.995   0.947   5.279 -0.1456 -0.1064 -0.2923
 8604TIP3    H147303   4.951   0.866   5.256  1.0738 -0.8396 -0.1505
 8604TIP3    H247304   4.947   0.979   5.356 -0.5037 -0.8149 -0.2074
 8605TIP3   OH247305   0.969   5.972  13.870 -0.0773 -0.0158  0.2187
 8605TIP3    H147306   1.056   5.994  13.836  0.2173  0.1673  1.0623
 8605TIP3    H247307   0.986   5.918  13.946 -0.7750 -2.1873 -1.0818
 8606TIP3   OH247308   3.653   2.511   2.548 -0.2730  0.4224  0.2669
 8606TIP3    H147309   3.691   2.571   2.612 -1.7905  1.6423  0.1001
 8606TIP3    H247310   3.605   2.568   2.488  1.0641 -0.6766 -1.9682
 8607TIP3   OH247311   3.074   4.891  16.824  0.3574 -0.1384  0.0490
 8607TIP3    H147312   3.120   4.889  16.740  1.6913 -3.2487  0.7211
 8607TIP3    H247313   3.137   4.857  16.887 -1.2361  0.2993  1.9934
 8608TIP3   OH247314   0.782   5.656   2.660  0.1713 -0.1963 -0.0053
 8608TIP3    H147315   0.840   5.714   2.610  0.2910  0.1172  0.4901
 8608TIP3    H247316   0.798   5.679   2.751 -0.7651 -0.0904  0.1340
 8609TIP3   OH247317   4.977   3.899  16.721  0.1814 -0.1657 -0.2053
 8609TIP3    H147318   5.008   3.982  16.685 -0.8572  0.6942  0.8153
 8609TIP3    H247319   5.040   3.834  16.688  0.8171  0.9573 -1.3020
 8610TIP3   OH247320   1.891   3.427  14.359  0.6681  0.1713 -0.1128
 8610TIP3    H147321   1.881   3.345  14.311  1.0005 -2.4694  3.8958
 8610TIP3    H247322   1.986   3.438  14.369  0.6505  1.3494 -0.8854
 8611TIP3   OH247323   5.257   6.515  10.621  0.0314 -0.3805  0.0911
 8611TIP3    H147324   5.170   6.481  10.600 -0.8550  1.6680  0.1143
 8611TIP3    H247325   5.291   6.549  10.538  0.2393  0.0128  0.3353
 8612TIP3   OH247326   0.137   2.335   3.752 -0.3433 -0.5938 -0.0724
 8612TIP3    H147327   0.213   2.344   3.695 -0.5199 -1.5365 -0.4724
 8612TIP3    H247328   0.081   2.271   3.708 -1.6253  0.4642 -0.0515
 8613TIP3   OH247329   1.197   5.223  14.223 -0.5815 -0.2116  0.0900
 8613TIP3    H147330   1.196   5.181  14.137  3.1918  1.6591 -1.1101
 8613TIP3    H247331   1.216   5.152  14.284  1.7083 -1.0098 -1.3716
 8614TIP3   OH247332   2.505   5.471   0.439 -0.0076  0.7448 -0.4462
 8614TIP3    H147333   2.505   5.405   0.370  2.3807 -0.9554  1.0207
 8614TIP3    H247334   2.492   5.421   0.520 -1.7093  2.5509  0.4822
 8615TIP3   OH247335   4.295   4.976  13.316 -0.0314 -0.5025  0.1760
 8615TIP3    H147336   4.221   4.983  13.376 -0.4820 -2.9685  0.0110
 8615TIP3    H247337   4.255   4.955  13.231  0.7656  0.1176 -0.3692
 8616TIP3   OH247338   1.873   3.315   1.220  0.0454  0.6220  0.3391
 8616TIP3    H147339   1.933   3.298   1.148 -0.9385  0.6018 -0.4974
 8616TIP3    H247340   1.798   3.359   1.180 -2.3937 -2.9072  0.5205
 8617TIP3   OH247341   6.121   2.064   6.143  0.3006 -0.1267  0.2971
 8617TIP3    H147342   6.116   1.986   6.088  0.6384 -1.3886  1.9787
 8617TIP3    H247343   6.034   2.104   6.137  0.5517  0.2007 -1.6999
 8618TIP3   OH247344   5.592   3.478   5.786 -0.0333 -0.2836 -0.3131
 8618TIP3    H147345   5.649   3.553   5.770  0.4335 -0.1897  1.5393
 8618TIP3    H247346   5.653   3.407   5.807 -0.5187 -0.9441 -1.0740
 8619TIP3   OH247347   3.418   1.220   2.704  0.0664  0.0366 -0.0346
 8619TIP3    H147348   3.417   1.148   2.640  2.0109  0.3475 -0.4785
 8619TIP3    H247349   3.326   1.230   2.729 -0.9348  0.3807 -3.3304
 8620TIP3   OH247350   2.538   2.921  15.969  0.4241  0.0860 -0.2946
 8620TIP3    H147351   2.628   2.889  15.955  0.1510 -0.4968 -0.7708
 8620TIP3    H247352   2.485   2.868  15.910  0.0704  2.1416 -1.9250
 8621TIP3   OH247353   2.381   0.325  14.557  0.2658 -0.0103 -0.1707
 8621TIP3    H147354   2.304   0.275  14.585  0.6332 -0.6763 -0.3200
 8621TIP3    H247355   2.351   0.415  14.552  0.4633  0.4101  3.6436
 8622TIP3   OH247356   5.510   2.261   3.126 -0.0206 -0.0035 -0.3411
 8622TIP3    H147357   5.573   2.258   3.197  0.2320 -1.6157 -0.6120
 8622TIP3    H247358   5.561   2.246   3.047 -0.6569 -0.8019 -0.6144
 8623TIP3   OH247359   3.616   4.669  11.576  0.2162 -0.5127  0.2078
 8623TIP3    H147360   3.604   4.714  11.493  0.3705 -1.6915 -0.4806
 8623TIP3    H247361   3.542   4.696  11.630 -1.9899 -2.4983 -1.5933
 8624TIP3   OH247362   0.551   6.086   5.049  0.7314  0.0368  0.2636
 8624TIP3    H147363   0.570   6.170   5.006  0.7968  0.2131  0.6365
 8624TIP3    H247364   0.564   6.103   5.142  0.7943 -0.4026  0.3373
 8625TIP3   OH247365   6.428   0.419   1.899  0.2145  0.4218  0.0298
 8625TIP3    H147366   6.500   0.396   1.957 -0.4017  0.1510  0.6990
 8625TIP3    H247367   6.448   0.508   1.870  1.5576 -0.1576 -0.9565
 8626TIP3   OH247368   6.386   2.354   3.237 -0.0500  0.3330 -0.5461
 8626TIP3    H147369   6.475   2.379   3.265 -0.4083 -0.1872  1.2185
 8626TIP3    H247370   6.328   2.402   3.296 -1.0465  1.6825 -2.5149
 8627TIP3   OH247371   5.467   4.118   5.596  0.3293  0.5570 -0.4522
 8627TIP3    H147372   5.486   4.076   5.680  2.1127 -0.0324 -1.1087
 8627TIP3    H247373   5.442   4.208   5.620  0.8177  0.3978  0.7093
 8628TIP3   OH247374   1.159   3.962  13.185 -0.4909  0.3720 -0.5567
 8628TIP3    H147375   1.227   3.996  13.244 -1.9998  0.9780  0.9010
 8628TIP3    H247376   1.207   3.938  13.106  1.3050  1.6187  0.0734
 8629TIP3   OH247377   2.656   0.820   2.746  0.5472 -0.4028 -0.0481
 8629TIP3    H147378   2.653   0.885   2.675  0.0126 -2.3512 -1.9094
 8629TIP3    H247379   2.607   0.861   2.817 -0.5696  0.8907 -1.4736
 8630TIP3   OH247380   5.264   4.911  11.517  0.0302 -0.3791 -0.2163
 8630TIP3    H147381   5.234   5.000  11.502 -0.5093 -0.3937  0.6912
 8630TIP3    H247382   5.345   4.920  11.568  0.2845 -0.3934 -0.6189
 8631TIP3   OH247383   6.839   6.274   1.766 -0.3816  1.1114  0.5062
 8631TIP3    H147384   6.817   6.313   1.851 -2.0571 -1.4489  1.3594
 8631TIP3    H247385   6.869   6.186   1.787  0.6028  0.9176 -1.4855
 8632TIP3   OH247386   2.506   3.958  12.302  0.1987  0.0171  0.2693
 8632TIP3    H147387   2.593   3.983  12.270  0.2803 -0.0812  0.4144
 8632TIP3    H247388   2.468   3.909  12.230  0.9756 -1.5441  0.8786
 8633TIP3   OH247389   1.083   1.898   1.816 -0.1212 -0.0212  0.1089
 8633TIP3    H147390   1.172   1.899   1.850  0.5811 -2.5001 -1.3821
 8633TIP3    H247391   1.093   1.907   1.721 -1.4367 -0.3425 -0.0884
 8634TIP3   OH247392   5.267   4.605  14.005  0.0555  0.2730  0.1467
 8634TIP3    H147393   5.310   4.674  13.955  0.2557 -1.0402 -1.5840
 8634TIP3    H247394   5.317   4.599  14.086  1.1997  0.9051 -0.4893
 8635TIP3   OH247395   2.586   5.930   0.891  0.0140 -0.1448 -0.4050
 8635TIP3    H147396   2.529   6.000   0.860 -1.6070 -0.4778  1.5333
 8635TIP3    H247397   2.648   5.914   0.820 -0.9543  1.7480 -1.7350
 8636TIP3   OH247398   3.930   6.107   6.465 -0.1439 -0.2786  0.3013
 8636TIP3    H147399   3.931   6.129   6.372  0.9768  0.4104  0.4483
 8636TIP3    H247400   3.858   6.159   6.501  0.4942  0.7802  0.0947
 8637TIP3   OH247401   0.191   4.199  10.226 -0.1807  0.0338 -0.1324
 8637TIP3    H147402   0.127   4.128  10.226 -0.0586 -0.0776  0.2689
 8637TIP3    H247403   0.174   4.246  10.307 -1.3919  1.4975 -1.1770
 8638TIP3   OH247404   1.159   3.263  10.492  0.4907 -0.8326 -0.1761
 8638TIP3    H147405   1.212   3.217  10.556  1.8718 -0.9663 -1.3619
 8638TIP3    H247406   1.097   3.315  10.544 -0.2600 -2.9795  1.2246
 8639TIP3   OH247407   6.424   6.545   5.371 -0.4373 -0.6273  0.0329
 8639TIP3    H147408   6.425   6.571   5.464  0.8064 -1.5948  0.3226
 8639TIP3    H247409   6.478   6.611   5.328 -1.0352 -0.1626 -0.0155
 8640TIP3   OH247410   0.768   0.760   6.071  0.6823 -0.2958  0.0251
 8640TIP3    H147411   0.755   0.670   6.042 -0.5690 -0.5365  1.2059
 8640TIP3    H247412   0.862   0.767   6.087  0.6164 -1.8965  1.3762
 8641TIP3   OH247413   2.702   5.097  12.652 -0.2699 -0.8116  0.1717
 8641TIP3    H147414   2.695   5.113  12.746 -1.5979 -0.3224  0.0158
 8641TIP3    H247415   2.779   5.042  12.643  1.2725  1.0335  1.3076
 8642TIP3   OH247416   5.714   4.174   6.259 -0.0513  0.4902  0.3198
 8642TIP3    H147417   5.736   4.140   6.172  1.1447 -0.6224  1.0023
 8642TIP3    H247418   5.796   4.213   6.290 -0.4234  0.7396  0.9964
 8643TIP3   OH247419   6.135   4.987   1.482  0.2810  0.2800  0.4404
 8643TIP3    H147420   6.154   5.049   1.553 -0.6410  2.3408 -1.0368
 8643TIP3    H247421   6.174   5.027   1.404 -0.9287 -0.6504 -0.6778
 8644TIP3   OH247422   2.144   2.080  14.431 -0.3935  0.5245 -0.2878
 8644TIP3    H147423   2.149   1.987  14.407 -0.6932  0.6561 -0.8985
 8644TIP3    H247424   2.075   2.084  14.497 -0.4398  0.3207 -0.3237
 8645TIP3   OH247425   2.180   2.946  16.582 -0.1373  0.4642  0.0241
 8645TIP3    H147426   2.117   3.008  16.547 -1.7700 -1.1063  0.0070
 8645TIP3    H247427   2.253   2.949  16.521 -1.1318  0.7978 -1.1910
 8646TIP3   OH247428   5.367   5.977   3.575  0.4735 -0.3407  0.1050
 8646TIP3    H147429   5.345   6.070   3.574 -2.1928 -0.8987  1.1314
 8646TIP3    H247430   5.290   5.933   3.539  1.4465 -2.2064  0.1759
 8647TIP3   OH247431   5.756   2.493  14.867  0.2712  0.2019 -0.0390
 8647TIP3    H147432   5.672   2.447  14.863 -0.4108  1.3642  0.4836
 8647TIP3    H247433   5.804   2.460  14.791 -0.6939 -0.4032 -0.4196
 8648TIP3   OH247434   6.161   1.653   3.158  0.2881 -0.4439  0.1116
 8648TIP3    H147435   6.180   1.581   3.098  2.9620  0.3417 -0.1311
 8648TIP3    H247436   6.202   1.628   3.241  1.2265  0.7234  0.0334
 8649TIP3   OH247437   1.557   4.606   0.125 -0.1219 -0.4142  0.3347
 8649TIP3    H147438   1.645   4.577   0.150 -0.0728  0.2615  0.9740
 8649TIP3    H247439   1.523   4.535   0.070  2.0068  0.6611 -2.6037
 8650TIP3   OH247440   3.438   1.856  15.466  0.0622 -0.1228  0.5298
 8650TIP3    H147441   3.361   1.833  15.413  2.6431 -0.7254 -3.4142
 8650TIP3    H247442   3.412   1.933  15.515 -1.9364  2.3646 -3.8744
 8651TIP3   OH247443   6.288   5.987  11.162  0.1323 -0.1377  0.5456
 8651TIP3    H147444   6.338   6.068  11.158  1.2846 -0.8677 -0.9863
 8651TIP3    H247445   6.353   5.917  11.157 -0.8834 -1.1525  0.9053
 8652TIP3   OH247446   6.634   0.416   6.289 -0.4541  0.1843 -0.0480
 8652TIP3    H147447   6.681   0.499   6.278  0.0033 -0.0148  0.3435
 8652TIP3    H247448   6.681   0.355   6.233 -1.8607  0.5750 -1.7297
 8653TIP3   OH247449   6.687   1.720  11.732  0.6921  0.7610 -0.0411
 8653TIP3    H147450   6.645   1.639  11.701  0.1922  1.5289 -1.4590
 8653TIP3    H247451   6.732   1.694  11.812 -1.1314 -0.4754  0.6500
 8654TIP3   OH247452   4.301   2.130   1.844  0.2699 -0.0065  0.0100
 8654TIP3    H147453   4.320   2.038   1.859  1.8129  0.3107  0.1814
 8654TIP3    H247454   4.208   2.132   1.822 -0.1598 -1.4135  1.4877
 8655TIP3   OH247455   5.392   3.123  12.346 -0.5143 -0.0092  0.4532
 8655TIP3    H147456   5.407   3.029  12.333  1.2026  0.4617 -1.7093
 8655TIP3    H247457   5.442   3.144  12.425  0.2577 -0.7024  0.1763
 8656TIP3   OH247458   2.056   4.113  12.089  0.4528  0.5710  0.5075
 8656TIP3    H147459   2.099   4.156  12.163  3.4394 -0.2738 -0.6248
 8656TIP3    H247460   2.028   4.028  12.124  0.7482  0.6574  0.9601
 8657TIP3   OH247461   5.342   3.696  13.458 -0.1311 -0.3854  0.6139
 8657TIP3    H147462   5.415   3.691  13.396 -0.9035 -1.3273 -0.2616
 8657TIP3    H247463   5.369   3.762  13.521  1.3100 -0.4299  0.0914
 8658TIP3   OH247464   0.317   5.520   3.395  0.4121 -0.1137 -0.4429
 8658TIP3    H147465   0.331   5.431   3.426  0.2158  0.0695  0.1919
 8658TIP3    H247466   0.224   5.537   3.414  0.0696 -0.2551 -1.8208
 8659TIP3   OH247467   2.042   4.892   0.913 -0.1587  0.0607  0.0741
 8659TIP3    H147468   1.969   4.851   0.958 -1.6458  3.1195  0.6811
 8659TIP3    H247469   2.021   4.884   0.820  0.6279 -2.2090  0.0294
 8660TIP3   OH247470   4.605   0.112   1.254 -0.5422  0.1756  0.2605
 8660TIP3    H147471   4.688   0.102   1.302 -1.0198  2.3142  1.6744
 8660TIP3    H247472   4.578   0.023   1.234  2.0193 -0.6085 -0.1279
 8661TIP3   OH247473   1.658   5.552   5.699  1.2260  0.3102  0.1029
 8661TIP3    H147474   1.575   5.573   5.656  0.4286  1.5756  2.1395
 8661TIP3    H247475   1.643   5.469   5.743  0.8104  0.8340  0.9728
 8662TIP3   OH247476   1.882   0.349  11.298  1.0489 -0.4279  0.1016
 8662TIP3    H147477   1.932   0.277  11.336  1.9736  1.1240  1.9929
 8662TIP3    H247478   1.810   0.363  11.360  0.0373 -0.6290 -0.9947
 8663TIP3   OH247479   4.696   1.946   5.158 -0.0861 -0.0738 -0.0799
 8663TIP3    H147480   4.766   1.881   5.168  0.3806  0.7450  4.0422
 8663TIP3    H247481   4.741   2.026   5.130  0.8091  0.4442  2.5293
 8664TIP3   OH247482   3.064   0.499  11.232 -0.9213  0.2327  1.3448
 8664TIP3    H147483   3.152   0.514  11.199 -1.2027 -1.2760 -0.2249
 8664TIP3    H247484   3.077   0.464  11.321 -0.0351  1.4878  1.7342
 8665TIP3   OH247485   4.170   3.114   0.869  0.1333 -0.4360  0.1649
 8665TIP3    H147486   4.203   3.087   0.955 -0.7257  0.0195  0.6611
 8665TIP3    H247487   4.233   3.080   0.807  0.2399 -1.6666  0.9089
 8666TIP3   OH247488   4.768   1.047   0.757  0.4612  0.3007 -0.3072
 8666TIP3    H147489   4.691   1.010   0.799  0.9723 -0.7508 -0.2553
 8666TIP3    H247490   4.785   1.128   0.804  0.8683 -0.7087  1.3922
 8667TIP3   OH247491   6.429   3.508  12.238  0.5857 -0.3020 -0.2807
 8667TIP3    H147492   6.501   3.508  12.302  1.4367 -0.3952 -1.2032
 8667TIP3    H247493   6.357   3.465  12.283  0.0285  2.4872  1.8299
 8668TIP3   OH247494   5.522   4.837   4.873 -0.0562 -0.1665 -0.2507
 8668TIP3    H147495   5.572   4.906   4.829 -0.4490  0.5800  0.4509
 8668TIP3    H247496   5.493   4.780   4.802  1.8306 -0.6719 -0.6785
 8669TIP3   OH247497   5.177   1.807  16.132 -0.0199 -0.3828  0.0486
 8669TIP3    H147498   5.255   1.753  16.123 -0.5379 -1.4297  1.3966
 8669TIP3    H247499   5.210   1.891  16.164  0.5367 -1.0266  1.2584
 8670TIP3   OH247500   0.030   0.198  11.956  0.6696 -0.0835  0.2595
 8670TIP3    H147501   0.097   0.159  11.900  1.2358  0.8428  0.2673
 8670TIP3    H247502  -0.053   0.181  11.910  1.2176  1.7126 -1.5142
 8671TIP3   OH247503   0.645   3.903  14.236 -0.1327 -0.0362  0.5640
 8671TIP3    H147504   0.714   3.963  14.207  2.6412 -1.3968  3.6835
 8671TIP3    H247505   0.644   3.834  14.170  1.8097 -0.1456  0.5906
 8672TIP3   OH247506   3.736   1.283   2.139 -0.1377 -0.1096 -0.3412
 8672TIP3    H147507   3.755   1.190   2.153 -1.1586 -0.5697 -1.7779
 8672TIP3    H247508   3.819   1.320   2.110  0.3228 -0.5183  0.4087
 8673TIP3   OH247509   2.192   3.585  15.627 -0.4061  0.0775 -0.5594
 8673TIP3    H147510   2.192   3.573  15.532  0.1264 -1.1917 -0.4118
 8673TIP3    H247511   2.151   3.506  15.662 -0.6509  0.5584  0.2766
 8674TIP3   OH247512   2.890   5.127  16.893 -1.0109  0.0856 -0.0593
 8674TIP3    H147513   2.960   5.064  16.876 -1.7454 -0.9250  0.5508
 8674TIP3    H247514   2.936   5.207  16.920 -0.0817 -0.4410 -0.0376
 8675TIP3   OH247515   5.973   1.242  16.359 -0.3943 -0.4838 -0.0900
 8675TIP3    H147516   5.938   1.155  16.340 -0.0516 -0.4785 -0.7968
 8675TIP3    H247517   6.039   1.256  16.291  0.0160  0.0603  0.4123
 8676TIP3   OH247518   6.371   4.088   4.608 -0.2779 -0.0155  0.3726
 8676TIP3    H147519   6.385   3.995   4.625 -1.1110 -0.3505 -0.6328
 8676TIP3    H247520   6.390   4.131   4.691  0.2415 -1.0668  0.8186
 8677TIP3   OH247521   4.731   2.352  14.768 -0.0174  0.4882 -0.2991
 8677TIP3    H147522   4.733   2.411  14.843  0.0829 -0.7177  0.6960
 8677TIP3    H247523   4.798   2.286  14.788  1.2433  1.0912 -2.2970
 8678TIP3   OH247524   6.839   1.111  11.670 -0.7028  0.1531  0.4130
 8678TIP3    H147525   6.925   1.090  11.633 -0.6327  0.6259  0.3009
 8678TIP3    H247526   6.846   1.202  11.697 -1.4946  0.5369 -0.5824
 8679TIP3   OH247527   6.425   4.390  14.759  0.0511 -0.3648 -0.0301
 8679TIP3    H147528   6.396   4.360  14.672  1.1087 -0.0952 -0.4857
 8679TIP3    H247529   6.390   4.325  14.819 -2.1367  0.3257 -0.4617
 8680TIP3   OH247530   4.354   1.345   3.348  0.5238 -0.1627 -0.2667
 8680TIP3    H147531   4.402   1.427   3.363  1.5027 -0.9786  1.3247
 8680TIP3    H247532   4.298   1.336   3.424 -2.2379  0.7228 -2.0506
 8681TIP3   OH247533   6.381   5.707  12.763 -0.9477 -0.3516 -0.0760
 8681TIP3    H147534   6.441   5.774  12.794 -2.7114  0.2097  2.5287
 8681TIP3    H247535   6.313   5.755  12.717  0.2080 -0.9260 -2.5158
 8682TIP3   OH247536   0.674   3.155  12.089  0.7495  0.2487  0.1515
 8682TIP3    H147537   0.636   3.067  12.096  0.1062  0.5810  1.0713
 8682TIP3    H247538   0.738   3.148  12.018  0.3880 -0.8440 -0.0888
 8683TIP3   OH247539   6.164   1.346  15.748 -0.1278  0.3535  0.1734
 8683TIP3    H147540   6.162   1.441  15.738  0.7611  0.2392 -1.4846
 8683TIP3    H247541   6.129   1.313  15.665 -2.5618 -0.7879  1.5676
 8684TIP3   OH247542   5.785   5.139   4.253  0.1334 -0.0661  0.2718
 8684TIP3    H147543   5.822   5.053   4.233  0.8640  0.2661  0.1396
 8684TIP3    H247544   5.754   5.132   4.343 -0.1824 -0.5861  0.1287
 8685TIP3   OH247545   3.522   3.252  14.502  0.0596  0.1605 -1.1913
 8685TIP3    H147546   3.596   3.296  14.543 -1.3642  0.4044  1.4069
 8685TIP3    H247547   3.543   3.159  14.509  0.4738  0.2511 -1.2127
 8686TIP3   OH247548   4.525   3.741   2.514  0.1172 -0.2458  0.0368
 8686TIP3    H147549   4.541   3.803   2.586  2.2217 -0.8110  0.1302
 8686TIP3    H247550   4.476   3.791   2.449  2.1594  1.7343 -0.1091
 8687TIP3   OH247551   4.498   4.723  12.478 -0.0703 -0.2066  0.1740
 8687TIP3    H147552   4.495   4.762  12.566 -0.0950  3.2957 -1.1983
 8687TIP3    H247553   4.491   4.629  12.493  1.1055  0.1262  3.9776
 8688TIP3   OH247554   5.656   4.377  14.178  0.5419  0.3173  0.1775
 8688TIP3    H147555   5.624   4.428  14.253 -1.9968  0.2556 -0.7924
 8688TIP3    H247556   5.638   4.431  14.102  0.4589 -0.8199 -0.6376
 8689TIP3   OH247557   0.592   6.588  15.558 -0.5976  0.0521  0.2269
 8689TIP3    H147558   0.660   6.563  15.620 -0.4905  1.8056  0.8922
 8689TIP3    H247559   0.635   6.590  15.473 -0.0742  0.1100  0.4894
 8690TIP3   OH247560   3.936   5.974   3.283 -0.0936 -0.3255  0.1540
 8690TIP3    H147561   3.889   5.892   3.264  1.4528 -1.0336 -0.8039
 8690TIP3    H247562   3.977   5.959   3.368 -0.7046 -0.1013  0.4985
 8691TIP3   OH247563   5.181   1.769  11.191 -0.1895 -0.1665 -0.7114
 8691TIP3    H147564   5.146   1.823  11.262  0.2474 -0.7720 -0.0200
 8691TIP3    H247565   5.106   1.717  11.162 -0.9502  1.6376 -2.2430
 8692TIP3   OH247566   0.978   2.247  16.858 -0.2162  0.1122 -0.1888
 8692TIP3    H147567   0.895   2.280  16.893 -0.4352  2.8697 -2.8656
 8692TIP3    H247568   1.035   2.324  16.856  1.5885 -1.1661 -0.7429
 8693TIP3   OH247569   6.317   4.708  11.279  0.0843 -0.3159 -0.4812
 8693TIP3    H147570   6.303   4.616  11.302  1.7409 -0.6175 -0.5949
 8693TIP3    H247571   6.399   4.732  11.321  0.2060  0.8151 -1.3092
 8694TIP3   OH247572   5.324   3.075   6.099 -0.5130 -0.2626 -0.4120
 8694TIP3    H147573   5.347   2.987   6.069  0.9700 -0.1593  0.3179
 8694TIP3    H247574   5.237   3.065   6.138 -0.0705 -1.5750  0.3104
 8695TIP3   OH247575   5.573   3.298   6.740  0.3084  0.2567 -0.1104
 8695TIP3    H147576   5.554   3.382   6.698 -1.0001  0.2896  0.4957
 8695TIP3    H247577   5.504   3.289   6.806  1.1159 -0.7601  0.6087
 8696TIP3   OH247578   5.249   3.099   4.965  0.5800  0.7402 -0.0929
 8696TIP3    H147579   5.276   3.096   4.874  1.7195  1.5339  0.1897
 8696TIP3    H247580   5.156   3.077   4.964  1.4273 -3.5484 -1.0033
 8697TIP3   OH247581   5.037   4.134  14.543 -0.3285  0.5624 -0.6212
 8697TIP3    H147582   5.110   4.094  14.497 -0.2795  1.1607 -1.0746
 8697TIP3    H247583   4.967   4.138  14.479  0.3459  3.1740 -1.3087
 8698TIP3   OH247584   2.804   2.592   2.194  0.2109  0.2446  0.0509
 8698TIP3    H147585   2.866   2.533   2.235  0.3607  1.0266  0.9895
 8698TIP3    H247586   2.722   2.577   2.239 -0.2913 -0.7216 -1.1273
 8699TIP3   OH247587   0.660   3.526   2.903  0.0427  0.5869  0.5258
 8699TIP3    H147588   0.573   3.487   2.918 -0.3293  1.1167 -0.1777
 8699TIP3    H247589   0.708   3.458   2.855  0.3596 -0.0892  1.7646
 8700TIP3   OH247590   5.460   4.732  11.991 -0.0806  0.3745 -0.3163
 8700TIP3    H147591   5.438   4.821  12.018  2.3215  0.9229  0.0185
 8700TIP3    H247592   5.402   4.715  11.916 -2.2856  1.2502  1.0990
 8701TIP3   OH247593   0.330   5.535  13.900  0.9568 -0.5047 -0.2767
 8701TIP3    H147594   0.312   5.441  13.894 -0.3174 -0.4200  1.3231
 8701TIP3    H247595   0.408   5.541  13.956  0.3702 -0.5932  0.5665
 8702TIP3   OH247596   2.548   5.282   2.975  0.2261 -0.6647 -0.0224
 8702TIP3    H147597   2.578   5.353   3.032  0.2160 -0.2954 -0.4735
 8702TIP3    H247598   2.626   5.255   2.927  0.3993 -1.4872  0.7015
 8703TIP3   OH247599   2.748   5.019   1.464 -0.0874  0.2218 -0.3097
 8703TIP3    H147600   2.671   5.037   1.519 -0.6351 -0.1661 -0.9280
 8703TIP3    H247601   2.807   4.970   1.521  0.4648  2.0205  0.7027
 8704TIP3   OH247602   5.640   1.980  14.730  0.7166  0.0571  0.0302
 8704TIP3    H147603   5.635   1.905  14.671 -0.1520 -0.2290  0.4609
 8704TIP3    H247604   5.572   1.964  14.795 -0.1724  1.7247 -0.4533
 8705TIP3   OH247605   4.928   3.881  15.931 -0.0393  0.2847 -0.1645
 8705TIP3    H147606   4.964   3.967  15.951 -0.3158  0.4916 -0.5511
 8705TIP3    H247607   4.997   3.820  15.956  0.9056  0.7164 -1.6187
 8706TIP3   OH247608   1.108   4.605  12.223  0.3927 -0.2832  0.3333
 8706TIP3    H147609   1.123   4.646  12.138  0.6221 -0.1584  0.4332
 8706TIP3    H247610   1.067   4.674  12.276  0.8883 -0.1383  0.5387
 8707TIP3   OH247611   1.063   1.785   3.860 -0.0692 -0.5337  0.0182
 8707TIP3    H147612   1.021   1.763   3.777  1.2022 -1.7569 -0.3575
 8707TIP3    H247613   1.125   1.855   3.838  0.4215 -1.0041 -0.1397
 8708TIP3   OH247614   5.924   3.528   3.142  0.6166  0.1267 -0.0074
 8708TIP3    H147615   5.991   3.497   3.082  0.9098 -0.8774  0.8106
 8708TIP3    H247616   5.916   3.458   3.207 -1.1932  0.2427 -0.0594
 8709TIP3   OH247617   1.049   0.736   2.159  0.1870 -0.0415  0.0385
 8709TIP3    H147618   1.028   0.657   2.208  2.1073  0.4506  1.8167
 8709TIP3    H247619   1.061   0.803   2.227  1.7981  0.9646 -1.1771
 8710TIP3   OH247620   0.203   4.297  10.928 -0.5637  0.9539 -0.3701
 8710TIP3    H147621   0.109   4.294  10.944 -0.2990  0.0521  1.1533
 8710TIP3    H247622   0.241   4.327  11.010  0.6292 -0.7313 -0.2599
 8711TIP3   OH247623   5.956   6.438  11.048 -0.1715  0.2511 -0.5664
 8711TIP3    H147624   6.015   6.384  11.100  0.5034  1.9874  0.5356
 8711TIP3    H247625   6.013   6.483  10.985 -0.6764  0.0109 -1.2172
 8712TIP3   OH247626   1.012   2.620  16.547 -0.5159 -0.2010  0.4797
 8712TIP3    H147627   0.984   2.534  16.581 -0.7315 -0.1921  0.3235
 8712TIP3    H247628   1.058   2.660  16.621 -1.9442  0.2795  1.1652
 8713TIP3   OH247629   2.256   3.680   1.884  0.1587 -0.1842 -0.3249
 8713TIP3    H147630   2.185   3.657   1.944  0.2777 -0.7468 -0.3947
 8713TIP3    H247631   2.336   3.664   1.933  0.2492 -0.3400 -0.5196
 8714TIP3   OH247632   5.967   0.004   2.493 -0.3931  0.0947  0.2118
 8714TIP3    H147633   5.891   0.037   2.444 -0.2646  2.2245  1.3203
 8714TIP3    H247634   6.033   0.072   2.481  0.9962 -1.2354  0.1398
 8715TIP3   OH247635   6.698   1.797  12.912 -0.0896 -0.3241 -0.0539
 8715TIP3    H147636   6.694   1.711  12.954 -0.0997 -0.6723 -0.7540
 8715TIP3    H247637   6.619   1.800  12.857 -0.0517  0.1039 -0.0844
 8716TIP3   OH247638   1.679   4.286  15.219  0.1773  0.2096  0.2086
 8716TIP3    H147639   1.745   4.260  15.283 -1.1693 -0.5834  1.3559
 8716TIP3    H247640   1.614   4.333  15.270 -0.5446  0.2576 -0.7286
 8717TIP3   OH247641   3.359   6.852   4.741  0.1875 -0.0041 -0.5732
 8717TIP3    H147642   3.275   6.882   4.706 -0.2622  0.3595  0.7283
 8717TIP3    H247643   3.388   6.924   4.798  0.9664 -0.4810 -0.3510
 8718TIP3   OH247644   5.488   4.355   2.387  0.4544 -0.0478  0.1746
 8718TIP3    H147645   5.577   4.374   2.417  1.2274 -0.3843 -1.7872
 8718TIP3    H247646   5.486   4.261   2.373  0.5981  0.2173 -2.0512
 8719TIP3   OH247647   4.892   4.771   4.738  0.3961 -0.0229 -0.5542
 8719TIP3    H147648   4.937   4.819   4.807  0.1069  1.7732 -1.5622
 8719TIP3    H247649   4.921   4.680   4.750  0.4538  0.2307  1.8148
 8720TIP3   OH247650   2.316   5.891   1.445 -0.5270 -0.0642  0.1950
 8720TIP3    H147651   2.233   5.852   1.473 -1.4382  0.7465 -1.2781
 8720TIP3    H247652   2.347   5.833   1.375  0.8743 -1.1146  1.6039
 8721TIP3   OH247653   1.318   0.418   0.794 -0.1481 -0.0723  0.6290
 8721TIP3    H147654   1.403   0.425   0.752 -0.5588  1.2176 -0.0415
 8721TIP3    H247655   1.326   0.343   0.853  1.7063  0.5191  1.1998
 8722TIP3   OH247656   4.246   0.710   0.958 -0.3066 -0.0608  0.4387
 8722TIP3    H147657   4.342   0.715   0.968  0.0045 -1.6650 -1.2535
 8722TIP3    H247658   4.217   0.658   1.033  0.2023  0.0248  0.7048
 8723TIP3   OH247659   3.818   0.057   5.356  0.4035 -0.1730  0.1120
 8723TIP3    H147660   3.886   0.044   5.422  1.6877  1.9157 -0.6808
 8723TIP3    H247661   3.747   0.099   5.402  0.5042 -0.4499  0.5289
 8724TIP3   OH247662   5.066   4.548   1.065 -0.9507 -0.2416 -0.3962
 8724TIP3    H147663   5.075   4.576   0.974 -0.8839  0.2299 -0.2445
 8724TIP3    H247664   5.130   4.601   1.113 -1.8290  0.3824  0.1043
 8725TIP3   OH247665   3.659   5.064  12.230 -0.0829  0.0883  0.6693
 8725TIP3    H147666   3.612   4.981  12.236  2.3894 -1.3726  1.6339
 8725TIP3    H247667   3.670   5.079  12.136 -0.0424 -1.0035  0.4863
 8726TIP3   OH247668   3.673   6.511   0.982 -0.2701 -0.3112  0.5064
 8726TIP3    H147669   3.677   6.461   0.901  0.5715 -0.6342  0.7319
 8726TIP3    H247670   3.763   6.512   1.014 -0.2131  1.5861  0.3798
 8727TIP3   OH247671   5.397   6.765   1.010  0.2434  0.3246 -0.6255
 8727TIP3    H147672   5.463   6.733   1.071  1.3238 -1.6525 -2.6586
 8727TIP3    H247673   5.336   6.692   1.001 -1.2610  1.4789 -0.1402
 8728TIP3   OH247674   3.015   5.323  12.885 -0.4110 -0.3937  0.3968
 8728TIP3    H147675   2.990   5.373  12.963 -0.9251  0.9470 -0.5943
 8728TIP3    H247676   3.104   5.293  12.903  2.2327  5.3436 -0.9341
 8729TIP3   OH247677   3.839   4.364  13.815 -0.2348 -0.7654 -0.0410
 8729TIP3    H147678   3.891   4.428  13.768  0.1878  0.4442  1.9699
 8729TIP3    H247679   3.903   4.306  13.857 -0.5791 -1.3845 -0.3577
 8730TIP3   OH247680   3.679   4.986  13.328 -0.2021 -0.4916  0.2893
 8730TIP3    H147681   3.597   5.027  13.354  0.5300  0.7221  0.7665
 8730TIP3    H247682   3.698   5.022  13.241 -0.1288 -0.7244  0.2056
 8731TIP3   OH247683   5.372   0.575   1.018 -0.0220 -0.5635 -0.5325
 8731TIP3    H147684   5.281   0.593   1.042  0.4740  0.9283  0.3761
 8731TIP3    H247685   5.400   0.655   0.973  0.7855 -1.1048 -1.0107
 8732TIP3   OH247686   3.640   0.790  12.694 -0.5576  0.0624  0.3070
 8732TIP3    H147687   3.676   0.873  12.728  2.3198 -1.1523  0.5050
 8732TIP3    H247688   3.663   0.790  12.601 -1.9231  0.1157 -0.0573
 8733TIP3   OH247689   1.050   1.531  10.243 -0.0018  0.0785 -0.2636
 8733TIP3    H147690   1.041   1.444  10.203 -1.5391 -0.4440  1.1078
 8733TIP3    H247691   0.961   1.565  10.244  0.5216  1.4940 -0.3484
 8734TIP3   OH247692   5.678   4.283  13.699  0.2613  0.1844 -0.1049
 8734TIP3    H147693   5.691   4.357  13.639  0.1202  0.9633  0.7934
 8734TIP3    H247694   5.619   4.224  13.653  1.6527 -0.1596 -1.5006
 8735TIP3   OH247695   1.268   2.196  14.755 -0.1625  0.3219  0.1837
 8735TIP3    H147696   1.302   2.111  14.725 -0.6027  0.0835  0.3512
 8735TIP3    H247697   1.346   2.245  14.782  0.0588 -0.1738  0.4507
 8736TIP3   OH247698   4.978   2.440   4.817 -0.1035 -0.1365 -0.3424
 8736TIP3    H147699   4.959   2.448   4.724  1.2665 -1.1978 -0.7433
 8736TIP3    H247700   4.892   2.442   4.859 -0.9458 -1.9030 -1.8228
 8737TIP3   OH247701   4.805   4.061   2.921  0.0071  0.5260 -0.0422
 8737TIP3    H147702   4.794   4.105   3.005 -1.2863 -2.0517  1.2768
 8737TIP3    H247703   4.872   3.994   2.939  0.9878  1.0432 -1.5928
 8738TIP3   OH247704   3.875   4.303  11.382  0.1233 -0.0868 -0.2779
 8738TIP3    H147705   3.914   4.386  11.407 -0.4009  0.3283 -0.8032
 8738TIP3    H247706   3.838   4.319  11.295  0.1618 -0.9156 -0.4619
 8739TIP3   OH247707   4.775   3.793  14.637  0.2338  0.2002  0.0010
 8739TIP3    H147708   4.764   3.869  14.694  1.1945 -1.0544  1.9770
 8739TIP3    H247709   4.753   3.825  14.549 -1.5162  2.1689  1.0769
 8740TIP3   OH247710   5.431   1.223   4.480  0.1500 -0.2587  0.5653
 8740TIP3    H147711   5.337   1.217   4.467  0.4335 -0.3218 -1.8560
 8740TIP3    H247712   5.444   1.308   4.523 -0.9175  0.4019 -0.3781
 8741TIP3   OH247713   6.210   4.393  14.506  0.1609 -0.2064  0.0543
 8741TIP3    H147714   6.241   4.475  14.467 -0.6657 -1.2181 -2.9370
 8741TIP3    H247715   6.182   4.340  14.432 -0.8203 -2.6147  2.0259
 8742TIP3   OH247716   0.823   6.654  13.512  0.3020  0.0058  1.0007
 8742TIP3    H147717   0.729   6.670  13.525  0.5404  0.9411  1.7227
 8742TIP3    H247718   0.838   6.674  13.420 -0.0779  0.6085  1.0640
 8743TIP3   OH247719   1.891   0.025   2.313  0.7404 -0.8086  0.3145
 8743TIP3    H147720   1.903   0.016   2.218 -0.3589 -1.5241  0.2253
 8743TIP3    H247721   1.797   0.013   2.326  0.9922 -1.5230  1.5801
 8744TIP3   OH247722   0.540   2.785   4.944  0.0541  0.2781  0.6276
 8744TIP3    H147723   0.631   2.769   4.918 -0.5889 -2.0823 -0.4647
 8744TIP3    H247724   0.512   2.856   4.887  0.5101 -0.6912 -0.8831
 8745TIP3   OH247725   5.947   3.699   0.239 -0.1594  0.3524 -0.2290
 8745TIP3    H147726   5.939   3.786   0.277 -0.7210  0.5621 -0.8102
 8745TIP3    H247727   5.860   3.680   0.203  0.7614  0.9487 -3.0374
 8746TIP3   OH247728   6.531   0.864   2.696 -0.2612 -0.4559 -0.6413
 8746TIP3    H147729   6.459   0.908   2.651 -1.2440 -0.6864  0.6341
 8746TIP3    H247730   6.533   0.904   2.783  1.7162  0.1283 -0.8971
 8747TIP3   OH247731   0.431   5.013  15.261 -0.0779 -0.1857 -0.2356
 8747TIP3    H147732   0.342   5.009  15.294  0.1342  0.3432  0.4142
 8747TIP3    H247733   0.485   4.972  15.329  0.3390  0.7744  0.0358
 8748TIP3   OH247734   5.003   4.376   1.335  0.3593  0.2353 -0.6201
 8748TIP3    H147735   5.026   4.454   1.285 -3.9006  1.2395 -1.4087
 8748TIP3    H247736   4.972   4.314   1.269  1.5642 -1.3470  0.2177
 8749TIP3   OH247737   2.098   5.812  12.085 -1.2095  0.2718  0.1659
 8749TIP3    H147738   2.143   5.764  12.016 -0.5601  0.6280  0.3274
 8749TIP3    H247739   2.133   5.776  12.166 -1.2602  0.5077  0.2952
 8750TIP3   OH247740   3.724   4.418  14.401  0.3525  0.0713  0.2644
 8750TIP3    H147741   3.631   4.415  14.380  0.2083  0.1667  0.8565
 8750TIP3    H247742   3.741   4.510  14.422  1.2692  0.7204 -2.7574
 8751TIP3   OH247743   4.231   6.485   3.101 -0.0773  0.3379 -0.3875
 8751TIP3    H147744   4.139   6.466   3.116 -0.5478  3.3213  1.3284
 8751TIP3    H247745   4.274   6.465   3.184 -0.1006  3.3072  0.4523
 8752TIP3   OH247746   6.677   3.836  12.043 -0.6888  0.4444  0.6617
 8752TIP3    H147747   6.610   3.880  12.095 -1.8846 -2.5764  1.9082
 8752TIP3    H247748   6.640   3.750  12.025  1.1811  0.1298 -2.2866
 8753TIP3   OH247749   4.932   1.232  13.572  0.2944  0.5628 -0.5367
 8753TIP3    H147750   4.975   1.313  13.599  0.8229 -0.0809  0.5994
 8753TIP3    H247751   5.003   1.173  13.547 -0.0072 -0.0015 -0.0828
 8754TIP3   OH247752   3.848   2.837  15.495  0.3381 -0.1949 -0.1903
 8754TIP3    H147753   3.883   2.906  15.552 -0.3472  1.1343 -1.3249
 8754TIP3    H247754   3.756   2.828  15.522  0.5414 -1.0180  0.2650
 8755TIP3   OH247755   3.312   1.672  13.815  0.2165 -0.8305 -0.0315
 8755TIP3    H147756   3.262   1.748  13.845  1.4864  0.2148 -0.4567
 8755TIP3    H247757   3.365   1.705  13.742  1.5409 -1.8775  0.4168
 8756TIP3   OH247758   2.293   1.519  14.037 -0.6260 -0.4325  0.1268
 8756TIP3    H147759   2.317   1.477  13.954 -0.3131 -1.3017  0.6432
 8756TIP3    H247760   2.199   1.535  14.029 -0.6743 -0.8735 -0.2475
 8757TIP3   OH247761   6.430   0.707   4.866 -0.5632  0.2564  0.4459
 8757TIP3    H147762   6.392   0.792   4.844 -1.3684 -0.4623 -1.0600
 8757TIP3    H247763   6.400   0.689   4.955 -1.8635  0.7495  0.1254
 8758TIP3   OH247764   1.810   4.528   0.238 -0.8534  0.1737  0.0293
 8758TIP3    H147765   1.801   4.565   0.326  3.6502  2.3100 -0.0951
 8758TIP3    H247766   1.846   4.441   0.251 -1.7079 -0.1521  0.2666
 8759TIP3   OH247767   2.421   5.639   5.530 -0.1670 -0.0669 -0.1496
 8759TIP3    H147768   2.423   5.605   5.441 -0.1257  0.4343 -0.3477
 8759TIP3    H247769   2.472   5.577   5.581 -0.5046 -0.5543 -0.4037
 8760TIP3   OH247770   4.737   6.216  11.824 -0.2611  0.2324  0.5288
 8760TIP3    H147771   4.692   6.199  11.907  0.8749  0.1109  1.1335
 8760TIP3    H247772   4.823   6.176  11.835 -0.6194 -1.1673 -1.2999
 8761TIP3   OH247773   5.967   2.308   4.052  0.2796  0.3654 -1.0545
 8761TIP3    H147774   6.010   2.255   3.986 -1.4750  0.1477 -2.0982
 8761TIP3    H247775   6.010   2.284   4.134  1.7109 -0.2224 -1.9372
 8762TIP3   OH247776   5.693   0.684  11.503 -0.2769  0.4323  0.2868
 8762TIP3    H147777   5.639   0.754  11.541  0.2054  0.0292  1.7698
 8762TIP3    H247778   5.738   0.645  11.578  2.6213  1.1545 -0.9380
 8763TIP3   OH247779   2.094   2.227  12.013 -0.2038 -0.1167 -0.4663
 8763TIP3    H147780   2.063   2.302  11.960 -1.9553 -1.6957 -1.8268
 8763TIP3    H247781   2.039   2.229  12.091  0.3533  0.5116 -0.0851
 8764TIP3   OH247782   6.030   4.338   4.599  0.6056 -0.4485  0.5064
 8764TIP3    H147783   5.976   4.265   4.626 -0.7385 -0.9772 -3.1087
 8764TIP3    H247784   6.084   4.304   4.528  1.1075  1.6692 -0.2221
 8765TIP3   OH247785   3.104   5.768   0.725  0.1463  0.2431 -0.1364
 8765TIP3    H147786   3.040   5.699   0.744  0.6685 -0.5647 -1.1816
 8765TIP3    H247787   3.099   5.780   0.630 -0.2359  1.9685  0.0690
 8766TIP3   OH247788   1.706   0.421  10.385 -0.6430 -0.0821  0.1875
 8766TIP3    H147789   1.782   0.395  10.334 -0.6936 -0.9787  0.5505
 8766TIP3    H247790   1.669   0.495  10.337  0.5817  0.5260  0.1337
 8767TIP3   OH247791   3.368   4.997  15.089 -0.3020 -0.7253 -0.1179
 8767TIP3    H147792   3.344   4.904  15.090  1.7668 -1.3114  0.1929
 8767TIP3    H247793   3.436   5.004  15.156  0.5259  0.7451 -1.0789
 8768TIP3   OH247794   3.943   1.093  15.475 -0.3344  0.0834 -0.0470
 8768TIP3    H147795   3.926   1.053  15.390 -0.2597  0.6909 -0.3493
 8768TIP3    H247796   4.036   1.114  15.473  0.0364 -1.3328  0.8017
 8769TIP3   OH247797   4.167   1.112   2.104 -0.6059  0.1019  0.4138
 8769TIP3    H147798   4.168   1.053   2.029  0.2285  1.0156 -0.3320
 8769TIP3    H247799   4.232   1.076   2.164  0.9244  0.9660 -0.6518
 8770TIP3   OH247800   1.314   5.491  15.256 -0.1822  0.3326  0.0396
 8770TIP3    H147801   1.311   5.421  15.321 -1.8944 -0.3817 -0.7638
 8770TIP3    H247802   1.242   5.472  15.197  1.6142  0.6638 -2.4036
 8771TIP3   OH247803   6.407   5.424   5.803  0.7970  0.6312  0.6374
 8771TIP3    H147804   6.352   5.417   5.881  1.7366 -0.1471  1.2617
 8771TIP3    H247805   6.431   5.333   5.783  0.8437  0.8542 -0.3558
 8772TIP3   OH247806   4.459   3.672   3.555 -0.5235  0.5625 -0.5646
 8772TIP3    H147807   4.551   3.700   3.554 -0.6870  1.1955  0.5267
 8772TIP3    H247808   4.457   3.594   3.500  0.7550  0.2823 -0.2415
 8773TIP3   OH247809   0.837   3.186  15.037 -0.4886  0.2185  0.3843
 8773TIP3    H147810   0.761   3.216  14.987 -1.0514  1.4975  1.9275
 8773TIP3    H247811   0.907   3.181  14.972 -1.6078  0.0601 -0.8744
 8774TIP3   OH247812   3.900   3.116   3.426  0.7408 -0.4786  0.6317
 8774TIP3    H147813   3.879   3.194   3.478  0.3614 -0.4079  0.3729
 8774TIP3    H247814   3.916   3.150   3.338  1.1897 -0.6233  0.6546
 8775TIP3   OH247815   1.361   3.996   6.344 -0.0182 -0.3840 -0.1580
 8775TIP3    H147816   1.372   4.091   6.353  0.4243 -0.6275  2.4792
 8775TIP3    H247817   1.445   3.966   6.309 -0.5552  0.2611 -2.1386
 8776TIP3   OH247818   3.636   6.737   2.693 -0.7388 -0.7105 -0.3595
 8776TIP3    H147819   3.562   6.785   2.657  0.0234  1.5584  0.8706
 8776TIP3    H247820   3.607   6.710   2.780 -0.6497 -1.1706 -0.4727
 8777TIP3   OH247821   2.135   4.594   0.934  0.0595 -0.2250  0.4613
 8777TIP3    H147822   2.155   4.553   1.019 -0.1420 -0.2201  0.5118
 8777TIP3    H247823   2.069   4.660   0.955 -0.8730 -1.0353  0.1151
 8778TIP3   OH247824   0.695   0.222  15.945 -0.7249  0.2510  0.0538
 8778TIP3    H147825   0.632   0.289  15.920 -0.0071  1.0611  0.3551
 8778TIP3    H247826   0.646   0.140  15.942 -2.0291  0.9588  1.1369
 8779TIP3   OH247827   0.714   4.207   1.101 -0.0880 -0.0558  0.1307
 8779TIP3    H147828   0.787   4.260   1.135 -1.1978  1.6193  0.0501
 8779TIP3    H247829   0.749   4.167   1.021 -0.1656  3.5792 -1.9736
 8780TIP3   OH247830   0.606   0.187   5.184  0.3369  0.1522  0.2046
 8780TIP3    H147831   0.664   0.120   5.148 -0.9235 -0.7206 -0.2691
 8780TIP3    H247832   0.598   0.164   5.277  0.5925  0.1657  0.2321
 8781TIP3   OH247833   5.359   6.737  15.019 -0.0516  0.0300  0.1263
 8781TIP3    H147834   5.331   6.645  15.012 -0.0928  0.0322  0.2601
 8781TIP3    H247835   5.420   6.749  14.946  0.1051 -0.1602  0.2262
 8782TIP3   OH247836   0.486   2.334  15.698  0.4024 -0.2022 -0.2166
 8782TIP3    H147837   0.431   2.412  15.708 -0.5983 -0.8648 -0.3787
 8782TIP3    H247838   0.562   2.365  15.649  1.4229  1.2887  2.0777
 8783TIP3   OH247839   4.250   4.918  16.123  0.7279 -0.0024 -0.1410
 8783TIP3    H147840   4.220   4.978  16.191  2.1802  0.4727  0.0999
 8783TIP3    H247841   4.220   4.957  16.041  1.3756  0.8872  0.0388
 8784TIP3   OH247842   2.613   5.538  15.128  0.2114  0.1805 -0.5573
 8784TIP3    H147843   2.670   5.561  15.202 -1.8416  0.7730  0.9381
 8784TIP3    H247844   2.560   5.465  15.161  0.2743 -0.5379 -1.9973
 8785TIP3   OH247845   0.724   5.168  13.950 -0.4498 -0.0511 -0.3955
 8785TIP3    H147846   0.670   5.095  13.981 -1.7334  0.4578 -1.3400
 8785TIP3    H247847   0.762   5.206  14.030 -1.9600 -0.0670  0.3656
 8786TIP3   OH247848   3.143   6.624   4.932  0.4328 -0.1794  0.7543
 8786TIP3    H147849   3.152   6.634   5.026  0.2391 -0.7676  0.8381
 8786TIP3    H247850   3.097   6.540   4.920  0.7136 -0.2544  0.1328
 8787TIP3   OH247851   6.364   1.770  12.441  0.5325 -0.3853 -0.6430
 8787TIP3    H147852   6.308   1.820  12.381  0.5495  0.4654  0.0330
 8787TIP3    H247853   6.451   1.773  12.400  0.5552  0.2331 -0.5625
 8788TIP3   OH247854   2.380   2.895   1.708 -0.9207  0.2409  0.1430
 8788TIP3    H147855   2.384   2.800   1.717 -1.6463  0.2516  0.6352
 8788TIP3    H247856   2.289   2.918   1.729 -1.0972  0.9128 -1.1893
 8789TIP3   OH247857   4.858   0.488   5.540 -0.3060  0.3474 -0.0357
 8789TIP3    H147858   4.784   0.542   5.511  0.7467  0.3910 -3.0070
 8789TIP3    H247859   4.914   0.548   5.589 -0.5392  1.2355 -0.8292
 8790TIP3   OH247860   2.221   6.490   0.219 -0.0498 -0.2603 -0.9799
 8790TIP3    H147861   2.254   6.522   0.303  0.5534 -0.6472 -1.0616
 8790TIP3    H247862   2.244   6.397   0.217 -0.5444 -0.3818 -1.3419
 8791TIP3   OH247863   3.866   1.621  16.946  0.2825 -0.1199 -0.5079
 8791TIP3    H147864   3.820   1.586  16.870  2.0280 -0.0635 -1.6471
 8791TIP3    H247865   3.823   1.705  16.963  0.6612  0.4755 -2.2560
 8792TIP3   OH247866   4.048   5.715   2.021 -0.3287  0.1638 -0.0045
 8792TIP3    H147867   3.964   5.668   2.019  0.5557 -1.6567  1.8201
 8792TIP3    H247868   4.071   5.727   1.929 -2.7322  1.0796 -0.5757
 8793TIP3   OH247869   1.048   5.895   1.983 -0.1149 -0.5327  0.3899
 8793TIP3    H147870   0.990   5.948   2.037  0.0143 -0.7255  0.7225
 8793TIP3    H247871   1.075   5.953   1.912  0.8315  0.1751  1.2977
 8794TIP3   OH247872   6.359   3.735  16.328 -0.3280  0.1493 -0.7033
 8794TIP3    H147873   6.271   3.709  16.303 -0.4066  0.6511 -0.9580
 8794TIP3    H247874   6.389   3.792  16.257  0.3390 -0.3062 -0.8013
 8795TIP3   OH247875   1.495   1.754  14.868 -0.2621  0.4075 -0.0827
 8795TIP3    H147876   1.462   1.674  14.827 -0.2276  1.1235 -1.5672
 8795TIP3    H247877   1.553   1.723  14.938 -0.2494 -0.8574 -0.6381
 8796TIP3   OH247878   2.977   1.853   3.144 -0.3118 -0.3878 -0.4881
 8796TIP3    H147879   2.996   1.763   3.117  1.0199 -0.9638  2.0192
 8796TIP3    H247880   2.921   1.843   3.221 -0.8466  0.9840 -0.6813
 8797TIP3   OH247881   6.785   3.021  11.025  0.1734  0.0393 -0.4780
 8797TIP3    H147882   6.852   3.024  11.092  0.2544 -0.8381 -0.5077
 8797TIP3    H247883   6.821   2.964  10.957 -1.1261 -1.5962  0.1218
 8798TIP3   OH247884   1.555   2.663   2.683 -0.5326  0.5665 -0.2530
 8798TIP3    H147885   1.631   2.621   2.725 -0.0592  0.7968 -0.8558
 8798TIP3    H247886   1.500   2.589   2.655 -1.3639  0.4206  1.6298
 8799TIP3   OH247887   2.953   4.759   0.224 -0.4005 -0.1661 -0.0323
 8799TIP3    H147888   2.893   4.832   0.243  0.1957  0.2231  0.4275
 8799TIP3    H247889   2.897   4.682   0.220 -1.0509  0.3202 -0.5472
 8800TIP3   OH247890   3.767   6.386  14.466  0.4673  0.0059 -0.1893
 8800TIP3    H147891   3.738   6.474  14.488  0.4849  0.1291 -0.6462
 8800TIP3    H247892   3.796   6.348  14.549 -1.2839 -0.2304  0.3407
 8801TIP3   OH247893   2.164   3.606   1.574 -0.1243 -0.1373 -0.1384
 8801TIP3    H147894   2.217   3.537   1.615 -1.6773 -0.5734  1.2160
 8801TIP3    H247895   2.127   3.564   1.497  2.0148  0.3954 -1.5604
 8802TIP3   OH247896   3.167   3.958   1.510 -0.1274 -0.2778  0.8509
 8802TIP3    H147897   3.158   3.929   1.419 -0.8637  0.5245  0.6519
 8802TIP3    H247898   3.191   4.050   1.503 -0.7027 -0.0720  1.4605
 8803TIP3   OH247899   6.287   5.189   1.784  0.2530 -0.0784 -0.1830
 8803TIP3    H147900   6.246   5.259   1.733  0.7054  0.8921  0.7659
 8803TIP3    H247901   6.299   5.226   1.871  0.3443 -1.4024  0.3880
 8804TIP3   OH247902   1.355   3.209  11.063  0.1687  0.7216 -0.0190
 8804TIP3    H147903   1.364   3.236  11.155  0.4251  0.5715  0.0022
 8804TIP3    H247904   1.364   3.290  11.013  2.0875  0.5678 -0.0248
 8805TIP3   OH247905   3.819   0.154   0.290  0.1995  0.0684  0.1223
 8805TIP3    H147906   3.746   0.211   0.314 -0.1235 -0.7138  1.1131
 8805TIP3    H247907   3.852   0.121   0.374  1.3171 -0.0562 -0.3428
 8806TIP3   OH247908   5.872   3.471   1.324  0.0563 -0.1294  0.8299
 8806TIP3    H147909   5.954   3.422   1.315 -0.3365 -0.9456  1.5648
 8806TIP3    H247910   5.851   3.467   1.417 -0.8130  0.0852  0.6531
 8807TIP3   OH247911   6.487   5.410   6.381 -0.0605 -1.1142 -0.1895
 8807TIP3    H147912   6.549   5.470   6.421 -1.4563 -0.1448  0.6054
 8807TIP3    H247913   6.480   5.337   6.443 -0.3863 -0.7790  0.1765
 8808TIP3   OH247914   1.949   5.105  11.074  0.0380  0.1405  0.3533
 8808TIP3    H147915   1.982   5.157  11.148  1.2087 -0.5153  0.3049
 8808TIP3    H247916   1.980   5.152  10.996  1.7815 -0.9904  0.3059
 8809TIP3   OH247917   1.854   0.212   3.106  0.0671 -0.0887 -0.7759
 8809TIP3    H147918   1.827   0.175   3.191  0.3771  2.1283  0.3563
 8809TIP3    H247919   1.948   0.226   3.115  0.0164  0.6180 -1.3155
 8810TIP3   OH247920   2.981   3.532   2.069 -0.4495 -0.6682 -0.1465
 8810TIP3    H147921   3.045   3.553   2.138  0.6564 -0.4274 -1.2147
 8810TIP3    H247922   2.965   3.616   2.026 -0.5417 -0.9547 -0.6658
 8811TIP3   OH247923   1.897   2.428  13.670 -0.2227  0.3292  0.1128
 8811TIP3    H147924   1.824   2.477  13.709 -0.5091 -0.0956  0.1083
 8811TIP3    H247925   1.961   2.496  13.647  0.0887  0.5949  1.5936
 8812TIP3   OH247926   6.733   2.951   2.883 -0.1676  0.6527  0.2801
 8812TIP3    H147927   6.798   2.963   2.814  0.7100 -1.8344  0.5857
 8812TIP3    H247928   6.649   2.955   2.837  0.3737 -0.2984 -0.8609
 8813TIP3   OH247929   2.098   6.580   0.998 -0.5613  0.0883  0.2436
 8813TIP3    H147930   2.008   6.560   1.024 -0.1964 -1.0394  0.7146
 8813TIP3    H247931   2.090   6.628   0.916 -1.5615 -1.7047 -0.7747
 8814TIP3   OH247932   0.344   4.606  16.328 -0.0205 -0.2865 -0.0227
 8814TIP3    H147933   0.404   4.617  16.402  0.3170 -2.1444  0.0178
 8814TIP3    H247934   0.258   4.590  16.369  0.4945 -3.2192  0.0827
 8815TIP3   OH247935   1.054   1.954  11.922  0.0008  0.4796 -0.0218
 8815TIP3    H147936   1.056   1.859  11.919  1.6164  0.4081  1.4574
 8815TIP3    H247937   1.035   1.975  12.014  0.2052  1.5624 -0.2059
 8816TIP3   OH247938   4.855   1.285  12.838 -0.6770  0.4857  0.0738
 8816TIP3    H147939   4.860   1.378  12.857 -2.1306  0.4855  0.5767
 8816TIP3    H247940   4.817   1.246  12.917  0.0085 -0.5494 -0.0890
 8817TIP3   OH247941   5.815   3.338   5.652 -0.5457 -0.1908  0.2524
 8817TIP3    H147942   5.868   3.374   5.580  0.0701  1.2053  1.3376
 8817TIP3    H247943   5.750   3.284   5.609  0.6099 -0.4498 -1.2700
 8818TIP3   OH247944   5.599   3.297   3.669  0.5046  0.1367 -0.4124
 8818TIP3    H147945   5.656   3.373   3.679 -1.3040  1.4237  0.4806
 8818TIP3    H247946   5.525   3.328   3.617 -0.2289 -1.0435 -0.1088
 8819TIP3   OH247947   1.807   2.972  13.814  0.2956  0.5842  0.1889
 8819TIP3    H147948   1.853   2.899  13.773 -0.0454 -0.2144  1.1801
 8819TIP3    H247949   1.874   3.038  13.828  0.8072  0.0852  0.1311
 8820TIP3   OH247950   3.527   5.918   5.994  0.0764  0.2301  0.2205
 8820TIP3    H147951   3.581   5.932   6.072  1.2606 -0.1081 -0.5011
 8820TIP3    H247952   3.449   5.971   6.009 -0.0674 -0.4042  1.9513
 8821TIP3   OH247953   5.810   3.592   4.985 -1.0537 -0.0554 -0.3896
 8821TIP3    H147954   5.888   3.583   5.040 -1.5229 -0.8969  0.1645
 8821TIP3    H247955   5.775   3.678   5.008  0.1788  0.7346 -1.2977
 8822TIP3   OH247956   5.106   0.687   2.358  0.4792 -0.4260  0.0867
 8822TIP3    H147957   5.111   0.595   2.382 -1.4160 -0.6646 -0.2870
 8822TIP3    H247958   5.045   0.725   2.420 -2.4363 -0.4865 -2.5120
 8823TIP3   OH247959   2.312   6.096  11.022 -0.6871 -0.0211 -0.6083
 8823TIP3    H147960   2.370   6.020  11.028 -1.2935 -0.4132  1.4854
 8823TIP3    H247961   2.235   6.064  10.974 -0.5386 -0.4753 -0.5522
 8824TIP3   OH247962   2.900   5.560   2.110 -0.0828 -0.3217  0.3945
 8824TIP3    H147963   2.849   5.510   2.173  0.4137 -1.3929 -0.0265
 8824TIP3    H247964   2.905   5.503   2.033 -0.7926  1.0087 -0.6816
 8825TIP3   OH247965   2.624   4.359  14.802 -0.2393 -0.8846 -0.2510
 8825TIP3    H147966   2.621   4.299  14.727  1.3888  0.5126 -1.5277
 8825TIP3    H247967   2.554   4.330  14.859 -0.3786 -3.1453 -1.4550
 8826TIP3   OH247968   2.602   2.513   2.339 -0.1006  0.3590 -0.0832
 8826TIP3    H147969   2.544   2.566   2.394 -1.8845 -0.0546 -1.4480
 8826TIP3    H247970   2.624   2.437   2.393 -2.5063 -0.4727 -0.1439
 8827TIP3   OH247971   1.462   6.733   3.285 -0.2189  0.1210  0.2491
 8827TIP3    H147972   1.460   6.713   3.379  0.9656 -0.7418  0.1074
 8827TIP3    H247973   1.388   6.684   3.249 -0.2553 -0.1196  0.6396
 8828TIP3   OH247974   2.185   1.248   0.425  0.5478  0.1710 -0.0055
 8828TIP3    H147975   2.218   1.327   0.382 -0.0877  1.3508  1.5816
 8828TIP3    H247976   2.217   1.255   0.515  0.2292 -1.2436  0.2309
 8829TIP3   OH247977   2.369   3.685  12.758  0.0210 -0.4484 -0.0506
 8829TIP3    H147978   2.370   3.728  12.673  1.7350  0.4583  0.3841
 8829TIP3    H247979   2.276   3.674  12.778 -0.4660  1.5546 -0.9485
 8830TIP3   OH247980   1.982   3.284  16.822 -0.3857  0.2421  0.2372
 8830TIP3    H147981   1.989   3.377  16.801  1.2368  0.2119  0.5228
 8830TIP3    H247982   2.057   3.243  16.778 -0.7685 -0.8474  0.5546
 8831TIP3   OH247983   2.020   6.044   3.360  0.1941  0.2899  0.0449
 8831TIP3    H147984   1.946   6.043   3.421  0.9467 -1.0596  0.9782
 8831TIP3    H247985   1.997   6.111   3.296 -1.0742  1.0467  1.2483
 8832TIP3   OH247986   1.649   6.809  16.273 -0.0646 -0.0184  0.5780
 8832TIP3    H147987   1.651   6.838  16.181  2.4656  0.8358  0.8303
 8832TIP3    H247988   1.612   6.721  16.269 -3.1274  1.1932 -0.8225
 8833TIP3   OH247989   3.646   4.720  11.035 -0.2514 -1.0086 -0.7538
 8833TIP3    H147990   3.581   4.733  10.966  1.3407 -0.9350 -2.2952
 8833TIP3    H247991   3.661   4.625  11.037 -1.4075 -1.2002  0.6044
 8834TIP3   OH247992   2.945   2.885   1.986 -0.0286 -0.0068 -0.1545
 8834TIP3    H147993   2.997   2.961   1.958  1.2819 -1.0708 -0.6904
 8834TIP3    H247994   2.925   2.838   1.905 -0.0295 -0.7243  0.2555
 8835TIP3   OH247995   5.009   6.402   5.031 -0.1779  0.2430 -0.4566
 8835TIP3    H147996   5.074   6.397   5.101 -0.8896  1.6591  0.3698
 8835TIP3    H247997   4.930   6.435   5.075 -0.9705  0.1308 -1.7415
 8836TIP3   OH247998   3.057   5.758  12.779  0.8955 -0.7382  0.5007
 8836TIP3    H147999   3.131   5.810  12.747 -0.6215 -0.1435 -2.3937
 8836TIP3    H248000   2.997   5.822  12.816  1.2628 -1.0753  1.7050
 8837TIP3   OH248001   3.757   1.586  13.926  0.1164  0.1873  0.0593
 8837TIP3    H148002   3.716   1.553  13.846  1.3686 -2.9818  0.5807
 8837TIP3    H248003   3.685   1.627  13.975 -0.7021  2.1108 -2.5284
 8838TIP3   OH248004   2.143   0.514  11.198  0.4550  0.1000 -0.2799
 8838TIP3    H148005   2.069   0.569  11.171 -0.1325 -1.3774 -1.9646
 8838TIP3    H248006   2.214   0.575  11.215 -0.9585  1.5377  0.7874
 8839TIP3   OH248007   0.802   4.437   1.421 -0.2303  0.0703  0.3241
 8839TIP3    H148008   0.763   4.421   1.506 -0.5245  2.2221  0.6369
 8839TIP3    H248009   0.840   4.352   1.396 -1.4672 -0.9923  1.8652
 8840TIP3   OH248010   4.361   6.734  15.023 -0.1012 -0.5443 -1.0881
 8840TIP3    H148011   4.393   6.659  14.973  1.3798 -1.0425  0.5348
 8840TIP3    H248012   4.380   6.810  14.968 -0.2231 -1.2091 -2.0775
 8841TIP3   OH248013   1.441   2.506   1.512  0.2228 -0.0106 -0.1434
 8841TIP3    H148014   1.472   2.581   1.462  0.8356  0.3096  0.6831
 8841TIP3    H248015   1.363   2.475   1.465  0.2347  0.8576 -0.7468
 8842TIP3   OH248016   0.063   2.026   4.317 -0.0996 -0.4155  0.4892
 8842TIP3    H148017   0.011   2.091   4.269 -0.9760 -0.3259  1.5329
 8842TIP3    H248018   0.153   2.057   4.309 -0.2657 -0.1937 -0.7498
 8843TIP3   OH248019   4.343   5.547  12.260  0.3625 -0.2830  0.1582
 8843TIP3    H148020   4.394   5.501  12.193  0.2253  0.1909 -0.2773
 8843TIP3    H248021   4.274   5.591  12.212  1.1413  1.2942  0.4117
 8844TIP3   OH248022   4.469   1.157  14.139  0.0156  0.3858 -0.4522
 8844TIP3    H148023   4.415   1.179  14.216 -0.5336  1.0623 -1.0193
 8844TIP3    H248024   4.406   1.130  14.073  0.4925 -0.2132 -0.6667
 8845TIP3   OH248025   0.243   3.982   5.458  0.4916 -0.5390  0.1867
 8845TIP3    H148026   0.306   4.027   5.402 -0.5878  1.8251  0.7096
 8845TIP3    H248027   0.196   4.053   5.501 -2.5329 -2.1617 -0.1810
 8846TIP3   OH248028   0.868   3.208   0.538 -0.5064 -0.0176  0.2216
 8846TIP3    H148029   0.931   3.227   0.607  0.7210 -0.7453 -0.6448
 8846TIP3    H248030   0.921   3.210   0.457 -1.2096 -2.3871 -0.3547
 8847TIP3   OH248031   1.438   1.941   4.425  0.9316 -0.2404  0.0853
 8847TIP3    H148032   1.427   1.867   4.484 -0.4763 -1.0328 -1.0885
 8847TIP3    H248033   1.363   1.998   4.443 -2.1529 -2.5848 -3.6978
 8848TIP3   OH248034   4.390   5.195  11.983  0.5523  0.1568  0.3427
 8848TIP3    H148035   4.405   5.153  11.899 -0.3622 -0.1396  0.3169
 8848TIP3    H248036   4.305   5.239  11.973  1.2428  1.6188  0.5208
 8849TIP3   OH248037   6.557   4.555  15.851 -0.0127  0.3973 -0.3845
 8849TIP3    H148038   6.476   4.522  15.812  0.6884  0.1419 -1.6875
 8849TIP3    H248039   6.616   4.566  15.776  1.6688 -0.8682  0.7114
 8850TIP3   OH248040   4.053   6.583  17.051  0.2548 -0.5946  0.4132
 8850TIP3    H148041   4.085   6.589  17.142 -1.8862 -0.7308  1.2201
 8850TIP3    H248042   4.020   6.670  17.032 -0.5395 -0.9277  0.2537
 8851TIP3   OH248043   0.037   0.375  16.325 -0.2841  0.2305 -0.1018
 8851TIP3    H148044  -0.025   0.393  16.254 -0.6310 -0.5934 -0.0300
 8851TIP3    H248045   0.003   0.295  16.366  0.6927 -0.0939  0.1033
 8852TIP3   OH248046   1.852   2.402  15.996 -0.5430 -0.3273  0.2198
 8852TIP3    H148047   1.770   2.376  16.039 -0.2680 -1.8697 -0.1146
 8852TIP3    H248048   1.897   2.456  16.060 -0.7352 -1.4939  1.3832
 8853TIP3   OH248049   6.671   5.490   0.422 -0.0748  0.7058 -0.1600
 8853TIP3    H148050   6.662   5.419   0.358 -0.3844  1.0395 -0.4925
 8853TIP3    H248051   6.662   5.570   0.370 -0.8564  0.9766  0.3793
 8854TIP3   OH248052   0.306   2.693   2.329 -0.0709  0.3718 -0.3642
 8854TIP3    H148053   0.364   2.769   2.334 -0.2711  0.4803  0.4295
 8854TIP3    H248054   0.359   2.626   2.284  0.4227  0.6911 -0.2719
 8855TIP3   OH248055   6.582   2.940   4.952  0.0354 -0.0139  0.2231
 8855TIP3    H148056   6.628   2.975   4.876 -1.1069 -1.1278 -1.0338
 8855TIP3    H248057   6.509   2.890   4.915 -1.0484  0.1083  2.0912
 8856TIP3   OH248058   4.589   2.662   5.733  0.2218  0.5089 -0.1135
 8856TIP3    H148059   4.537   2.611   5.795  0.1941  1.3938  0.6134
 8856TIP3    H248060   4.670   2.682   5.779  0.3078  0.9673 -0.4467
 8857TIP3   OH248061   5.422   2.907   1.781  0.3513  0.1553 -0.3452
 8857TIP3    H148062   5.371   2.966   1.726 -1.2921 -0.9218 -0.0359
 8857TIP3    H248063   5.467   2.965   1.843  1.2118  1.2760 -1.9522
 8858TIP3   OH248064   2.102   5.515   0.891 -0.7352 -0.0546 -0.0703
 8858TIP3    H148065   2.161   5.566   0.835 -0.1730  0.0963  0.6475
 8858TIP3    H248066   2.070   5.578   0.955  0.3119 -0.6673  1.1025
 8859TIP3   OH248067   5.166   2.656  14.583  0.4727  0.1640 -0.0186
 8859TIP3    H148068   5.256   2.678  14.559  0.6250 -1.0701 -0.6101
 8859TIP3    H248069   5.168   2.651  14.679  0.4368  2.5904  0.1665
 8860TIP3   OH248070   4.249   6.580  12.171  0.3293  0.2576 -0.2778
 8860TIP3    H148071   4.185   6.551  12.236  0.4189 -0.1131 -0.3558
 8860TIP3    H248072   4.235   6.522  12.096  1.9300 -1.0094  0.3427
 8861TIP3   OH248073   1.173   2.245  14.176 -0.3241 -0.2121 -0.7038
 8861TIP3    H148074   1.216   2.212  14.255 -0.3558  1.9466  0.2744
 8861TIP3    H248075   1.245   2.259  14.114  0.0920  0.7666 -0.0295
 8862TIP3   OH248076   6.529   1.952   0.939  0.5478  0.2063 -0.2134
 8862TIP3    H148077   6.588   2.026   0.922 -0.3638  0.8405 -0.6940
 8862TIP3    H248078   6.528   1.903   0.856  1.0058 -0.2554  0.0462
 8863TIP3   OH248079   2.813   5.134  13.193  0.5205 -0.1893 -0.3972
 8863TIP3    H148080   2.827   5.212  13.247 -0.2341 -0.5166  0.2869
 8863TIP3    H248081   2.749   5.162  13.128 -1.2182 -0.7294  1.0091
 8864TIP3   OH248082   1.201   2.531  11.085 -0.1500  0.2413 -0.0229
 8864TIP3    H148083   1.184   2.528  10.991 -0.6429 -0.3411  0.0834
 8864TIP3    H248084   1.285   2.577  11.092  0.2497 -0.3497 -0.7888
 8865TIP3   OH248085   2.452   4.163  16.054  0.0301 -0.3886 -0.1363
 8865TIP3    H148086   2.446   4.163  16.150  0.8239  0.6688 -0.0572
 8865TIP3    H248087   2.532   4.112  16.036  0.1742 -0.1408 -0.2007
 8866TIP3   OH248088   3.234   2.218  11.595 -0.1205  0.6946 -0.0022
 8866TIP3    H148089   3.148   2.249  11.622 -1.0201 -0.9707 -0.8626
 8866TIP3    H248090   3.276   2.189  11.676 -1.5266 -1.2104  0.0941
 8867TIP3   OH248091   6.541   3.201   5.453 -0.1818 -0.0971  0.0956
 8867TIP3    H148092   6.608   3.269   5.445 -0.7229  0.6632  1.6285
 8867TIP3    H248093   6.589   3.125   5.486  0.4699 -0.5740 -1.8522
 8868TIP3   OH248094   4.612   5.192  10.732 -0.1696  0.3736  0.7343
 8868TIP3    H148095   4.705   5.198  10.710 -0.4883  1.3431 -0.4524
 8868TIP3    H248096   4.604   5.109  10.781  1.0943 -0.3557 -0.2392
 8869TIP3   OH248097   3.164   3.755   3.628  0.3579 -0.0293  0.2721
 8869TIP3    H148098   3.172   3.706   3.546  1.0291 -0.0391  0.3412
 8869TIP3    H248099   3.241   3.810   3.631  0.8552 -0.7534  1.3733
 8870TIP3   OH248100   4.908   1.068  11.968 -0.0656 -0.2415 -0.3766
 8870TIP3    H148101   4.938   1.086  11.879 -0.7905  0.6603 -0.4415
 8870TIP3    H248102   4.918   1.151  12.014 -1.9722 -0.0379 -0.2667
 8871TIP3   OH248103   5.114   6.418   6.425 -0.6597 -0.2684  0.5845
 8871TIP3    H148104   5.026   6.442   6.394  0.2483 -0.1147 -2.1981
 8871TIP3    H248105   5.137   6.341   6.372  1.0147 -0.0857  0.9950
 8872TIP3   OH248106   1.648   6.833  13.670  0.2621 -0.1681 -0.5397
 8872TIP3    H148107   1.580   6.840  13.738 -2.8316 -2.9283 -2.9978
 8872TIP3    H248108   1.669   6.924  13.647 -1.4941  0.8057  1.3668
 8873TIP3   OH248109   1.101   6.344   1.443  0.6718 -0.1713  0.1769
 8873TIP3    H148110   1.087   6.249   1.437  0.1580 -0.2357  1.7625
 8873TIP3    H248111   1.160   6.355   1.517  0.0544  0.7766  0.5583
 8874TIP3   OH248112   5.870   0.567   0.381 -0.0347  0.0840 -0.2211
 8874TIP3    H148113   5.928   0.641   0.399  0.9503 -0.2823 -1.8225
 8874TIP3    H248114   5.867   0.519   0.464 -0.8253  1.9630  0.9128
 8875TIP3   OH248115   3.437   3.326  16.927  0.3797  0.8332 -0.1258
 8875TIP3    H148116   3.450   3.231  16.929  1.3072  0.9616  0.8451
 8875TIP3    H248117   3.348   3.337  16.892  0.3817 -0.3693 -0.5806
 8876TIP3   OH248118   3.608   4.386  11.933 -0.5531  0.4523 -0.3421
 8876TIP3    H148119   3.663   4.447  11.982 -2.1200  0.6795  1.2850
 8876TIP3    H248120   3.657   4.366  11.854  1.8966  0.4828  1.0949
 8877TIP3   OH248121   4.758   3.681  10.700 -0.6441  0.1448  0.0611
 8877TIP3    H148122   4.666   3.672  10.723 -0.1638  0.0755  2.1582
 8877TIP3    H248123   4.791   3.591  10.698 -0.5162  0.1973 -0.2444
 8878TIP3   OH248124   5.075   3.686  15.318 -0.2919 -0.0256 -0.8155
 8878TIP3    H148125   5.158   3.641  15.299  0.0419 -0.4754  1.3765
 8878TIP3    H248126   5.029   3.627  15.378 -1.0749  1.3133 -0.0427
 8879TIP3   OH248127   1.093   5.808   0.352  1.0338 -0.3455  0.3248
 8879TIP3    H148128   1.179   5.815   0.391  1.1759  0.8944 -0.1664
 8879TIP3    H248129   1.040   5.873   0.398  0.6408 -0.3807 -0.0681
 8880TIP3   OH248130   0.188   6.614  15.270 -0.4802  0.3048 -0.1139
 8880TIP3    H148131   0.100   6.577  15.278 -1.3072  2.2779  0.7629
 8880TIP3    H248132   0.177   6.690  15.213  1.0671 -0.5161 -1.5733
 8881TIP3   OH248133   3.036   2.763  16.662 -0.1259 -0.1749 -0.4479
 8881TIP3    H148134   3.012   2.741  16.753 -0.9916 -1.1789 -0.8927
 8881TIP3    H248135   2.972   2.715  16.609  0.6588  0.0281 -1.6041
 8882TIP3   OH248136   4.393   0.741   2.571 -0.3653 -0.0199 -0.0765
 8882TIP3    H148137   4.341   0.669   2.606 -2.3117  1.6572  0.6485
 8882TIP3    H248138   4.460   0.757   2.638 -1.0708  0.0428  0.6203
 8883TIP3   OH248139   1.151   3.521  16.391 -0.8621 -0.3956  0.5000
 8883TIP3    H148140   1.071   3.503  16.343 -1.0471  0.7210  0.3498
 8883TIP3    H248141   1.219   3.529  16.323 -0.6945 -0.9650  0.5970
 8884TIP3   OH248142   3.983   2.336  12.836  0.3023  0.5400 -0.5591
 8884TIP3    H148143   3.960   2.373  12.922  1.1711  2.0338 -0.9343
 8884TIP3    H248144   4.040   2.402  12.796  1.2433 -0.8669 -1.6309
 8885TIP3   OH248145   3.320   3.162  15.048 -0.6130 -0.3032  0.1239
 8885TIP3    H148146   3.292   3.117  14.968 -1.9007  1.4575 -0.4748
 8885TIP3    H248147   3.277   3.115  15.119 -3.1443  0.7571 -0.5978
 8886TIP3   OH248148   0.182   0.456  11.999 -0.3301  0.6272  0.5450
 8886TIP3    H148149   0.196   0.422  12.088  0.2704  0.5654  0.4298
 8886TIP3    H248150   0.116   0.397  11.962  0.0724  0.1078  0.6432
 8887TIP3   OH248151   1.188   1.779  15.464  0.2554  0.2041  0.7994
 8887TIP3    H148152   1.095   1.786  15.441  0.6595 -1.9566 -2.1390
 8887TIP3    H248153   1.229   1.855  15.422  0.3384 -1.3564 -2.2521
 8888TIP3   OH248154   0.859   2.963   4.176 -0.0483 -0.2491  0.2278
 8888TIP3    H148155   0.812   2.933   4.254  0.1463 -1.2096 -0.0159
 8888TIP3    H248156   0.805   3.035   4.142  0.0288  0.3899  1.4082
 8889TIP3   OH248157   4.573   4.541   3.410  0.7961  0.1521  0.3912
 8889TIP3    H148158   4.594   4.611   3.348  3.8985 -1.9806 -1.2193
 8889TIP3    H248159   4.584   4.581   3.496  2.7615  1.6287 -0.4672
 8890TIP3   OH248160   2.427   5.457   2.571  0.0448  0.8689 -0.4473
 8890TIP3    H148161   2.499   5.492   2.623  0.6464 -0.9603  0.0303
 8890TIP3    H248162   2.348   5.486   2.616  0.3897  3.1824 -1.1573
 8891TIP3   OH248163   5.648   1.894  16.492  0.3074 -0.0888 -0.1238
 8891TIP3    H148164   5.652   1.977  16.445 -0.9865  0.4696  0.7008
 8891TIP3    H248165   5.718   1.841  16.453  1.3211  1.4592 -0.4936
 8892TIP3   OH248166   1.522   3.287  16.173  0.2074  0.8735  0.1247
 8892TIP3    H148167   1.610   3.252  16.164 -0.3089 -0.4365  0.0067
 8892TIP3    H248168   1.531   3.356  16.239  1.5953  1.8105 -0.9818
 8893TIP3   OH248169   1.087   4.344  11.962  0.1918  0.1503 -0.0159
 8893TIP3    H148170   1.173   4.341  12.004  1.0671 -0.2942 -1.7504
 8893TIP3    H248171   1.041   4.268  11.997  0.3019  0.6443  1.2755
 8894TIP3   OH248172   6.496   5.888  12.949 -0.0083  0.7874 -0.1033
 8894TIP3    H148173   6.431   5.919  12.886 -0.5324 -1.0406 -0.5442
 8894TIP3    H248174   6.444   5.865  13.026 -0.3835 -2.9919 -1.2892
 8895TIP3   OH248175   0.668   5.854   1.634  0.1842  0.3354  0.1565
 8895TIP3    H148176   0.658   5.895   1.548  0.9964  0.5751  0.1630
 8895TIP3    H248177   0.592   5.883   1.684  0.0497  0.7344 -0.2702
 8896TIP3   OH248178   4.449   0.496  15.046  0.0992  0.3323  0.5664
 8896TIP3    H148179   4.371   0.514  15.098 -0.6604 -1.8068  0.2297
 8896TIP3    H248180   4.435   0.546  14.966  0.0063  1.4725  1.2561
 8897TIP3   OH248181   4.443   4.444  13.659 -0.0838 -0.3605 -0.2108
 8897TIP3    H148182   4.514   4.508  13.668  0.1366 -0.6247 -0.0695
 8897TIP3    H248183   4.436   4.429  13.565 -0.2933  0.0507 -0.2606
 8898TIP3   OH248184   1.098   0.385   0.472  0.0221  0.7213  0.4351
 8898TIP3    H148185   1.128   0.387   0.562 -0.1318  2.0254  0.4708
 8898TIP3    H248186   1.176   0.365   0.421 -0.1326 -1.3635  0.9207
 8899TIP3   OH248187   2.009   1.478  14.035 -0.3428 -0.7092  0.1904
 8899TIP3    H148188   2.014   1.391  13.997  1.7741 -1.0820  1.1742
 8899TIP3    H248189   1.969   1.532  13.967  0.0687 -2.0442 -1.1576
 8900TIP3   OH248190   5.148   6.222   6.240  0.1057 -0.0406  0.1988
 8900TIP3    H148191   5.085   6.159   6.205  0.5861 -0.7210  0.5436
 8900TIP3    H248192   5.219   6.222   6.175 -0.2301  0.7038 -0.1768
 8901TIP3   OH248193   4.799   2.679  10.886  0.5299  0.8231  0.0607
 8901TIP3    H148194   4.861   2.620  10.844  0.9602  0.9095  0.5718
 8901TIP3    H248195   4.721   2.625  10.901  0.9521  0.3662  0.5972
 8902TIP3   OH248196   3.757   2.408   5.903 -0.1369  0.2303  0.3586
 8902TIP3    H148197   3.746   2.314   5.885  1.4465  0.1400 -0.2965
 8902TIP3    H248198   3.714   2.421   5.988 -1.2477 -0.8698  0.0098
 8903TIP3   OH248199   2.308   2.372   1.253  0.2926 -0.1467 -0.2922
 8903TIP3    H148200   2.304   2.300   1.191  0.3120  0.1778 -0.6708
 8903TIP3    H248201   2.387   2.354   1.305 -0.8622 -1.5704  1.0763
 8904TIP3   OH248202   4.230   0.773   1.581  0.3046 -0.2827 -0.0611
 8904TIP3    H148203   4.196   0.800   1.496  0.4890 -0.0043 -0.0500
 8904TIP3    H248204   4.295   0.706   1.561  0.2625 -0.3017 -0.1334
 8905TIP3   OH248205   3.257   1.637  10.152 -0.1027 -0.1842  0.1602
 8905TIP3    H148206   3.344   1.671  10.171 -0.0487 -0.4572  0.4142
 8905TIP3    H248207   3.198   1.710  10.170 -0.0004 -0.2606  0.8485
 8906TIP3   OH248208   1.977   1.525  16.165  0.6898 -0.5940 -0.2868
 8906TIP3    H148209   2.019   1.500  16.247 -1.2779 -0.1611  0.9033
 8906TIP3    H248210   1.938   1.611  16.182 -2.6914 -1.9217 -0.4375
 8907TIP3   OH248211   2.869   0.954  12.072  0.3324 -0.2386  0.2056
 8907TIP3    H148212   2.848   0.927  11.983 -1.7823  3.0198 -0.4444
 8907TIP3    H248213   2.959   0.987  12.067  1.0998 -2.2387 -0.0844
 8908TIP3   OH248214   6.149   5.914   4.994  0.3441 -0.7387 -0.4329
 8908TIP3    H148215   6.178   6.002   4.972 -0.7599  0.4056  2.2975
 8908TIP3    H248216   6.168   5.863   4.915  1.5629  1.7661 -1.9029
 8909TIP3   OH248217   2.276   6.150   2.958 -0.5974  0.9922 -0.1299
 8909TIP3    H148218   2.205   6.210   2.934  0.1290  1.9845  0.1093
 8909TIP3    H248219   2.241   6.063   2.940 -1.1075  1.5390 -2.0934
 8910TIP3   OH248220   0.469   5.333  11.452 -0.0509 -0.1390  0.1289
 8910TIP3    H148221   0.392   5.379  11.417 -0.8370 -0.7417  1.0025
 8910TIP3    H248222   0.432   5.263  11.506  1.1271 -0.7847  0.1271
 8911TIP3   OH248223   4.035   0.486   2.460 -0.5627  0.3240 -0.2625
 8911TIP3    H148224   4.005   0.505   2.549  1.0330 -0.4843  0.4931
 8911TIP3    H248225   4.050   0.391   2.460  1.0232  0.5498 -0.8674
 8912TIP3   OH248226   0.657   4.134  14.487 -0.8099  0.0147  0.5443
 8912TIP3    H148227   0.589   4.185  14.443 -1.4217 -1.0930  0.1882
 8912TIP3    H248228   0.736   4.188  14.479 -2.0302  2.3626  2.8624
 8913TIP3   OH248229   6.555   4.927  12.765  0.2945 -0.2379  0.5789
 8913TIP3    H148230   6.630   4.884  12.725 -0.3309  0.5433 -1.6113
 8913TIP3    H248231   6.495   4.943  12.692 -0.1738  2.9193  1.4718
 8914TIP3   OH248232   3.779   6.477  12.753  0.4987  0.8647  0.4879
 8914TIP3    H148233   3.708   6.541  12.760  0.4604  0.6726  2.0070
 8914TIP3    H248234   3.859   6.530  12.763  0.6247  1.0820 -1.2289
 8915TIP3   OH248235   0.807   2.193   4.817  0.7861  0.1811  0.9207
 8915TIP3    H148236   0.897   2.190   4.851  0.4373  2.9224  2.3488
 8915TIP3    H248237   0.777   2.281   4.837 -0.4914  1.2229 -4.2466
 8916TIP3   OH248238   3.569   4.569  15.311 -0.3066  0.5418 -0.4858
 8916TIP3    H148239   3.602   4.620  15.385 -0.1454 -0.7483  0.3720
 8916TIP3    H248240   3.488   4.613  15.286 -0.9208  0.4379  1.1603
 8917TIP3   OH248241   6.389   3.727   3.655 -0.4792 -0.1536 -0.0022
 8917TIP3    H148242   6.317   3.780   3.621  0.0412 -0.1881 -1.2121
 8917TIP3    H248243   6.458   3.734   3.589 -0.0074 -1.4872  0.3065
 8918TIP3   OH248244   3.692   4.862   6.487 -0.2139  0.0291 -0.2064
 8918TIP3    H148245   3.749   4.848   6.562  0.9536  0.2636 -1.0310
 8918TIP3    H248246   3.680   4.774   6.450 -0.3591 -0.0120 -0.0643
 8919TIP3   OH248247   2.818   2.664   4.167 -0.9253  0.0034 -0.0057
 8919TIP3    H148248   2.779   2.743   4.130 -0.0937  0.1317 -0.6317
 8919TIP3    H248249   2.911   2.670   4.144 -0.8049 -1.0253  0.1717
 8920TIP3   OH248250   1.853   0.878  13.247 -0.0429  0.3060 -0.0554
 8920TIP3    H148251   1.836   0.797  13.293  1.2807 -0.1912 -0.3860
 8920TIP3    H248252   1.813   0.946  13.301 -0.0071 -0.4362  0.9242
 8921TIP3   OH248253   5.493   4.682   5.603 -0.0039  1.0145 -0.1768
 8921TIP3    H148254   5.449   4.696   5.687 -1.0820  1.4295 -0.7827
 8921TIP3    H248255   5.575   4.638   5.625  0.3252  2.2398  1.2053
 8922TIP3   OH248256   5.902   5.195  15.432 -0.8135  0.2542 -0.6308
 8922TIP3    H148257   5.957   5.174  15.357 -0.9131  1.2167 -0.9989
 8922TIP3    H248258   5.825   5.236  15.394 -1.4566 -0.4243 -0.0727
 8923TIP3   OH248259   1.130   0.652  14.296 -0.0219 -0.5151 -0.1520
 8923TIP3    H148260   1.049   0.665  14.245 -1.0578  0.2661  1.6258
 8923TIP3    H248261   1.130   0.558  14.317 -0.4492 -0.5205 -0.1715
 8924TIP3   OH248262   1.379   0.499   2.976 -0.3644 -0.4440  0.4315
 8924TIP3    H148263   1.394   0.590   2.954 -0.4597  0.1139  2.4256
 8924TIP3    H248264   1.458   0.472   3.023 -0.4185 -1.3401  0.0391
 8925TIP3   OH248265   5.935   0.456  13.597 -0.1522 -0.1469  0.2996
 8925TIP3    H148266   5.998   0.437  13.667 -0.6441 -1.0088  0.5179
 8925TIP3    H248267   5.872   0.384  13.601  0.4929 -0.9125 -1.8259
 8926TIP3   OH248268   1.877   1.748  16.293 -0.4346 -0.1670 -0.1176
 8926TIP3    H148269   1.786   1.731  16.268 -0.5142 -0.5107  0.3724
 8926TIP3    H248270   1.884   1.843  16.298 -0.9336 -0.1502  0.4115
 8927TIP3   OH248271   4.516   2.580   5.370  0.2183  0.3998 -0.0348
 8927TIP3    H148272   4.471   2.518   5.427 -0.5460  0.2824 -0.7541
 8927TIP3    H248273   4.484   2.666   5.399 -0.5962  0.3055 -0.6564
 8928TIP3   OH248274   6.776   6.624   3.092 -0.0439  0.1476  0.1356
 8928TIP3    H148275   6.718   6.550   3.075  0.3973  0.1072 -1.3083
 8928TIP3    H248276   6.846   6.615   3.028  0.1464  1.6801  0.0828
 8929TIP3   OH248277   4.133   5.672   2.364  0.0068 -0.2380  0.1122
 8929TIP3    H148278   4.218   5.649   2.402 -0.5761  0.3869  1.8893
 8929TIP3    H248279   4.146   5.760   2.328  0.6634 -0.9756 -1.5339
 8930TIP3   OH248280   4.684   5.921  16.833 -0.2209 -0.0858 -0.4713
 8930TIP3    H148281   4.762   5.896  16.884 -0.2064 -0.2948 -0.5949
 8930TIP3    H248282   4.678   5.855  16.764 -0.5664 -0.1264 -0.4042
 8931TIP3   OH248283   3.783   5.883  14.409 -0.2006  0.3756  0.3079
 8931TIP3    H148284   3.694   5.869  14.376 -0.8153 -0.0618  2.0389
 8931TIP3    H248285   3.797   5.978  14.399 -0.1901  0.2203 -1.4858
 8932TIP3   OH248286   1.451   5.709   0.258  0.2471  0.0623  0.7569
 8932TIP3    H148287   1.424   5.635   0.204  1.4040  0.2379 -0.1000
 8932TIP3    H248288   1.379   5.721   0.320 -0.3927 -1.1508  0.2782
 8933TIP3   OH248289   4.233   6.303   2.414  0.0317  0.3664  0.6923
 8933TIP3    H148290   4.213   6.378   2.469 -0.7785  1.0763 -0.5344
 8933TIP3    H248291   4.185   6.230   2.453  0.7720  0.4727  1.8483
 8934TIP3   OH248292   0.289   1.100  11.610 -0.6869 -0.2438  0.2565
 8934TIP3    H148293   0.304   1.016  11.654 -0.2240 -0.3405 -0.0695
 8934TIP3    H248294   0.334   1.164  11.665 -1.1404 -0.1941  0.5683
 8935TIP3   OH248295   4.658   6.240  12.778 -0.2599 -0.2293  0.0865
 8935TIP3    H148296   4.626   6.152  12.757 -3.8206  0.5418  1.5443
 8935TIP3    H248297   4.652   6.288  12.695  1.3955 -1.1829 -0.6397
 8936TIP3   OH248298   2.162   3.027   5.533 -0.1737  0.1257  0.4639
 8936TIP3    H148299   2.238   3.018   5.589  0.3075 -0.4136 -0.2529
 8936TIP3    H248300   2.132   2.937   5.518  0.6993  0.0956 -1.4518
 8937TIP3   OH248301   2.426   0.132  13.870  0.8302 -0.0678  0.5012
 8937TIP3    H148302   2.480   0.194  13.821  0.1037 -0.0399 -0.2914
 8937TIP3    H248303   2.374   0.186  13.928 -1.0718  0.2776 -1.4134
 8938TIP3   OH248304   6.748   5.230  12.758  0.0514  0.0110 -0.2960
 8938TIP3    H148305   6.696   5.311  12.759 -0.0629 -0.0591 -0.4993
 8938TIP3    H248306   6.718   5.183  12.680 -1.6460 -1.3560  1.0918
 8939TIP3   OH248307   5.144   4.771  12.026 -0.1338  0.1691 -0.2943
 8939TIP3    H148308   5.149   4.866  12.038 -1.1095  0.0766  1.0798
 8939TIP3    H248309   5.163   4.757  11.933  0.2648  1.6784 -0.4637
 8940TIP3   OH248310   1.627   4.593   3.370 -0.6481  0.2848 -0.4889
 8940TIP3    H148311   1.574   4.656   3.419 -1.3242 -0.2748 -0.4920
 8940TIP3    H248312   1.624   4.625   3.280 -0.9490  0.2812 -0.4816
 8941TIP3   OH248313   5.278   4.048  12.085 -0.1410 -0.1680 -0.2078
 8941TIP3    H148314   5.273   4.119  12.021 -0.2459 -0.2355 -0.2740
 8941TIP3    H248315   5.198   4.056  12.137 -0.8397 -1.0973 -1.1101
 8942TIP3   OH248316   5.673   1.703   4.652 -0.0105 -0.0082  0.4093
 8942TIP3    H148317   5.670   1.608   4.641 -1.9129  0.1271 -0.6824
 8942TIP3    H248318   5.689   1.736   4.564  0.3500  0.6977  0.7364
 8943TIP3   OH248319   3.643   2.695  13.531  0.0950  0.5668  0.2820
 8943TIP3    H148320   3.726   2.677  13.576 -1.9761 -1.5561  3.7318
 8943TIP3    H248321   3.589   2.736  13.598 -2.8146 -1.5520 -0.5684
 8944TIP3   OH248322   0.230   6.398  17.083 -1.1853  0.1928  0.2240
 8944TIP3    H148323   0.239   6.303  17.091 -2.4534  0.0679  0.3203
 8944TIP3    H248324   0.169   6.410  17.011  1.1389  1.0383 -1.7552
 8945TIP3   OH248325   1.701   3.016  14.642  0.2838 -0.0355  0.0950
 8945TIP3    H148326   1.778   3.071  14.626 -0.8906  1.3587 -1.0216
 8945TIP3    H248327   1.668   3.046  14.727  1.3044 -1.0793  0.8840
 8946TIP3   OH248328   1.373   2.819  14.510 -0.2804  0.3403 -0.2609
 8946TIP3    H148329   1.444   2.794  14.570 -0.2462  0.1409 -0.3834
 8946TIP3    H248330   1.412   2.881  14.450 -0.0812 -0.1430 -0.6327
 8947TIP3   OH248331   4.840   2.670  13.319 -0.5751  0.0769  0.2679
 8947TIP3    H148332   4.903   2.742  13.312 -0.7602  0.4203  1.8489
 8947TIP3    H248333   4.895   2.592  13.329 -0.3897  0.1498 -0.1400
 8948TIP3   OH248334   0.950   1.441   4.561 -0.0762 -0.1968 -0.2730
 8948TIP3    H148335   1.018   1.384   4.598 -0.0758  0.5520  0.9254
 8948TIP3    H248336   0.981   1.460   4.472 -0.4611 -2.6733 -1.0271
 8949TIP3   OH248337   3.344   0.705  11.457  0.1976  0.6677 -0.3530
 8949TIP3    H148338   3.395   0.783  11.478  0.8100  0.6174 -1.5808
 8949TIP3    H248339   3.309   0.721  11.369  0.2513 -0.3946 -0.5875
 8950TIP3   OH248340   0.381   3.362  14.476 -0.0865 -0.3367  0.6865
 8950TIP3    H148341   0.332   3.288  14.440  0.9736 -0.3839 -0.7573
 8950TIP3    H248342   0.337   3.440  14.442 -1.7343 -0.2154  2.9107
 8951TIP3   OH248343   0.946   1.558   1.754 -0.1695  0.5576 -0.1564
 8951TIP3    H148344   1.029   1.594   1.722 -0.0756 -0.1305 -0.7160
 8951TIP3    H248345   0.970   1.473   1.791 -0.3786  1.0586  1.2134
 8952TIP3   OH248346   6.387   5.239   0.592 -0.0244 -0.2929 -0.3831
 8952TIP3    H148347   6.322   5.308   0.590 -0.7433 -0.9330  0.1126
 8952TIP3    H248348   6.467   5.280   0.560 -0.7789  0.3820 -1.4475
 8953TIP3   OH248349   5.921   1.364  11.323  0.4837  0.3343 -0.0077
 8953TIP3    H148350   5.957   1.405  11.245  0.8261  1.3992  0.6949
 8953TIP3    H248351   5.904   1.436  11.383  0.4511 -0.4859  0.9966
 8954TIP3   OH248352   0.937   5.811  14.145  0.7871  0.0674  0.1667
 8954TIP3    H148353   0.914   5.849  14.229 -0.5117  2.2770 -1.0968
 8954TIP3    H248354   0.855   5.773  14.112  1.1637 -0.3450 -0.3314
 8955TIP3   OH248355   3.715   4.223   4.614 -0.2321  0.6494  0.1710
 8955TIP3    H148356   3.718   4.138   4.571  0.2659  0.4978  0.5074
 8955TIP3    H248357   3.781   4.276   4.568  0.9472  0.2160  1.3132
 8956TIP3   OH248358   5.258   4.969   5.347 -0.2186 -0.6826  0.2949
 8956TIP3    H148359   5.212   4.931   5.272  0.5340 -0.1149 -0.4820
 8956TIP3    H248360   5.318   5.033   5.308  2.0270 -2.1358  1.1173
 8957TIP3   OH248361   1.535   1.688   3.352  0.0013 -0.4074 -0.2550
 8957TIP3    H148362   1.579   1.761   3.308  0.3735 -1.0433 -0.9698
 8957TIP3    H248363   1.578   1.610   3.316 -2.7164 -1.1474 -2.1658
 8958TIP3   OH248364   3.678   1.988  13.125  0.2196  0.0750  0.0083
 8958TIP3    H148365   3.639   2.028  13.047 -0.3659 -1.6225 -0.6164
 8958TIP3    H248366   3.763   1.957  13.095 -1.1155 -3.1807 -0.9042
 8959TIP3   OH248367   2.467   5.152   1.217  0.4785  0.1187 -0.0416
 8959TIP3    H148368   2.443   5.161   1.309  0.6815  0.4470 -0.0210
 8959TIP3    H248369   2.394   5.103   1.178 -0.0092  0.7113  0.1174
 8960TIP3   OH248370   3.963   6.650   0.461  0.0763 -0.0375  0.4449
 8960TIP3    H148371   3.927   6.563   0.444 -0.7652  0.2605  0.6608
 8960TIP3    H248372   3.978   6.652   0.555  0.3861 -0.0554  0.3970
 8961TIP3   OH248373   0.409   2.680  11.457 -0.3510  0.3032 -0.4792
 8961TIP3    H148374   0.394   2.742  11.386 -3.0435  0.2301 -0.0967
 8961TIP3    H248375   0.321   2.657  11.488  0.3991 -3.9135 -0.7733
 8962TIP3   OH248376   5.364   2.293   1.080  0.2735  0.1993 -0.6970
 8962TIP3    H148377   5.460   2.285   1.081  0.3324  0.8464 -0.0532
 8962TIP3    H248378   5.343   2.329   1.166 -0.4879  0.8235 -1.1404
 8963TIP3   OH248379   5.799   4.676  11.583 -0.5879 -0.4983  0.4087
 8963TIP3    H148380   5.760   4.720  11.508 -0.0944  1.4374  1.2231
 8963TIP3    H248381   5.863   4.616  11.546 -0.1915  0.5909 -0.7255
 8964TIP3   OH248382   5.652   2.685   3.109 -0.0344  0.3437  0.1551
 8964TIP3    H148383   5.701   2.652   3.034  0.3530  0.5823  0.3031
 8964TIP3    H248384   5.655   2.615   3.174 -0.9333 -0.1319 -0.2960
 8965TIP3   OH248385   1.135   0.230   4.652  0.6188 -0.0833 -0.3961
 8965TIP3    H148386   1.141   0.324   4.634  0.3788 -0.1570 -0.8704
 8965TIP3    H248387   1.096   0.193   4.573 -0.8242 -0.3621  0.4092
 8966TIP3   OH248388   1.479   4.591  15.190  0.4030  0.1839 -0.2339
 8966TIP3    H148389   1.490   4.505  15.151  1.7375 -0.6377  1.8260
 8966TIP3    H248390   1.480   4.651  15.115 -1.2625 -1.5606 -1.7899
 8967TIP3   OH248391   0.263   2.236   2.534 -0.4988  0.2454  0.2111
 8967TIP3    H148392   0.321   2.178   2.583 -0.7212 -0.3790 -0.2320
 8967TIP3    H248393   0.317   2.311   2.510 -0.1715  0.1714  0.7043
 8968TIP3   OH248394   5.789   5.535   4.983 -0.0657  0.4940 -0.4040
 8968TIP3    H148395   5.808   5.570   5.070 -3.1275  0.7307  0.2622
 8968TIP3    H248396   5.729   5.599   4.944  0.0588 -0.3811 -2.0960
 8969TIP3   OH248397   4.555   0.969   0.923 -0.1562  0.3296  0.6118
 8969TIP3    H148398   4.586   0.887   0.960 -0.9875  0.7012  2.2023
 8969TIP3    H248399   4.498   0.942   0.850  2.4297 -0.3773 -1.2998
 8970TIP3   OH248400   5.771   2.012   2.195 -0.1171  0.6500  0.7323
 8970TIP3    H148401   5.826   1.990   2.120 -1.6253  2.5394 -1.0335
 8970TIP3    H248402   5.718   1.934   2.210 -0.5470  0.5768 -0.9225
 8971TIP3   OH248403   5.926   6.298   1.576 -0.7840  0.0242 -0.3977
 8971TIP3    H148404   5.965   6.216   1.607 -0.0378 -0.0429 -1.4470
 8971TIP3    H248405   5.986   6.328   1.508 -0.3769  2.0674  0.7745
 8972TIP3   OH248406   6.298   3.284  15.647  0.1181 -0.1432  0.1827
 8972TIP3    H148407   6.259   3.292  15.560  1.1451 -1.2432 -0.4182
 8972TIP3    H248408   6.229   3.244  15.701  0.1277 -1.3275 -0.6505
 8973TIP3   OH248409   6.600   0.849   0.371 -0.0134 -0.2115 -0.0551
 8973TIP3    H148410   6.595   0.886   0.283 -0.3859 -1.8346 -0.7561
 8973TIP3    H248411   6.687   0.872   0.403 -0.1187  0.9439 -0.5781
 8974TIP3   OH248412   3.951   1.790   4.245  0.2408  0.0841  0.7469
 8974TIP3    H148413   3.911   1.744   4.171 -1.9210 -0.6938  2.3017
 8974TIP3    H248414   4.028   1.832   4.207 -1.5072  0.9118 -2.2472
 8975TIP3   OH248415   0.382   5.404   4.811 -0.0959  0.0200 -0.0628
 8975TIP3    H148416   0.313   5.400   4.877  0.0111  1.8380  0.2179
 8975TIP3    H248417   0.342   5.450   4.738  0.8191  1.2080  0.1525
 8976TIP3   OH248418   0.054   2.162   0.240 -0.3499  0.3102 -0.0218
 8976TIP3    H148419   0.064   2.067   0.242 -1.8449  0.1414  1.3191
 8976TIP3    H248420   0.107   2.193   0.314  1.0266  0.6514 -1.1156
 8977TIP3   OH248421   2.287   3.994  14.761 -0.0930 -0.3133 -0.5788
 8977TIP3    H148422   2.337   4.076  14.764  1.4988 -1.1363 -2.5290
 8977TIP3    H248423   2.354   3.925  14.764 -1.4187 -1.6461  1.7658
 8978TIP3   OH248424   2.233   5.012  15.276 -0.5051 -0.0095 -0.1202
 8978TIP3    H148425   2.261   5.080  15.338  0.7051  3.1466 -3.7161
 8978TIP3    H248426   2.315   4.969  15.250 -0.8529 -0.5067 -0.4061
 8979TIP3   OH248427   2.230   4.971  16.571  0.0745 -0.3417  0.2230
 8979TIP3    H148428   2.302   4.984  16.509  1.5126  1.2605  2.0700
 8979TIP3    H248429   2.169   5.042  16.553  0.1718 -0.2582  0.2202
 8980TIP3   OH248430   2.781   3.099  16.832 -0.4169  0.4267 -0.4803
 8980TIP3    H148431   2.818   3.186  16.820  0.1669 -0.0567 -2.4269
 8980TIP3    H248432   2.844   3.053  16.889 -0.0925  0.8720 -0.4808
 8981TIP3   OH248433   0.564   0.390  14.764 -0.7538  0.9365  0.3574
 8981TIP3    H148434   0.524   0.462  14.716 -0.7141 -0.0652 -1.2439
 8981TIP3    H248435   0.556   0.415  14.856 -1.6017  2.5175 -0.1163
 8982TIP3   OH248436   3.969   1.371   0.305  0.4509  0.4073 -0.1509
 8982TIP3    H148437   3.930   1.290   0.271  0.1270  0.5775 -0.1895
 8982TIP3    H248438   3.975   1.428   0.228 -0.4623  0.8663  0.1005
 8983TIP3   OH248439   3.593   6.533  11.687  0.7493  0.0791 -0.3630
 8983TIP3    H148440   3.651   6.606  11.709 -0.1541  0.7870 -0.3033
 8983TIP3    H248441   3.635   6.492  11.611  1.1725  0.7595 -0.5057
 8984TIP3   OH248442   1.518   2.307  12.155  0.3944 -0.0104 -0.3883
 8984TIP3    H148443   1.484   2.307  12.065  3.1874  1.3062 -1.5891
 8984TIP3    H248444   1.503   2.396  12.186  0.2315 -0.2187  0.1434
 8985TIP3   OH248445   6.331   5.502  12.084 -0.4017  0.0121  0.5637
 8985TIP3    H148446   6.327   5.558  12.006 -0.7839  0.6404  1.0203
 8985TIP3    H248447   6.399   5.437  12.064 -1.8564 -1.0706 -1.0722
 8986TIP3   OH248448   6.355   2.109   0.087 -0.0969 -0.0193 -0.2498
 8986TIP3    H148449   6.334   2.202   0.088  0.0305  0.0281  1.4914
 8986TIP3    H248450   6.272   2.066   0.110  0.6586 -0.0500  2.8653
 8987TIP3   OH248451   0.775   0.011  10.866 -0.0304  0.2141 -0.0672
 8987TIP3    H148452   0.802  -0.079  10.850  1.0924  0.5403 -0.0893
 8987TIP3    H248453   0.857   0.061  10.868 -0.5888  1.1412  0.5381
 8988TIP3   OH248454   3.518   3.119  16.455  0.5585 -0.4110  0.5898
 8988TIP3    H148455   3.578   3.097  16.526  0.4997  1.1790  1.1812
 8988TIP3    H248456   3.436   3.141  16.499  0.7102  1.2351  0.1184
 8989TIP3   OH248457   2.136   2.260  16.668  0.3656 -0.2519  0.1665
 8989TIP3    H148458   2.167   2.181  16.710 -0.4361 -1.6696 -1.7521
 8989TIP3    H248459   2.108   2.317  16.740 -1.2766 -2.6509  1.5469
 8990TIP3   OH248460   1.004   2.268  14.731 -0.5530  0.2147  0.1876
 8990TIP3    H148461   1.025   2.357  14.703 -0.9023  0.0387 -0.6469
 8990TIP3    H248462   1.089   2.230  14.755 -0.5112  1.0761  1.5033
 8991TIP3   OH248463   5.248   1.272   1.990  0.3724 -0.1003 -0.3513
 8991TIP3    H148464   5.254   1.215   2.066  1.5526 -0.0304 -0.3839
 8991TIP3    H248465   5.276   1.358   2.022 -0.2008  0.1859 -0.6015
 8992TIP3   OH248466   1.779   3.223  16.199 -0.0737  0.2080 -0.2219
 8992TIP3    H148467   1.865   3.182  16.197 -0.2031 -0.1056 -2.7143
 8992TIP3    H248468   1.796   3.313  16.229  0.7245 -0.5023  1.6162
 8993TIP3   OH248469   4.293   6.214  15.937  0.0454 -0.1546  0.1082
 8993TIP3    H148470   4.354   6.181  16.003 -0.8449  1.5730  1.8798
 8993TIP3    H248471   4.242   6.281  15.982 -0.8583  0.8599 -2.2452
 8994TIP3   OH248472   6.748   6.719  15.607 -0.1621  0.0818 -0.2814
 8994TIP3    H148473   6.789   6.777  15.543 -0.2500  0.4644  0.0043
 8994TIP3    H248474   6.710   6.778  15.672  1.2138 -0.2950  0.9426
 8995TIP3   OH248475   3.876   3.083   1.798  0.0904 -0.1602  0.3868
 8995TIP3    H148476   3.959   3.123   1.826  0.0890 -0.4664  0.8341
 8995TIP3    H248477   3.900   2.995   1.769  0.0562  0.0723 -0.3720
 8996TIP3   OH248478   5.166   2.608   1.682  0.5037  0.3343  0.2480
 8996TIP3    H148479   5.136   2.683   1.630 -0.5143  0.4812  1.0351
 8996TIP3    H248480   5.180   2.644   1.770  0.3751 -0.3226  0.5382
 8997TIP3   OH248481   1.611   1.337  11.720 -0.0486 -0.1429  0.3929
 8997TIP3    H148482   1.614   1.355  11.814 -2.0047  1.0064  0.3127
 8997TIP3    H248483   1.605   1.424  11.680 -1.8573 -0.6710 -0.5873
 8998TIP3   OH248484   5.842   6.182   1.106 -0.3547  0.9819 -0.0909
 8998TIP3    H148485   5.832   6.161   1.013  0.2764 -1.8118  0.3872
 8998TIP3    H248486   5.937   6.191   1.118 -0.2557 -0.6705  0.6064
 8999TIP3   OH248487   5.747   5.677  12.839  0.4038  0.1169  0.6586
 8999TIP3    H148488   5.838   5.659  12.813  0.5875  0.8113  0.7933
 8999TIP3    H248489   5.717   5.595  12.878  0.3523 -0.7149 -1.0481
 9000TIP3   OH248490   0.803   0.855   2.903  0.5873 -0.0929  0.3211
 9000TIP3    H148491   0.875   0.836   2.842  0.3633 -2.5162  0.7032
 9000TIP3    H248492   0.841   0.913   2.968  1.3370  1.0860 -1.1168
 9001TIP3   OH248493   0.967   5.192   2.057 -0.1391 -0.1640 -0.2245
 9001TIP3    H148494   0.876   5.167   2.071 -0.0555  0.0438  0.7244
 9001TIP3    H248495   0.968   5.229   1.968 -0.6898 -1.4801 -0.8069
 9002TIP3   OH248496   2.299   0.798   1.378 -0.3180  0.6115  0.5023
 9002TIP3    H148497   2.275   0.763   1.292  2.3764  1.3782 -0.6574
 9002TIP3    H248498   2.234   0.866   1.396  0.0392  1.6201 -1.7677
 9003TIP3   OH248499   3.874   0.435   0.687 -0.0694  0.3357 -0.3267
 9003TIP3    H148500   3.793   0.385   0.694  0.4570 -0.3389  1.7246
 9003TIP3    H248501   3.845   0.525   0.673 -1.0578 -0.2387 -2.3590
 9004TIP3   OH248502   5.842   2.087   6.216  0.0641 -0.2810 -0.1854
 9004TIP3    H148503   5.753   2.078   6.182 -0.7889  1.1846  1.4802
 9004TIP3    H248504   5.846   2.178   6.246  2.8956  0.4088 -2.2168
 9005TIP3   OH248505   3.258   2.052  15.554  0.5710  0.5291 -0.1013
 9005TIP3    H148506   3.285   2.143  15.565  0.0792  0.5690  0.8589
 9005TIP3    H248507   3.213   2.030  15.636  0.8921 -0.6504 -0.2262
 9006TIP3   OH248508   3.620   0.212   5.559 -0.0841  0.8858 -0.2425
 9006TIP3    H148509   3.538   0.162   5.567  0.1553  0.5971  0.4843
 9006TIP3    H248510   3.604   0.293   5.607 -0.3164  1.3344 -1.0459
 9007TIP3   OH248511   1.697   3.406  14.755  0.3821  0.1102  0.4547
 9007TIP3    H148512   1.703   3.495  14.790 -1.7340 -0.0200  1.3053
 9007TIP3    H248513   1.654   3.417  14.670  0.1117 -0.0836  0.5641
 9008TIP3   OH248514   3.746   5.982  11.773  0.2783  0.9343 -0.0569
 9008TIP3    H148515   3.686   6.055  11.760 -1.6523 -0.6024 -0.3044
 9008TIP3    H248516   3.707   5.932  11.845  0.5522 -0.7853 -1.0491
 9009TIP3   OH248517   1.043   6.503  12.356  0.6069 -0.3708  0.2486
 9009TIP3    H148518   1.122   6.556  12.361  0.3493 -0.0510  1.1554
 9009TIP3    H248519   1.074   6.412  12.356  1.0927 -0.2606 -2.0877
 9010TIP3   OH248520   2.545   6.171   1.832  0.4709 -0.2844  0.1895
 9010TIP3    H148521   2.568   6.131   1.915 -1.1278 -0.1088  0.7626
 9010TIP3    H248522   2.451   6.153   1.822 -0.1909  2.6767  0.1651
 9011TIP3   OH248523   5.238   0.255  14.912  0.5530 -0.1275 -0.5262
 9011TIP3    H148524   5.208   0.190  14.976  0.7278  1.5055  1.3245
 9011TIP3    H248525   5.208   0.221  14.828 -3.6045 -0.3345  0.7813
 9012TIP3   OH248526   2.613   2.508  13.522 -0.4485 -0.6613 -0.2337
 9012TIP3    H148527   2.551   2.437  13.508  0.4516 -1.7605  1.0762
 9012TIP3    H248528   2.697   2.465  13.535  0.6070  0.7854 -1.7872
 9013TIP3   OH248529   1.424   5.396  14.177  0.1133  0.0411  0.4547
 9013TIP3    H148530   1.379   5.317  14.205  0.4833 -0.1963  0.3912
 9013TIP3    H248531   1.358   5.445  14.128 -0.9916  1.1313  2.8582
 9014TIP3   OH248532   4.009   6.194  16.228  0.1289 -0.0666  0.0590
 9014TIP3    H148533   4.000   6.199  16.323 -2.1217  1.1672 -0.1568
 9014TIP3    H248534   3.977   6.106  16.206 -1.9185  0.5763  0.2663
 9015TIP3   OH248535   3.574   0.566  12.353  0.3445  0.0978 -0.0436
 9015TIP3    H148536   3.545   0.514  12.278  0.0951 -0.4672  0.4412
 9015TIP3    H248537   3.511   0.638  12.358  0.8771  0.6577 -0.9128
 9016TIP3   OH248538   5.893   3.423  14.221 -0.1319 -0.1711  0.2495
 9016TIP3    H148539   5.838   3.383  14.153 -0.8488  0.8395  0.2104
 9016TIP3    H248540   5.983   3.404  14.193 -0.4403 -1.4887  0.0884
 9017TIP3   OH248541   1.977   2.362   3.379  0.2237 -1.1269 -0.4112
 9017TIP3    H148542   2.023   2.438   3.413  3.1678 -2.2704 -1.5011
 9017TIP3    H248543   1.987   2.368   3.284 -1.8562 -1.5157 -0.7015
 9018TIP3   OH248544   6.403   2.015   2.826 -0.1092 -0.1109 -0.9927
 9018TIP3    H148545   6.443   2.086   2.878 -1.2381  0.0266 -0.2785
 9018TIP3    H248546   6.439   2.027   2.738  2.4908 -0.8338 -0.1303
 9019TIP3   OH248547   2.569   0.277  14.781  0.4308 -0.0564  0.4901
 9019TIP3    H148548   2.593   0.190  14.751  0.3594  0.3246 -0.7110
 9019TIP3    H248549   2.605   0.336  14.715 -2.3069  0.6394 -0.4934
 9020TIP3   OH248550   2.939   4.735   5.031  0.1790  0.7275 -0.0324
 9020TIP3    H148551   2.996   4.699   5.099  2.7575 -0.2313 -2.5352
 9020TIP3    H248552   2.984   4.814   5.001 -0.7841  0.9972 -0.8114
 9021TIP3   OH248553   6.732   6.029   1.142 -0.0872  0.5926  0.4422
 9021TIP3    H148554   6.703   6.078   1.219  0.5844  1.0725  0.3972
 9021TIP3    H248555   6.815   6.070   1.117 -1.1091  1.6203 -1.5988
 9022TIP3   OH248556   6.032   4.438   5.789 -0.7856  0.1209  0.5117
 9022TIP3    H148557   6.122   4.412   5.808 -1.2836 -1.2288  1.1224
 9022TIP3    H248558   5.979   4.364   5.817 -2.0365  0.5413 -0.6448
 9023TIP3   OH248559   3.214   1.008  15.441  0.0376 -0.0141  0.1588
 9023TIP3    H148560   3.213   1.052  15.525 -1.5707 -3.0181  1.9076
 9023TIP3    H248561   3.156   1.060  15.385  1.1105  2.0031  0.8680
 9024TIP3   OH248562   6.281   3.338  11.736 -0.3726 -0.1056 -0.0788
 9024TIP3    H148563   6.255   3.286  11.812 -1.0295  0.1833 -0.0944
 9024TIP3    H248564   6.260   3.284  11.660 -0.6704  0.0108 -0.0819
 9025TIP3   OH248565   3.438   4.296  10.193 -0.1721  0.1704  0.3523
 9025TIP3    H148566   3.386   4.363  10.238 -0.1106  0.7597 -0.4396
 9025TIP3    H248567   3.380   4.261  10.126  0.0943  0.0633  0.1762
 9026TIP3   OH248568   3.835   1.012   1.878 -0.1309 -0.2876  0.7514
 9026TIP3    H148569   3.826   1.030   1.972 -0.7388  2.5182  0.2400
 9026TIP3    H248570   3.745   1.015   1.844  0.0828 -1.2945  0.0700
 9027TIP3   OH248571   6.140   0.582  15.599 -0.3340 -0.4200 -0.7550
 9027TIP3    H148572   6.111   0.609  15.512  3.0157 -1.0534 -2.2149
 9027TIP3    H248573   6.144   0.487  15.595 -0.2200 -0.4590  0.1363
 9028TIP3   OH248574   4.831   5.047  12.204 -0.0817 -0.0753  0.7025
 9028TIP3    H148575   4.778   5.054  12.125 -1.0247  0.2954  1.3482
 9028TIP3    H248576   4.921   5.044  12.173 -0.4182  0.4835 -0.3547
 9029TIP3   OH248577   5.494   1.551  15.200 -0.2116  0.5906 -0.3498
 9029TIP3    H148578   5.572   1.584  15.245 -0.5593 -0.8190  1.3995
 9029TIP3    H248579   5.529   1.495  15.131  0.3834 -0.5588  0.8237
 9030TIP3   OH248580   5.293   4.416  15.122 -0.2329 -0.1982 -0.6771
 9030TIP3    H148581   5.347   4.378  15.192 -0.4699 -0.2542 -0.5253
 9030TIP3    H248582   5.356   4.462  15.067 -0.0717  0.0374 -0.3032
 9031TIP3   OH248583   3.831   4.542   4.008 -0.1241 -0.0350  0.0148
 9031TIP3    H148584   3.861   4.623   4.050 -2.7668  1.6160 -1.0887
 9031TIP3    H248585   3.905   4.515   3.954  0.8245  1.6398  0.4041
 9032TIP3   OH248586   2.597   3.362   1.562 -0.3085 -0.1924 -0.1271
 9032TIP3    H148587   2.683   3.378   1.600 -0.3018 -0.5240  0.0065
 9032TIP3    H248588   2.542   3.434   1.595 -0.4444 -0.7766  0.9927
 9033TIP3   OH248589   4.577   6.318   0.386  0.1433  0.2590  0.7884
 9033TIP3    H148590   4.519   6.281   0.454  0.0612  2.0997  1.8022
 9033TIP3    H248591   4.546   6.408   0.376  0.3500  0.1242 -1.5403
 9034TIP3   OH248592   2.832   1.222   1.734  0.0404 -0.1364  0.2764
 9034TIP3    H148593   2.754   1.191   1.780 -1.2258  0.2729 -1.5250
 9034TIP3    H248594   2.877   1.142   1.707 -1.5893 -0.4852 -1.6317
 9035TIP3   OH248595   0.987   3.129  13.829 -0.6101  0.1865 -0.1012
 9035TIP3    H148596   0.928   3.070  13.876 -0.0365 -0.8786 -0.6809
 9035TIP3    H248597   1.032   3.177  13.898 -2.1904  1.0854  0.3531
 9036TIP3   OH248598   3.275   3.924  15.536  0.1029 -1.0272 -0.3415
 9036TIP3    H148599   3.368   3.941  15.525  0.0110  0.8709  1.1774
 9036TIP3    H248600   3.247   3.987  15.603 -2.0686 -2.1998 -0.0392
 9037TIP3   OH248601   2.114   5.807   0.748 -0.3563 -0.1055 -0.5060
 9037TIP3    H148602   2.032   5.770   0.715  0.6901 -2.2632 -0.9004
 9037TIP3    H248603   2.177   5.794   0.677  0.6535  0.2461  0.2959
 9038TIP3   OH248604   1.515   4.649   3.897  0.0504 -0.0135 -0.0032
 9038TIP3    H148605   1.544   4.738   3.916 -0.4599  0.6423 -2.0296
 9038TIP3    H248606   1.591   4.594   3.918  0.1743  0.7844  1.8391
 9039TIP3   OH248607   2.648   6.793  15.129  0.4270 -0.3861 -0.3608
 9039TIP3    H148608   2.687   6.878  15.110  3.0042 -0.3736  3.6981
 9039TIP3    H248609   2.561   6.814  15.164  0.6551  0.4998 -0.3127
 9040TIP3   OH248610   2.604   1.488   2.394  0.6411  0.4048 -0.1187
 9040TIP3    H148611   2.585   1.394   2.392 -1.4511  0.7711 -0.0602
 9040TIP3    H248612   2.595   1.513   2.486  0.3180  0.8002 -0.2522
 9041TIP3   OH248613   3.388   5.837  11.044 -0.0989  0.2431  0.2947
 9041TIP3    H148614   3.332   5.909  11.075  0.8176  1.3031 -0.4083
 9041TIP3    H248615   3.441   5.813  11.120  1.4958  2.2066 -0.0839
 9042TIP3   OH248616   5.350   5.548  17.058  0.2633 -0.2290 -0.2188
 9042TIP3    H148617   5.280   5.561  16.994  0.6318 -0.9030 -0.7682
 9042TIP3    H248618   5.309   5.567  17.142 -0.1245  1.0574 -0.6712
 9043TIP3   OH248619   3.790   1.002  10.572 -0.0628  0.2671 -0.2578
 9043TIP3    H148620   3.863   1.040  10.523  1.0559 -0.6557  0.6489
 9043TIP3    H248621   3.806   0.907  10.568 -1.0938  0.0709  0.1454
 9044TIP3   OH248622   0.952   3.056   5.728  0.0663  0.3387  0.7575
 9044TIP3    H148623   0.969   3.115   5.654 -1.0695  1.9750  1.7510
 9044TIP3    H248624   1.034   3.055   5.777  0.8907 -0.8952 -0.5544
 9045TIP3   OH248625   0.910   2.814  14.936 -0.3863 -0.0201  0.5332
 9045TIP3    H148626   0.910   2.840  14.844 -1.8337  1.0194  0.7924
 9045TIP3    H248627   0.820   2.785  14.953  0.1426 -1.2891  1.3530
 9046TIP3   OH248628   4.539   1.482  13.701 -0.0951 -0.2036  0.1569
 9046TIP3    H148629   4.631   1.457  13.692  0.0644 -0.0689  1.3449
 9046TIP3    H248630   4.513   1.449  13.787 -1.0335  0.1649  0.0263
 9047TIP3   OH248631   1.412   0.962   2.460 -0.0216  0.0266  0.1153
 9047TIP3    H148632   1.409   0.953   2.555 -0.5987 -0.5002  0.0559
 9047TIP3    H248633   1.367   0.883   2.427  2.1259 -0.9656 -0.6385
 9048TIP3   OH248634   2.661   1.858  16.410 -0.2757  0.1413  0.0447
 9048TIP3    H148635   2.636   1.787  16.351 -2.0235  0.1725  0.6848
 9048TIP3    H248636   2.712   1.815  16.479 -1.3507 -0.5331  0.4451
 9049TIP3   OH248637   4.496   2.843  13.495  0.1670  0.4871 -0.0408
 9049TIP3    H148638   4.567   2.902  13.520  1.6058 -1.0128 -0.4251
 9049TIP3    H248639   4.520   2.812  13.408 -1.5974  0.8372 -0.7038
 9050TIP3   OH248640   3.809   4.530  12.061  0.4468  0.0303  0.0391
 9050TIP3    H148641   3.824   4.613  12.106 -0.7225 -0.6726  1.8305
 9050TIP3    H248642   3.863   4.466  12.108 -0.4613 -0.6389  0.2119
 9051TIP3   OH248643   6.722   4.393   4.258  0.2342  0.2245  0.5558
 9051TIP3    H148644   6.728   4.376   4.352 -0.3037  1.8934  0.9251
 9051TIP3    H248645   6.797   4.348   4.220 -1.1152 -3.0052  1.3485
 9052TIP3   OH248646   5.336   3.910  15.906 -0.7603  0.2257 -0.0947
 9052TIP3    H148647   5.245   3.881  15.919  0.0833 -2.5986  0.3046
 9052TIP3    H248648   5.357   3.882  15.817 -0.1583  0.4299 -0.0177
 9053TIP3   OH248649   6.700   5.626   5.563 -0.1023  0.1444  0.3707
 9053TIP3    H148650   6.719   5.720   5.568  0.1469  0.1064  0.1746
 9053TIP3    H248651   6.773   5.585   5.610 -0.5897  0.0849  1.1035
 9054TIP3   OH248652   2.067   4.751  10.298  0.1379 -0.3229  0.0776
 9054TIP3    H148653   2.007   4.825  10.307  0.7825  0.1355  0.7152
 9054TIP3    H248654   2.154   4.791  10.292  0.3743 -0.9647 -1.0838
 9055TIP3   OH248655   5.842   5.670   2.531  0.0668  0.4723 -0.7673
 9055TIP3    H148656   5.877   5.594   2.578 -1.1871 -1.4923 -2.7676
 9055TIP3    H248657   5.839   5.740   2.596  0.4211 -1.4575  1.4508
 9056TIP3   OH248658   3.522   4.491  11.164  0.4960  0.0772 -0.2018
 9056TIP3    H148659   3.510   4.406  11.205 -0.9176 -0.0874 -0.8834
 9056TIP3    H248660   3.544   4.550  11.237 -0.1911 -0.5513  0.5359
 9057TIP3   OH248661   3.055   6.045  16.470  0.0894 -0.0556 -0.0039
 9057TIP3    H148662   3.036   5.987  16.544 -1.4054 -0.0693 -0.3606
 9057TIP3    H248663   2.974   6.045  16.419  0.5065  1.3431 -0.6989
 9058TIP3   OH248664   0.449   3.776   6.551  0.7501  0.6112  0.6431
 9058TIP3    H148665   0.494   3.714   6.608 -0.2791 -0.4364  0.3465
 9058TIP3    H248666   0.408   3.839   6.610 -0.2172 -0.4061  1.0878
 9059TIP3   OH248667   2.854   0.791  10.819 -0.1516  0.8332 -0.0289
 9059TIP3    H148668   2.901   0.875  10.815  1.0595  0.1484 -0.8812
 9059TIP3    H248669   2.801   0.789  10.740 -1.3737  1.4261  0.7355
 9060TIP3   OH248670   4.802   2.804  11.665 -0.0368 -0.2251 -0.1577
 9060TIP3    H148671   4.871   2.783  11.728 -0.8149  0.1150  0.8303
 9060TIP3    H248672   4.762   2.884  11.699 -2.5006 -1.6847  0.6638
 9061TIP3   OH248673   5.653   2.733  16.614 -0.1827  0.3138 -0.2270
 9061TIP3    H148674   5.732   2.745  16.561  0.4822 -0.9154  0.4432
 9061TIP3    H248675   5.633   2.639  16.606 -2.9239  0.9412 -2.2143
 9062TIP3   OH248676   3.728   2.007  14.225  0.4297  0.1803 -0.3469
 9062TIP3    H148677   3.747   1.913  14.222 -0.5909 -0.2136  2.5254
 9062TIP3    H248678   3.775   2.043  14.150  3.1576 -2.2281 -0.0040
 9063TIP3   OH248679   1.153   0.276  11.642  0.4526 -0.1055  0.5064
 9063TIP3    H148680   1.077   0.223  11.668 -1.1355  1.1568 -1.3497
 9063TIP3    H248681   1.186   0.311  11.725 -0.8427 -0.8499  1.3850
 9064TIP3   OH248682   3.100   0.051   4.625  0.0852 -0.9012  0.1746
 9064TIP3    H148683   3.079   0.089   4.710  2.0315 -1.7642  1.1047
 9064TIP3    H248684   3.145   0.121   4.578  2.1451 -1.4567  1.2349
 9065TIP3   OH248685   0.978   1.794  10.525 -0.1412  0.0255  0.2525
 9065TIP3    H148686   0.975   1.856  10.598  2.4151  0.4010  0.1256
 9065TIP3    H248687   0.958   1.846  10.448 -0.9633  0.0277  0.4579
 9066TIP3   OH248688   3.685   6.800   4.598  0.1779 -0.5859  0.1307
 9066TIP3    H148689   3.686   6.796   4.694 -1.6509  0.4062  0.2300
 9066TIP3    H248690   3.752   6.864   4.576  0.4125 -0.6083  0.7458
 9067TIP3   OH248691   6.780   3.792  16.815  0.5699 -0.3774  0.7822
 9067TIP3    H148692   6.847   3.735  16.777  0.2193  0.5320 -1.3697
 9067TIP3    H248693   6.804   3.880  16.786 -2.1276 -0.1421 -1.1276
 9068TIP3   OH248694   2.969   4.858  14.325 -0.4792  0.3147 -0.3192
 9068TIP3    H148695   2.934   4.797  14.389 -0.6447  1.3587  0.6096
 9068TIP3    H248696   3.004   4.931  14.376 -1.7938  1.8061 -1.4297
 9069TIP3   OH248697   3.017   2.192  14.631  0.2328  0.1573 -0.5021
 9069TIP3    H148698   2.994   2.199  14.538  0.0383  1.0901 -0.3968
 9069TIP3    H248699   2.940   2.225  14.677  1.1077  1.7192 -0.0851
 9070TIP3   OH248700   2.446   5.732   5.077 -0.6881 -0.0732  0.6334
 9070TIP3    H148701   2.429   5.818   5.115 -3.5420  0.1219 -0.7793
 9070TIP3    H248702   2.360   5.701   5.049  0.8101 -0.6661 -4.4616
 9071TIP3   OH248703   4.763   0.865   0.226 -0.0130  0.6021 -0.5675
 9071TIP3    H148704   4.763   0.896   0.317  3.3203 -2.3417  0.6174
 9071TIP3    H248705   4.725   0.777   0.231  0.0491  0.4712 -2.0891
 9072TIP3   OH248706   4.398   6.587  14.591  0.2194 -0.7906  0.4938
 9072TIP3    H148707   4.351   6.601  14.508  0.5062 -2.0694  0.0814
 9072TIP3    H248708   4.465   6.656  14.593 -0.6931  0.1189  0.3583
 9073TIP3   OH248709   6.368   5.321   3.252 -0.3947 -0.0628  0.6467
 9073TIP3    H148710   6.310   5.394   3.274  0.6737  1.3352 -0.9060
 9073TIP3    H248711   6.437   5.324   3.318 -0.4217  0.2898  0.6649
 9074TIP3   OH248712   3.864   0.297  16.539 -0.0464 -0.2877  0.4355
 9074TIP3    H148713   3.950   0.319  16.574  0.5942  0.4879 -1.5070
 9074TIP3    H248714   3.875   0.211  16.498 -0.3594 -0.4583  0.7038
 9075TIP3   OH248715   5.155   0.575   1.750 -0.3381  0.2054  0.0271
 9075TIP3    H148716   5.085   0.615   1.802  1.0244  2.5504  0.1728
 9075TIP3    H248717   5.149   0.617   1.664  0.0350 -0.5906 -0.4025
 9076TIP3   OH248718   6.321   4.655   2.081  0.6549  0.3721  0.3281
 9076TIP3    H148719   6.387   4.603   2.128 -0.2565 -0.6775  0.4813
 9076TIP3    H248720   6.362   4.676   1.998  1.2748 -0.0721  0.5130
 9077TIP3   OH248721   2.128   0.380  10.535  0.6290 -0.2891 -0.1337
 9077TIP3    H148722   2.212   0.393  10.491  0.4956 -1.4078 -0.7505
 9077TIP3    H248723   2.067   0.356  10.466  0.0098 -0.3684  0.4236
 9078TIP3   OH248724   4.630   5.427  17.044  0.0314  0.0594 -0.3195
 9078TIP3    H148725   4.566   5.471  17.099 -0.0882 -0.5947  0.0699
 9078TIP3    H248726   4.643   5.342  17.085 -0.1920 -0.5137 -1.3995
 9079TIP3   OH248727   3.234   0.274   2.884 -0.3251  0.9184 -0.4262
 9079TIP3    H148728   3.319   0.285   2.841  0.7952 -2.5294  0.5229
 9079TIP3    H248729   3.180   0.231   2.818 -0.5662  0.9928 -0.2748
 9080TIP3   OH248730   4.667   3.518  15.526  0.3209 -0.1537  0.1890
 9080TIP3    H148731   4.706   3.451  15.582  1.5402  1.4870  1.4140
 9080TIP3    H248732   4.587   3.543  15.572  0.8536  0.5510  0.7564
 9081TIP3   OH248733   4.190   5.896  10.875  0.0654  0.7709  0.0415
 9081TIP3    H148734   4.285   5.887  10.882 -0.2224 -2.6212  1.6127
 9081TIP3    H248735   4.167   5.963  10.939  1.4084  2.3339 -1.0377
 9082TIP3   OH248736   4.051   1.145  13.902 -0.3777  0.1951  0.0106
 9082TIP3    H148737   4.141   1.123  13.880 -0.9796 -1.7086 -0.7254
 9082TIP3    H248738   4.032   1.224  13.851  0.2718 -0.5065 -1.3676
 9083TIP3   OH248739   1.582   4.678   2.392 -0.4029 -0.0516  0.4608
 9083TIP3    H148740   1.516   4.647   2.454  0.7520  0.1364  1.8327
 9083TIP3    H248741   1.655   4.707   2.447  1.1249 -0.9206 -1.0164
 9084TIP3   OH248742   3.011   0.290   1.251 -0.0819  0.4695  0.4431
 9084TIP3    H148743   3.091   0.301   1.302 -0.3028 -2.2292  1.5337
 9084TIP3    H248744   3.041   0.280   1.161  0.5884  1.6561  0.5059
 9085TIP3   OH248745   0.807   3.041   6.003 -0.4687  0.0413  0.0261
 9085TIP3    H148746   0.770   3.024   6.090 -1.6812  1.5152 -0.1711
 9085TIP3    H248747   0.880   3.101   6.020 -1.7380  1.6816 -0.0794
 9086TIP3   OH248748   2.059   2.071  14.967 -0.8081  0.0454 -0.2059
 9086TIP3    H148749   2.091   1.981  14.965 -0.1828  0.2648 -0.8231
 9086TIP3    H248750   2.043   2.093  14.875 -2.6231  0.0115  0.0618
 9087TIP3   OH248751   0.996   0.269  13.935  0.3557 -0.3480 -0.2351
 9087TIP3    H148752   1.030   0.334  13.998 -0.6169  0.3141 -0.3749
 9087TIP3    H248753   0.939   0.213  13.988 -0.6349  0.3423 -0.5534
 9088TIP3   OH248754   0.180   4.246  11.742  0.3729 -0.8271  0.3487
 9088TIP3    H148755   0.240   4.221  11.812 -1.4994 -1.2945  1.8598
 9088TIP3    H248756   0.144   4.164  11.710  1.5521 -0.6573 -1.5542
 9089TIP3   OH248757   6.126   2.343  13.799  0.2437 -0.0028  0.7108
 9089TIP3    H148758   6.139   2.317  13.890  0.4443  0.1112  0.7149
 9089TIP3    H248759   6.189   2.291  13.750  0.1922 -0.0041  0.6452
 9090TIP3   OH248760   0.937   6.139  12.132  0.1481  0.0758 -0.2111
 9090TIP3    H148761   0.922   6.077  12.204  1.1290 -0.7390 -0.6791
 9090TIP3    H248762   0.906   6.093  12.054  1.6524 -0.2089 -0.6816
 9091TIP3   OH248763   6.416   2.268   6.405 -0.4838  0.2562  0.8140
 9091TIP3    H148764   6.409   2.291   6.498 -0.1580  0.7401  0.7208
 9091TIP3    H248765   6.510   2.262   6.388 -0.4621  2.1537  0.0490
 9092TIP3   OH248766   5.981   2.736  13.726  0.2715 -0.1759 -0.0838
 9092TIP3    H148767   6.010   2.817  13.684 -0.4643  0.4948  0.6467
 9092TIP3    H248768   5.924   2.766  13.798  1.2151 -1.2753  1.1740
 9093TIP3   OH248769   5.360   6.454   3.832 -0.1467  0.4501 -0.5679
 9093TIP3    H148770   5.322   6.478   3.748  0.9338  0.1867 -1.1511
 9093TIP3    H248771   5.452   6.434   3.812  0.2242  0.7613  0.7379
 9094TIP3   OH248772   4.204   3.069   5.276 -0.2177 -0.1202 -0.0709
 9094TIP3    H148773   4.213   3.006   5.205 -0.2853 -0.3044  0.0837
 9094TIP3    H248774   4.114   3.101   5.270  0.9677  3.3716 -3.0113
 9095TIP3   OH248775   4.639   5.890  13.006 -0.0386  0.3457  0.0108
 9095TIP3    H148776   4.552   5.898  13.045 -0.2067  0.5502 -0.4087
 9095TIP3    H248777   4.675   5.809  13.044 -1.3709 -1.1309 -1.6934
 9096TIP3   OH248778   0.736   3.266  14.566  0.6481 -0.2912  0.1023
 9096TIP3    H148779   0.831   3.265  14.557  0.8194  1.9348  0.8443
 9096TIP3    H248780   0.706   3.332  14.503 -0.4144 -0.9238 -0.0884
 9097TIP3   OH248781   1.306   6.783   5.621 -0.1230  0.4066  0.3778
 9097TIP3    H148782   1.260   6.700   5.608 -0.0625  0.6461 -1.6013
 9097TIP3    H248783   1.366   6.790   5.548  0.8430  1.5892  1.2377
 9098TIP3   OH248784   0.860   3.896  16.262 -1.0994 -0.1814  0.2341
 9098TIP3    H148785   0.788   3.850  16.220  0.2457 -1.9616 -0.2451
 9098TIP3    H248786   0.891   3.837  16.330  0.9062 -0.2181 -0.6282
 9099TIP3   OH248787   4.643   5.945  15.995  0.1230  0.1588 -0.4631
 9099TIP3    H148788   4.583   5.970  15.925  0.1214 -0.7762 -0.8029
 9099TIP3    H248789   4.625   6.008  16.065 -0.6550  0.4157 -0.8805
 9100TIP3   OH248790   3.887   1.892  15.619  0.4453 -0.1444  0.1906
 9100TIP3    H148791   3.891   1.887  15.523  0.0274 -0.1607  0.1729
 9100TIP3    H248792   3.898   1.985  15.639  0.2633 -0.1058  0.1122
 9101TIP3   OH248793   0.906   6.626  16.577 -0.0629 -0.2434  0.0136
 9101TIP3    H148794   0.816   6.601  16.597 -0.1941  0.1420 -0.0815
 9101TIP3    H248795   0.939   6.555  16.522  0.0110 -0.8627  0.8371
 9102TIP3   OH248796   3.145   1.144   6.390 -0.1801  0.3198  0.1131
 9102TIP3    H148797   3.139   1.151   6.485 -0.0611  0.3443  0.1194
 9102TIP3    H248798   3.106   1.059   6.369  1.1063 -0.3391  0.3204
 9103TIP3   OH248799   4.937   4.354   0.925  0.1496 -0.3007 -0.2336
 9103TIP3    H148800   4.977   4.280   0.878 -0.5537 -0.7876 -0.0830
 9103TIP3    H248801   5.011   4.404   0.958  0.6654 -1.4327  0.4254
 9104TIP3   OH248802   4.567   3.457   3.380  0.2567  0.4037  0.0875
 9104TIP3    H148803   4.600   3.445   3.469  0.6556 -0.1432 -0.1301
 9104TIP3    H248804   4.627   3.408   3.325 -0.7592 -0.4119 -0.3438
 9105TIP3   OH248805   1.631   3.729  17.040  0.1357 -0.1046 -0.0405
 9105TIP3    H148806   1.598   3.797  17.098 -1.9561 -0.5944 -0.5800
 9105TIP3    H248807   1.585   3.743  16.957  2.4616  0.0930 -1.3814
 9106TIP3   OH248808   0.960   2.705   2.704 -0.1035  0.1206 -0.3606
 9106TIP3    H148809   1.050   2.701   2.674  0.1296 -1.6987  0.4856
 9106TIP3    H248810   0.966   2.709   2.799 -0.9020 -1.3524 -0.2187
 9107TIP3   OH248811   6.269   1.227   0.008 -0.6039 -0.6965 -0.0052
 9107TIP3    H148812   6.243   1.199   0.096 -0.4247  0.4360  0.4251
 9107TIP3    H248813   6.240   1.317   0.002  1.7513  0.1224 -0.1025
 9108TIP3   OH248814   1.314   5.520   3.950  0.6180 -0.6128  0.0736
 9108TIP3    H148815   1.258   5.443   3.941 -0.4920  0.2182 -0.4649
 9108TIP3    H248816   1.308   5.565   3.866  3.6880 -1.4738 -0.6951
 9109TIP3   OH248817   0.420   5.996   5.816 -0.4372 -0.7056  0.5921
 9109TIP3    H148818   0.510   5.974   5.795 -0.3267 -0.1161  0.4187
 9109TIP3    H248819   0.415   5.989   5.912  0.0259  0.0679  0.6859
 9110TIP3   OH248820   1.238   6.397  14.434 -0.0075  0.2984  0.3346
 9110TIP3    H148821   1.230   6.445  14.351 -1.5526 -0.9952 -0.3282
 9110TIP3    H248822   1.249   6.306  14.407 -0.6554 -0.1549  1.5418
 9111TIP3   OH248823   1.694   3.775  13.339  0.1724  0.2951  0.1348
 9111TIP3    H148824   1.619   3.814  13.294  0.4132 -0.3186 -0.8203
 9111TIP3    H248825   1.734   3.717  13.274  0.9255 -0.1026  0.9307
 9112TIP3   OH248826   4.168   0.252  14.067  0.1882 -0.1009  0.3299
 9112TIP3    H148827   4.180   0.297  14.151 -1.9466 -0.1819  0.7451
 9112TIP3    H248828   4.247   0.198  14.057  0.1273 -0.7667  2.7447
 9113TIP3   OH248829   4.394   4.240   2.972 -0.0851  0.2864  0.4437
 9113TIP3    H148830   4.401   4.296   3.049  1.6663 -0.6851  1.0512
 9113TIP3    H248831   4.453   4.281   2.908 -1.3163  0.9293 -0.3151
 9114TIP3   OH248832   1.384   1.100  12.250  0.1470  0.4072 -0.4289
 9114TIP3    H148833   1.368   1.057  12.166  3.2008 -1.7777 -0.0508
 9114TIP3    H248834   1.332   1.049  12.312 -1.0382  1.1819 -0.7427
 9115TIP3   OH248835   4.870   5.720  11.229 -0.2872  0.1417  0.1718
 9115TIP3    H148836   4.902   5.810  11.219  0.3688  0.0564  1.4254
 9115TIP3    H248837   4.936   5.676  11.282 -1.3902 -0.6476  0.9243
 9116TIP3   OH248838   5.775   4.287  15.836  0.1152  0.1011 -0.1144
 9116TIP3    H148839   5.707   4.355  15.833 -0.5038 -0.5464 -2.3767
 9116TIP3    H248840   5.750   4.231  15.909  0.1998  1.8237  1.2913
 9117TIP3   OH248841   5.024   2.112   1.196 -0.0126  0.3091  0.0783
 9117TIP3    H148842   4.940   2.118   1.150  0.5863  0.8687 -0.9859
 9117TIP3    H248843   5.008   2.152   1.281 -1.3393 -1.3874  0.6894
 9118TIP3   OH248844   1.786   2.519   5.265  0.6950  0.8378 -0.3035
 9118TIP3    H148845   1.753   2.588   5.322  0.7399 -0.6838  1.6773
 9118TIP3    H248846   1.759   2.545   5.177 -0.3557  2.7197  0.5212
 9119TIP3   OH248847   3.395   6.246   5.167  0.0224 -0.1971  0.1029
 9119TIP3    H148848   3.469   6.303   5.187 -1.4127  2.0964 -0.6410
 9119TIP3    H248849   3.413   6.211   5.080  0.1488  0.5717 -0.1911
 9120TIP3   OH248850   0.708   5.544   5.317  0.0587  0.1742 -0.1266
 9120TIP3    H148851   0.694   5.546   5.223 -0.3121  0.7670 -0.0638
 9120TIP3    H248852   0.794   5.584   5.330 -0.6687  1.7912 -0.0862
 9121TIP3   OH248853   0.013   2.001   3.984  0.3447 -0.1596 -0.4113
 9121TIP3    H148854  -0.006   2.040   3.898 -0.4167  0.5995  0.0928
 9121TIP3    H248855  -0.008   2.070   4.047 -0.1615 -1.0868  0.4537
 9122TIP3   OH248856   5.010   5.193  10.852 -0.1321  0.2162  0.4585
 9122TIP3    H148857   4.969   5.257  10.794 -1.4199 -1.7063 -0.8739
 9122TIP3    H248858   5.076   5.150  10.798 -0.4546 -0.7204  0.7898
 9123TIP3   OH248859   3.005   1.381  15.823  0.5290  0.2096  0.1535
 9123TIP3    H148860   2.957   1.464  15.816  1.6102  0.7985 -0.6288
 9123TIP3    H248861   3.040   1.381  15.912 -0.3382  0.0975  0.5011
 9124TIP3   OH248862   3.184   2.291   1.783 -0.4606 -0.0999 -0.2938
 9124TIP3    H148863   3.188   2.382   1.812 -1.1031 -0.3126  0.4876
 9124TIP3    H248864   3.207   2.295   1.690 -1.5849  1.0077 -0.5532
 9125TIP3   OH248865   0.300   6.361  13.605  0.0777 -0.5391  0.1046
 9125TIP3    H148866   0.336   6.374  13.518  0.3503 -1.8519  0.0019
 9125TIP3    H248867   0.327   6.439  13.654 -1.7436  1.2156 -1.4628
 9126TIP3   OH248868   5.685   0.219  12.790  0.2745 -0.2206 -0.2844
 9126TIP3    H148869   5.725   0.245  12.872 -0.0007 -0.0027 -0.2178
 9126TIP3    H248870   5.680   0.300  12.739 -0.8984 -0.0692  0.0554
 9127TIP3   OH248871   4.962   1.596   4.273  0.2669 -1.0395  0.0475
 9127TIP3    H148872   5.027   1.527   4.263  1.2462 -0.3132  1.2624
 9127TIP3    H248873   4.965   1.644   4.190  1.3107 -0.9816  0.1104
 9128TIP3   OH248874   1.789   3.208   2.033  0.4579 -0.2132  0.9401
 9128TIP3    H148875   1.781   3.160   1.950 -2.2291  1.8212 -0.1405
 9128TIP3    H248876   1.813   3.141   2.097 -0.1348 -2.4190 -0.9931
 9129TIP3   OH248877   6.588   2.478  12.654 -0.6632 -0.2559  0.3542
 9129TIP3    H148878   6.524   2.416  12.688  0.1593 -1.2510  0.1280
 9129TIP3    H248879   6.651   2.424  12.607 -1.3465  0.9979 -2.1596
 9130TIP3   OH248880   5.615   1.197  15.517  0.0929 -0.1376  0.1065
 9130TIP3    H148881   5.628   1.114  15.471 -0.5000 -0.4419  0.4685
 9130TIP3    H248882   5.690   1.251  15.492  1.9170 -1.6872  1.9099
 9131TIP3   OH248883   5.029   3.163   2.992  0.0169  0.2684  0.1079
 9131TIP3    H148884   5.059   3.237   3.045  1.2164  0.6472 -1.0608
 9131TIP3    H248885   5.095   3.095   3.006 -1.2619 -0.7970  1.4733
 9132TIP3   OH248886   0.206   3.122  13.711 -0.5647 -0.1845  0.0579
 9132TIP3    H148887   0.179   3.038  13.674 -0.5722 -1.0208  1.8346
 9132TIP3    H248888   0.302   3.118  13.712 -0.5788 -0.7960  1.3930
 9133TIP3   OH248889   0.861   3.473   1.317 -0.3890 -0.3133 -0.0413
 9133TIP3    H148890   0.903   3.538   1.261 -1.8424  0.6252 -0.1059
 9133TIP3    H248891   0.837   3.521   1.396 -0.0281 -1.1855  0.6197
 9134TIP3   OH248892   1.778   4.611  15.155  0.4133  0.2934 -0.0968
 9134TIP3    H148893   1.714   4.574  15.216  0.4054  0.0685 -0.2416
 9134TIP3    H248894   1.758   4.705  15.155  0.0096  0.2130 -0.2230
 9135TIP3   OH248895   2.115   1.708  16.453  0.3564  0.3089 -0.5706
 9135TIP3    H148896   2.035   1.736  16.409  0.7720  2.0030 -0.3208
 9135TIP3    H248897   2.134   1.622  16.415 -0.7865  0.5091 -1.6756
 9136TIP3   OH248898   3.666   6.816   4.875 -0.2086  0.4886 -0.4128
 9136TIP3    H148899   3.601   6.746   4.886  1.0250 -0.3601  2.4536
 9136TIP3    H248900   3.681   6.849   4.963  2.7518  1.1124 -1.0437
 9137TIP3   OH248901   6.549   5.951   4.788 -0.1745 -0.4095 -0.2044
 9137TIP3    H148902   6.622   5.888   4.789 -0.8144 -1.1553  1.2203
 9137TIP3    H248903   6.481   5.910   4.840 -0.7921  1.2705  0.3713
 9138TIP3   OH248904   2.210   0.591   5.468 -0.1402  1.1910 -0.0235
 9138TIP3    H148905   2.187   0.585   5.561  0.9849 -1.9382  0.1472
 9138TIP3    H248906   2.300   0.621   5.467  0.5458 -0.7383  0.0680
 9139TIP3   OH248907   2.852   1.064  10.495 -0.0867 -0.1342 -0.1079
 9139TIP3    H148908   2.940   1.071  10.532 -1.2759  0.4470  2.8284
 9139TIP3    H248909   2.845   1.139  10.436  0.8273  0.7768  0.9008
 9140TIP3   OH248910   2.726   2.060  13.229 -0.0664 -0.3379 -0.0507
 9140TIP3    H148911   2.695   1.981  13.183  0.3991 -0.6422  0.1493
 9140TIP3    H248912   2.819   2.064  13.209 -0.2645  0.6985 -0.8255
 9141TIP3   OH248913   2.048   5.415  13.574  0.0314  0.1666 -1.0402
 9141TIP3    H148914   1.995   5.486  13.538 -0.8932  1.4514  2.4638
 9141TIP3    H248915   2.116   5.459  13.624  0.8889 -1.4557 -0.7196
 9142TIP3   OH248916   1.060   0.511  14.856  0.6599  0.0769 -0.6650
 9142TIP3    H148917   1.067   0.604  14.878 -2.3517  0.7910 -2.2757
 9142TIP3    H248918   1.022   0.471  14.934  2.2217  0.0734  0.1394
 9143TIP3   OH248919   5.492   5.973  11.906  0.3602  0.0681  0.1301
 9143TIP3    H148920   5.529   5.885  11.891 -0.6038 -0.4328  0.5734
 9143TIP3    H248921   5.523   5.998  11.993  2.3813  1.1075 -0.8277
 9144TIP3   OH248922   1.666   1.741  13.725 -0.1767 -0.3761  0.0505
 9144TIP3    H148923   1.687   1.833  13.707 -3.9122  0.4336 -0.9199
 9144TIP3    H248924   1.578   1.743  13.761 -1.2319 -3.7160 -1.9488
 9145TIP3   OH248925   6.597   3.710   1.507  0.1149  0.6268  0.0783
 9145TIP3    H148926   6.503   3.713   1.486  0.3292  2.4055 -0.9099
 9145TIP3    H248927   6.627   3.800   1.492  2.1220 -0.0497 -0.2790
 9146TIP3   OH248928   2.356   1.070   4.086  0.0277 -0.5050  0.0209
 9146TIP3    H148929   2.440   1.048   4.047 -0.6569 -0.9954 -1.2310
 9146TIP3    H248930   2.309   0.987   4.091 -1.0041  0.0109 -0.8501
 9147TIP3   OH248931   4.299   3.112  14.443  0.2983 -0.1021  0.1747
 9147TIP3    H148932   4.372   3.165  14.411  1.4905 -1.7698  0.0010
 9147TIP3    H248933   4.323   3.089  14.532 -0.6066  0.2945  0.5383
 9148TIP3   OH248934   1.826   4.711  14.842 -0.3585 -0.1628  0.0174
 9148TIP3    H148935   1.802   4.742  14.929  0.2139  0.0430  0.1071
 9148TIP3    H248936   1.921   4.726  14.837 -0.1032 -1.7070 -0.0141
 9149TIP3   OH248937   3.966   3.153   0.271 -0.1249  0.4692 -0.8652
 9149TIP3    H148938   3.909   3.077   0.262  1.8773 -1.0917 -1.1760
 9149TIP3    H248939   4.021   3.134   0.347 -0.4849  2.2759 -0.0903
 9150TIP3   OH248940   6.797   1.972  13.069  0.0194  0.6711 -0.5469
 9150TIP3    H148941   6.740   1.944  12.998 -0.9446  0.5367  0.2582
 9150TIP3    H248942   6.873   2.011  13.025 -1.0012  1.4885 -1.6502
 9151TIP3   OH248943   6.497   4.251  15.849 -0.0483 -0.2302  0.5117
 9151TIP3    H148944   6.495   4.275  15.756 -1.0058  0.2840  0.6519
 9151TIP3    H248945   6.418   4.291  15.885  1.5747  1.7653  2.0941
 9152TIP3   OH248946   2.817   0.269  14.566  0.5345 -0.2635 -0.3634
 9152TIP3    H148947   2.867   0.262  14.647  0.1770  0.1575 -0.1025
 9152TIP3    H248948   2.871   0.324  14.509  0.7441 -0.4872 -0.3815
 9153TIP3   OH248949   3.177   3.218  16.264 -0.4271 -0.3854 -0.4256
 9153TIP3    H148950   3.264   3.254  16.283 -0.5745 -0.7866  1.0734
 9153TIP3    H248951   3.118   3.293  16.273 -0.8074 -0.9745  3.2589
 9154TIP3   OH248952   2.140   3.543   3.245 -0.5063  0.2638  0.7971
 9154TIP3    H148953   2.198   3.604   3.291 -1.4693  2.8055 -1.0945
 9154TIP3    H248954   2.053   3.582   3.254 -1.2605 -1.1363 -0.0803
 9155TIP3   OH248955   0.281   1.638   1.732  0.0392  0.1195 -0.5798
 9155TIP3    H148956   0.199   1.676   1.700 -0.1698 -0.4999 -0.8063
 9155TIP3    H248957   0.334   1.713   1.758 -0.7810  0.5113  0.0055
 9156TIP3   OH248958   3.367   3.504   0.450  0.0329 -0.1852 -0.0887
 9156TIP3    H148959   3.439   3.563   0.473 -0.1201  0.1968 -0.5727
 9156TIP3    H248960   3.352   3.520   0.357 -1.5981  0.7667  0.3003
 9157TIP3   OH248961   2.538   4.710   5.227 -0.1614 -0.2324  0.0064
 9157TIP3    H148962   2.544   4.718   5.132  2.2299  0.9627  0.1840
 9157TIP3    H248963   2.579   4.625   5.246 -0.9576 -0.6340 -0.0269
 9158TIP3   OH248964   0.268   0.577   1.254 -0.1423 -0.2855 -0.5093
 9158TIP3    H148965   0.221   0.521   1.316 -0.1668 -0.2400 -0.4867
 9158TIP3    H248966   0.235   0.550   1.168 -1.6951  1.0927 -0.3934
 9159TIP3   OH248967   6.690   0.421   2.824 -0.0105 -0.6409  0.4606
 9159TIP3    H148968   6.755   0.385   2.764  0.3019  1.0232 -0.2757
 9159TIP3    H248969   6.615   0.363   2.816  0.5794 -1.3131 -0.4072
 9160TIP3   OH248970   3.881   3.426  14.371  0.4585  0.2613  0.5703
 9160TIP3    H148971   3.932   3.346  14.359  1.3439  0.9201 -0.2139
 9160TIP3    H248972   3.900   3.454  14.460 -1.2420 -1.3065  1.5156
 9161TIP3   OH248973   5.443   3.649   5.467 -0.9686  0.3254 -0.0418
 9161TIP3    H148974   5.427   3.640   5.561 -0.1050  0.4719  0.1273
 9161TIP3    H248975   5.460   3.559   5.437  1.3315  0.5433  0.4497
 9162TIP3   OH248976   4.171   2.431  14.340 -0.0654  0.2284  0.0485
 9162TIP3    H148977   4.152   2.524  14.325  0.7947  0.4910  0.4861
 9162TIP3    H248978   4.135   2.413  14.427 -0.9803 -0.0817 -0.3823
 9163TIP3   OH248979   1.859   5.098  14.748  0.1460  0.3810 -0.1902
 9163TIP3    H148980   1.952   5.100  14.769  0.2214 -0.7405 -0.3539
 9163TIP3    H248981   1.820   5.160  14.809  0.7675 -0.5381  1.2098
 9164TIP3   OH248982   6.050   6.130   0.016  0.0444 -0.0132  0.2992
 9164TIP3    H148983   6.019   6.197   0.077  0.9962 -0.7528  1.6476
 9164TIP3    H248984   5.975   6.073   0.002 -1.2532  2.0855 -2.0510
 9165TIP3   OH248985   0.779   5.642   1.316  0.5218 -0.2841  0.0007
 9165TIP3    H148986   0.757   5.550   1.299  1.3270 -0.2489 -1.3173
 9165TIP3    H248987   0.695   5.681   1.343  0.1145 -1.3291  0.3243
 9166TIP3   OH248988   3.172   1.154   2.790 -0.5066  0.6009 -0.5812
 9166TIP3    H148989   3.119   1.111   2.724 -1.6511  0.7642  0.2030
 9166TIP3    H248990   3.124   1.233   2.813 -0.3069  0.3894  0.6624
 9167TIP3   OH248991   1.464   3.437  11.811  0.4447  0.6254 -0.0671
 9167TIP3    H148992   1.557   3.444  11.789  0.7940  0.1446  1.1569
 9167TIP3    H248993   1.449   3.344  11.823 -0.5370  0.5665 -1.5347
 9168TIP3   OH248994   4.359   1.676  10.891 -0.2619 -0.4237  0.5685
 9168TIP3    H148995   4.275   1.652  10.851  0.2786 -1.5958  0.1075
 9168TIP3    H248996   4.370   1.614  10.963  0.8477 -1.1907 -0.2371
 9169TIP3   OH248997   2.864   5.336  14.366  0.0533  0.0484 -0.3615
 9169TIP3    H148998   2.909   5.411  14.327  2.1519 -0.2068  1.3899
 9169TIP3    H248999   2.920   5.308  14.438 -0.0122 -3.9556 -1.6067
 9170TIP3   OH249000   2.014   2.943  14.781  0.2810 -0.2185  0.2122
 9170TIP3    H149001   1.986   3.017  14.727 -0.3939 -1.0367 -0.5991
 9170TIP3    H249002   2.058   2.983  14.856  0.6946  0.9741 -0.6349
 9171TIP3   OH249003   6.443   0.595   6.437 -0.5817 -0.0929  0.3342
 9171TIP3    H149004   6.489   0.511   6.427 -0.5328 -0.0008 -0.2575
 9171TIP3    H249005   6.379   0.580   6.507 -1.9231 -1.2204 -1.0658
 9172TIP3   OH249006   5.158   1.056   2.653  0.0368 -0.1961  0.1245
 9172TIP3    H149007   5.069   1.024   2.666 -0.3028  0.5108 -0.4430
 9172TIP3    H249008   5.207   1.018   2.726 -0.2963 -2.1450 -0.5996
 9173TIP3   OH249009   2.746   6.399   2.343 -0.2224  0.6398  0.2314
 9173TIP3    H149010   2.731   6.485   2.303 -0.2008 -1.2162 -4.2682
 9173TIP3    H249011   2.839   6.381   2.325 -0.4751 -0.7339  0.2455
 9174TIP3   OH249012   0.749   5.967   2.877  0.2050  0.2405 -0.6603
 9174TIP3    H149013   0.761   5.913   2.955  0.5913  1.6832  0.3269
 9174TIP3    H249014   0.837   5.980   2.843  0.1324  0.3854 -0.7957
 9175TIP3   OH249015   3.423   4.423   4.424  0.0324 -0.0172  0.7383
 9175TIP3    H149016   3.478   4.454   4.351  1.3985 -1.5957  1.0496
 9175TIP3    H249017   3.479   4.433   4.501 -1.3980  1.6318  1.6312
 9176TIP3   OH249018   6.511   1.137  12.698  0.4082 -0.2522 -0.1269
 9176TIP3    H149019   6.439   1.076  12.683  0.3129 -0.3113  0.5663
 9176TIP3    H249020   6.566   1.095  12.764  1.2705 -0.3626 -0.8962
 9177TIP3   OH249021   2.211   4.663  16.318  0.5988  0.1653  0.4215
 9177TIP3    H149022   2.209   4.594  16.251  2.3623  0.6468 -0.1869
 9177TIP3    H249023   2.149   4.729  16.286 -0.4319 -0.7159  0.5533
 9178TIP3   OH249024   4.273   0.316   3.090 -0.4715  0.5719  0.2613
 9178TIP3    H149025   4.292   0.264   3.168 -0.3555 -1.3695 -0.9718
 9178TIP3    H249026   4.193   0.364   3.112 -0.3027  0.2635  1.6395
 9179TIP3   OH249027   2.408   6.092  14.683 -0.2975 -0.4692 -0.3284
 9179TIP3    H149028   2.413   6.105  14.589 -1.0237  0.6976 -0.2173
 9179TIP3    H249029   2.315   6.075  14.700 -0.0457 -1.5834  0.0854
 9180TIP3   OH249030   2.841   5.359  13.411 -0.1312 -0.3332 -0.2498
 9180TIP3    H149031   2.762   5.392  13.453 -0.4920  0.1337 -1.2552
 9180TIP3    H249032   2.898   5.435  13.404 -0.3463 -0.2462 -1.1847
 9181TIP3   OH249033   6.548   3.334   4.645  0.3993 -0.3761  0.0194
 9181TIP3    H149034   6.571   3.358   4.555 -2.0961  0.7030 -0.4224
 9181TIP3    H249035   6.632   3.331   4.691  1.5493  1.5133 -1.7607
 9182TIP3   OH249036   0.404   2.001  13.675  0.5811  0.7951 -0.1461
 9182TIP3    H149037   0.314   2.003  13.640  0.7669  2.5557 -0.6409
 9182TIP3    H249038   0.413   1.914  13.712 -0.6673 -0.1394 -1.8574
 9183TIP3   OH249039   4.384   0.316   5.026  0.0885  0.9516  0.2838
 9183TIP3    H149040   4.409   0.273   4.944  1.7942  0.0865  1.2003
 9183TIP3    H249041   4.382   0.409   5.005 -0.7661  0.6699 -1.0279
 9184TIP3   OH249042   5.473   0.689   6.245 -0.3261 -0.0498 -0.5199
 9184TIP3    H149043   5.384   0.717   6.267 -0.1642  1.4251 -1.5920
 9184TIP3    H249044   5.526   0.718   6.320 -0.3628  1.5327 -1.0625
 9185TIP3   OH249045   4.041   2.213  14.991  0.0784  0.1006 -0.0087
 9185TIP3    H149046   4.113   2.156  14.964  1.4085  1.0237  1.3875
 9185TIP3    H249047   4.044   2.210  15.087 -2.0730 -0.1968  0.0809
 9186TIP3   OH249048   6.235   4.735   2.772  0.1987 -0.4550  0.5696
 9186TIP3    H149049   6.275   4.775   2.849  0.2549 -0.1646  0.3920
 9186TIP3    H249050   6.243   4.641   2.787 -1.2257 -0.4191  1.6537
 9187TIP3   OH249051   3.603   4.710   3.185  0.5050 -0.7223  0.3602
 9187TIP3    H149052   3.639   4.760   3.111  0.0812  0.0460  0.6654
 9187TIP3    H249053   3.676   4.657   3.216  0.6682 -1.1223 -0.6639
 9188TIP3   OH249054   4.764   3.558   5.332 -0.1830 -0.0489  0.2159
 9188TIP3    H149055   4.760   3.608   5.250  0.6259 -0.1192  0.1326
 9188TIP3    H249056   4.851   3.575   5.367  1.0300 -3.2470 -0.9738
 9189TIP3   OH249057   4.974   0.728   1.061 -0.1994 -0.3387 -0.4442
 9189TIP3    H149058   5.005   0.698   0.976  3.0919  0.1105  0.4814
 9189TIP3    H249059   4.932   0.651   1.100 -0.9509 -0.7916 -2.0823
 9190TIP3   OH249060   0.642   2.591   3.337  0.6190 -0.0076  0.4042
 9190TIP3    H149061   0.713   2.550   3.386  1.4647  2.1674  1.1109
 9190TIP3    H249062   0.572   2.602   3.401 -1.0206 -3.4140 -0.6111
 9191TIP3   OH249063   2.084   1.024   0.592  0.6222 -0.5759  0.4463
 9191TIP3    H149064   2.135   1.067   0.524  0.6616 -0.0511  0.8061
 9191TIP3    H249065   2.125   0.939   0.603  0.4168 -0.7977 -0.4188
 9192TIP3   OH249066   6.801   2.688  10.875 -0.6389  0.3034 -0.2473
 9192TIP3    H149067   6.864   2.643  10.819 -0.0946 -0.8657  1.2369
 9192TIP3    H249068   6.855   2.729  10.943 -1.2278  2.2660 -0.9063
 9193TIP3   OH249069   2.887   6.036  10.553 -0.8219 -0.0996  0.3678
 9193TIP3    H149070   2.814   6.067  10.500 -1.0905 -1.8900 -0.4031
 9193TIP3    H249071   2.870   5.942  10.564  1.0484 -0.4411  0.6786
 9194TIP3   OH249072   4.387   2.857  16.596 -0.3167 -0.1505 -0.0644
 9194TIP3    H149073   4.297   2.830  16.575 -0.0791 -1.7306  0.8103
 9194TIP3    H249074   4.384   2.952  16.594 -2.1181 -0.1591  0.3712
 9195TIP3   OH249075   6.766   4.303   2.788  0.6364  0.4409 -0.1078
 9195TIP3    H149076   6.784   4.371   2.723  2.3812  0.4157  0.2996
 9195TIP3    H249077   6.838   4.310   2.850 -0.2212 -0.4943  1.0411
 9196TIP3   OH249078   0.155   3.604   1.420  0.3372 -0.5413  0.4047
 9196TIP3    H149079   0.160   3.685   1.368  1.6332 -1.2029 -0.5684
 9196TIP3    H249080   0.072   3.565   1.394  0.1627 -0.0121  0.1362
 9197TIP3   OH249081   0.385   5.778  11.563 -0.9309  0.1134 -0.6218
 9197TIP3    H149082   0.379   5.839  11.637  0.0391  0.0257 -0.4590
 9197TIP3    H249083   0.475   5.786  11.532 -0.6922 -1.4465 -0.4125
 9198TIP3   OH249084   0.183   1.872   0.505  0.2673 -0.8693  0.4005
 9198TIP3    H149085   0.231   1.840   0.582 -1.0793  0.0080  1.6709
 9198TIP3    H249086   0.246   1.926   0.458  0.6880 -0.1144  1.7666
 9199TIP3   OH249087   3.813   3.443  13.780  0.1795  0.7591 -0.3065
 9199TIP3    H149088   3.901   3.462  13.748  0.7035  1.2446  1.3394
 9199TIP3    H249089   3.783   3.524  13.821 -0.9911  0.5568 -0.7078
 9200TIP3   OH249090   4.800   4.578   2.027  0.0309 -0.7280 -0.0381
 9200TIP3    H149091   4.770   4.506   1.973 -0.0914 -0.7455  0.0528
 9200TIP3    H249092   4.875   4.614   1.980 -1.3208  0.5822 -1.3087
 9201TIP3   OH249093   0.424   2.403  13.793  0.3517  0.5276  0.2131
 9201TIP3    H149094   0.407   2.317  13.831 -1.2879  1.3029  1.3639
 9201TIP3    H249095   0.502   2.434  13.839  0.6336 -0.1207  0.1815
 9202TIP3   OH249096   1.472   5.168   4.666 -0.2384 -0.3563  0.3225
 9202TIP3    H149097   1.515   5.102   4.612  1.0441  0.4124  0.3528
 9202TIP3    H249098   1.526   5.174   4.745 -1.3938 -0.5886  1.1677
 9203TIP3   OH249099   1.036   6.193  14.128  0.2737  0.8121 -0.1052
 9203TIP3    H149100   1.085   6.115  14.101 -0.9835 -0.2996  0.7355
 9203TIP3    H249101   1.024   6.243  14.047 -0.4567 -0.7572 -0.9928
 9204TIP3   OH249102   4.495   0.702   2.312  0.0343 -0.0298  0.0935
 9204TIP3    H149103   4.469   0.713   2.403  1.1525 -1.5000  0.6391
 9204TIP3    H249104   4.530   0.613   2.308  0.8749  0.3316 -1.5576
 9205TIP3   OH249105   1.940   2.729  11.703  0.6746  0.4054 -0.3254
 9205TIP3    H149106   2.025   2.731  11.748  0.7148  1.1838 -0.4215
 9205TIP3    H249107   1.894   2.655  11.742  1.5830 -0.3301 -0.6113
 9206TIP3   OH249108   5.411   5.611   4.605  0.2703  0.1258  0.0218
 9206TIP3    H149109   5.391   5.522   4.636  1.8891 -0.1730  0.3109
 9206TIP3    H249110   5.363   5.668   4.665  0.6754 -0.5298  1.0125
 9207TIP3   OH249111   6.788   3.600   1.047  0.2042  0.3181  0.1434
 9207TIP3    H149112   6.728   3.591   0.973  0.5468  1.3202 -0.2750
 9207TIP3    H249113   6.748   3.667   1.103  1.4881  1.8999 -0.7470
 9208TIP3   OH249114   3.080   3.201   5.833 -0.5298  0.2203 -0.8010
 9208TIP3    H149115   3.018   3.140   5.794 -0.4334 -0.2485 -0.2387
 9208TIP3    H249116   3.166   3.167   5.809 -0.4792  0.8850 -1.6022
 9209TIP3   OH249117   2.956   6.075  15.432 -0.0254  0.6262  0.2549
 9209TIP3    H149118   2.904   6.006  15.392  0.0950  2.3826 -3.2837
 9209TIP3    H249119   2.894   6.147  15.447  0.5621  1.1817  0.0775
 9210TIP3   OH249120   2.347   2.906  11.944  0.3437  0.5576  0.2047
 9210TIP3    H149121   2.272   2.865  11.901  0.6644  0.7238 -0.5405
 9210TIP3    H249122   2.350   2.868  12.031 -0.2570  0.1168  0.0343
 9211TIP3   OH249123   4.103   6.111  12.102 -0.4349  0.0411 -0.2403
 9211TIP3    H149124   4.074   6.190  12.056 -2.6017  1.6985  3.5082
 9211TIP3    H249125   4.162   6.144  12.171 -0.3355 -1.7671  0.5783
 9212TIP3   OH249126   0.646   6.055  11.040 -0.4289  0.3621  0.0616
 9212TIP3    H149127   0.647   6.025  10.948  2.0185  1.1489 -0.2315
 9212TIP3    H249128   0.727   6.021  11.077 -2.0702 -1.2519  2.4704
 9213TIP3   OH249129   4.323   3.891   3.577  0.8243  0.3394  0.3084
 9213TIP3    H149130   4.355   3.802   3.562  0.3627  0.1899  0.1804
 9213TIP3    H249131   4.387   3.947   3.533  2.3767  0.2340  2.2922
 9214TIP3   OH249132   5.171   4.689   5.687  0.3372  0.2652 -0.1671
 9214TIP3    H149133   5.205   4.666   5.600  1.2303  1.1056 -0.0476
 9214TIP3    H249134   5.155   4.783   5.682  2.1791  0.6955  1.1567
 9215TIP3   OH249135   2.370   5.209   2.360  0.0864  0.1228  0.4739
 9215TIP3    H149136   2.453   5.160   2.362 -0.0419 -0.0960  0.4365
 9215TIP3    H249137   2.395   5.298   2.386  0.2519 -0.0603  0.9599
 9216TIP3   OH249138   3.553   5.944  11.976 -0.3366 -0.4880 -0.3090
 9216TIP3    H149139   3.608   6.019  11.996 -0.0347 -0.2523 -1.8778
 9216TIP3    H249140   3.465   5.972  12.000  0.0306 -0.3930  1.0017
 9217TIP3   OH249141   2.874   0.385   1.590  0.0125  0.1152 -0.2600
 9217TIP3    H149142   2.930   0.348   1.522  1.1783 -2.0109  1.7094
 9217TIP3    H249143   2.888   0.479   1.584  0.5155 -0.0335 -2.5312
 9218TIP3   OH249144   1.819   4.448   3.492  0.0003  0.9498 -0.0173
 9218TIP3    H149145   1.784   4.526   3.447 -0.9068  0.4364 -0.2254
 9218TIP3    H249146   1.913   4.451   3.474  0.0388  2.2068  0.2993
 9219TIP3   OH249147   0.050   0.241   2.643  0.3838  0.1001 -0.8933
 9219TIP3    H149148  -0.022   0.178   2.634 -0.5987  1.2933 -1.7879
 9219TIP3    H249149   0.096   0.237   2.560  1.8210 -1.1442 -0.0851
 9220TIP3   OH249150   1.827   6.017  13.788  0.3434 -0.0584  0.6118
 9220TIP3    H149151   1.920   6.028  13.805  0.2287 -0.4215  1.5111
 9220TIP3    H249152   1.822   5.986  13.697  1.1030 -0.2612  0.6363
 9221TIP3   OH249153   4.410   4.043   2.120 -0.4206 -0.1096 -0.3807
 9221TIP3    H149154   4.492   4.087   2.097 -1.3918  2.4855  0.7072
 9221TIP3    H249155   4.366   4.029   2.036  0.1409  0.6092 -0.8110
 9222TIP3   OH249156   3.852   4.465   5.601  0.2165 -0.3158 -0.1730
 9222TIP3    H149157   3.791   4.535   5.576 -0.4980  0.1220  2.5108
 9222TIP3    H249158   3.804   4.384   5.584  0.0525 -0.0838 -0.8583
 9223TIP3   OH249159   1.794   1.035  17.066  0.9012 -0.3482  0.2571
 9223TIP3    H149160   1.789   0.939  17.068 -1.0729 -0.2717  1.0088
 9223TIP3    H249161   1.818   1.055  16.976  1.7140 -1.5499  0.1758
 9224TIP3   OH249162   1.388   5.532  10.908  0.8015 -0.0693 -0.6645
 9224TIP3    H149163   1.361   5.481  10.831  0.8847 -1.7721  0.3805
 9224TIP3    H249164   1.311   5.534  10.964  1.0820  0.1819 -0.2815
 9225TIP3   OH249165   4.117   6.187  15.133  0.1514  0.2994 -0.1440
 9225TIP3    H149166   4.150   6.258  15.189  0.8227 -1.6202  2.0075
 9225TIP3    H249167   4.124   6.108  15.186 -5.2873 -0.8233 -0.5395
 9226TIP3   OH249168   0.755   2.296  13.980  0.3572  0.4930 -0.6197
 9226TIP3    H149169   0.671   2.340  13.998 -0.1128 -0.1043 -1.3068
 9226TIP3    H249170   0.775   2.249  14.061 -1.6862 -2.0985 -1.4857
 9227TIP3   OH249171   0.287   2.149   6.391 -0.4605 -0.2826 -0.6252
 9227TIP3    H149172   0.262   2.057   6.406  1.7521 -1.1379 -1.6847
 9227TIP3    H249173   0.205   2.192   6.367 -1.3776 -2.2759 -1.3399
 9228TIP3   OH249174   5.988   3.856   1.579  0.3051 -0.0880  1.4574
 9228TIP3    H149175   6.009   3.808   1.658  2.9283  0.7281  1.3397
 9228TIP3    H249176   6.034   3.809   1.509  1.0470  1.2525  1.0073
 9229TIP3   OH249177   3.595   4.155   0.229 -0.2464 -0.3300 -0.3194
 9229TIP3    H149178   3.652   4.089   0.269  0.2717  0.2381 -0.1031
 9229TIP3    H249179   3.636   4.239   0.252 -1.0239  0.0767 -0.3909
 9230TIP3   OH249180   3.325   0.468   4.616  0.0902 -0.5271  0.4437
 9230TIP3    H149181   3.392   0.399   4.609  0.4757 -0.0812 -0.3569
 9230TIP3    H249182   3.338   0.505   4.703  0.8667 -0.4782  0.3162
 9231TIP3   OH249183   1.562   6.376  11.564 -0.0549  0.2802  0.0874
 9231TIP3    H149184   1.583   6.433  11.638  0.4121 -1.8819  1.7387
 9231TIP3    H249185   1.643   6.369  11.515 -0.0405  0.8214  0.0338
 9232TIP3   OH249186   0.741   6.365  13.326  0.3209  0.1462  0.2297
 9232TIP3    H149187   0.769   6.456  13.320 -0.8293  0.6356  1.7748
 9232TIP3    H249188   0.821   6.314  13.313  1.1823  1.3971  0.5368
 9233TIP3   OH249189   4.040   5.920  11.371 -0.4056 -0.5639 -0.3865
 9233TIP3    H149190   3.955   5.917  11.417 -0.5590 -1.5829 -0.7286
 9233TIP3    H249191   4.087   5.843  11.401  1.2028  0.9519  1.2495
 9234TIP3   OH249192   5.290   1.765   0.791 -0.4327 -0.2859  0.4308
 9234TIP3    H149193   5.200   1.756   0.822 -0.9140  0.8037 -0.5540
 9234TIP3    H249194   5.284   1.827   0.718  0.8826 -1.4096 -0.7000
 9235TIP3   OH249195   3.834   1.552  13.172 -0.0333 -0.1064  0.0343
 9235TIP3    H149196   3.777   1.477  13.192 -1.3226  1.4402  2.7822
 9235TIP3    H249197   3.874   1.574  13.256  0.9272  1.8115 -0.8693
 9236TIP3   OH249198   5.542   5.623  12.099 -0.3838  0.1542 -0.2571
 9236TIP3    H149199   5.605   5.655  12.035 -0.0224  1.2453  0.6154
 9236TIP3    H249200   5.545   5.528  12.090 -0.4521  0.2853 -1.9400
 9237TIP3   OH249201   5.394   6.006   2.940  0.2302 -0.4549  0.9411
 9237TIP3    H149202   5.482   6.005   2.903  0.0901  1.3936  0.4805
 9237TIP3    H249203   5.340   6.050   2.875 -1.0667 -1.5505  1.2169
 9238TIP3   OH249204   6.005   1.277   5.130  0.3686 -0.0938 -0.5440
 9238TIP3    H149205   6.040   1.319   5.051  0.5486  0.8780  0.0410
 9238TIP3    H249206   5.929   1.330   5.154 -0.6509 -1.3181 -0.9469
 9239TIP3   OH249207   6.702   1.592  16.917 -0.4669  0.2996  0.5481
 9239TIP3    H149208   6.681   1.502  16.942  1.6633 -0.6877 -0.9517
 9239TIP3    H249209   6.740   1.630  16.996  0.9718 -0.9678  0.5017
 9240TIP3   OH249210   5.098   3.191  14.714 -0.2846  0.0209  0.0667
 9240TIP3    H149211   5.088   3.095  14.712 -1.5834  0.1276  0.4482
 9240TIP3    H249212   5.187   3.206  14.684  1.4259 -1.5205  3.7374
 9241TIP3   OH249213   0.712   4.797   0.398 -0.2447 -0.3775 -0.1802
 9241TIP3    H149214   0.678   4.860   0.333  1.2492 -2.0167 -2.7207
 9241TIP3    H249215   0.764   4.851   0.458 -2.1409  1.2816  0.0917
 9242TIP3   OH249216   6.670   5.502  16.454  0.2213  0.3177 -0.0171
 9242TIP3    H149217   6.612   5.429  16.475  0.7017 -0.1594 -0.3233
 9242TIP3    H249218   6.710   5.527  16.537  2.3098 -1.7224 -0.3262
 9243TIP3   OH249219   5.429   3.642   4.814 -0.7765  0.6732  0.8097
 9243TIP3    H149220   5.448   3.702   4.886  0.3364  0.5051  0.6733
 9243TIP3    H249221   5.401   3.561   4.856  2.5706 -0.4232  1.2700
 9244TIP3   OH249222   3.148   5.507   5.077 -0.1445  0.2827  0.8233
 9244TIP3    H149223   3.215   5.561   5.120  0.9722 -0.4922  0.1340
 9244TIP3    H249224   3.156   5.528   4.984 -0.2575 -0.4478  0.6374
 9245TIP3   OH249225   2.939   6.558  14.074 -0.4759 -0.4371 -0.5784
 9245TIP3    H149226   3.001   6.485  14.073  0.6730  0.5094 -0.1878
 9245TIP3    H249227   2.957   6.604  14.156 -1.6531 -0.0853 -0.4961
 9246TIP3   OH249228   5.903   1.708  16.651  0.2684  0.2433 -0.0390
 9246TIP3    H149229   5.818   1.718  16.693 -0.2363 -1.0906 -0.6704
 9246TIP3    H249230   5.886   1.653  16.575  1.4436  1.2263 -1.0572
 9247TIP3   OH249231   2.183   5.902   2.936  0.0304  0.0830  0.3611
 9247TIP3    H149232   2.123   5.875   3.006  0.0203 -1.5002 -0.2312
 9247TIP3    H249233   2.186   5.828   2.876 -0.4356  1.6153 -1.6794
 9248TIP3   OH249234   1.437   3.433   4.134 -0.6815 -0.4735  0.8045
 9248TIP3    H149235   1.494   3.356   4.129  0.1853  0.2068 -2.3483
 9248TIP3    H249236   1.486   3.495   4.188 -0.2812 -1.2783  1.3932
 9249TIP3   OH249237   0.912   6.174   4.562 -0.4316  0.6843 -0.4075
 9249TIP3    H149238   1.005   6.153   4.555 -0.3580  1.0550 -0.5517
 9249TIP3    H249239   0.877   6.110   4.625 -0.0687  0.5868 -0.3065
 9250TIP3   OH249240   0.180   4.696  13.428 -0.2351 -0.6957 -0.3782
 9250TIP3    H149241   0.111   4.731  13.371  0.7852 -1.1192 -1.9120
 9250TIP3    H249242   0.169   4.601  13.423 -0.5118 -0.7381  0.6549
 9251TIP3   OH249243   2.550   1.221   1.289 -0.2832  0.5863 -0.2839
 9251TIP3    H149244   2.578   1.305   1.325  0.5461  0.5173 -0.7334
 9251TIP3    H249245   2.469   1.201   1.334  0.6880  0.5120  1.5182
 9252TIP3   OH249246   6.087   2.838  16.400 -0.5936 -0.3058 -0.3263
 9252TIP3    H149247   6.160   2.776  16.399 -0.9962 -0.7740 -1.0685
 9252TIP3    H249248   6.065   2.850  16.308 -0.9251  0.4697 -0.1515
 9253TIP3   OH249249   5.153   6.621  12.692 -0.4891  0.2054 -0.4628
 9253TIP3    H149250   5.152   6.647  12.600  1.3594  3.4875  0.2728
 9253TIP3    H249251   5.210   6.685  12.735 -0.5239 -1.7203  2.8503
 9254TIP3   OH249252   1.563   3.644  13.571 -0.1387  0.2225  0.2303
 9254TIP3    H149253   1.619   3.662  13.496  2.1190  0.6358  1.9257
 9254TIP3    H249254   1.524   3.728  13.593 -0.4605  0.1879 -0.2041
 9255TIP3   OH249255   3.953   2.777  16.193 -0.2024  0.4722 -0.5918
 9255TIP3    H149256   3.925   2.687  16.209  2.6371 -0.2761  1.0198
 9255TIP3    H249257   3.926   2.825  16.271 -1.5527  1.0121 -1.3704
 9256TIP3   OH249258   0.559   3.710   1.308 -0.3429 -0.0282 -0.1221
 9256TIP3    H149259   0.543   3.665   1.391 -0.2807  0.6662  0.2817
 9256TIP3    H249260   0.508   3.791   1.315  0.6736  0.6382 -0.2236
 9257TIP3   OH249261   2.354   6.790   2.408  0.1920  0.3864  0.4849
 9257TIP3    H149262   2.432   6.735   2.423 -1.4720 -1.7574  1.9184
 9257TIP3    H249263   2.338   6.832   2.492  0.3738  1.6712 -0.1026
 9258TIP3   OH249264   4.255   0.384   4.213 -0.0914  0.3709 -0.0510
 9258TIP3    H149265   4.331   0.381   4.155  0.1590  1.9086  0.1426
 9258TIP3    H249266   4.184   0.417   4.158 -0.7502 -1.3891 -0.3240
 9259TIP3   OH249267   1.898   2.547   0.631 -0.3625  0.4169  0.4898
 9259TIP3    H149268   1.906   2.460   0.593 -2.3827  0.0015  0.9082
 9259TIP3    H249269   1.806   2.554   0.655  0.2278  1.8017  2.5565
 9260TIP3   OH249270   3.087   5.942   1.363  0.3421 -0.7615  0.0180
 9260TIP3    H149271   3.154   5.911   1.423  1.3853  2.2056  0.5738
 9260TIP3    H249272   3.004   5.919   1.405  0.9928 -2.2147  0.5858
 9261TIP3   OH249273   4.666   5.016  16.553  0.0876 -0.2745  0.4881
 9261TIP3    H149274   4.700   5.105  16.547  0.0362 -0.3425 -1.4758
 9261TIP3    H249275   4.739   4.964  16.586  0.7258  0.2096 -0.1320
 9262TIP3   OH249276   3.348   3.988  13.390  0.0511 -0.0359  0.4956
 9262TIP3    H149277   3.330   3.927  13.319  0.5150  1.1004 -0.6402
 9262TIP3    H249278   3.264   3.997  13.435 -1.5841  2.5459 -2.6330
 9263TIP3   OH249279   6.416   2.480  16.245  0.0754 -0.0190 -0.3630
 9263TIP3    H149280   6.389   2.509  16.157 -0.0626  0.0008 -0.3153
 9263TIP3    H249281   6.422   2.561  16.296  1.4543  0.1135 -0.6978
 9264TIP3   OH249282   6.196   3.810  13.586 -0.3546  0.4623  0.7332
 9264TIP3    H149283   6.266   3.825  13.523 -0.5536  2.1751  0.8732
 9264TIP3    H249284   6.170   3.720  13.572 -0.5631  0.8562 -1.8055
 9265TIP3   OH249285   5.868   4.203  14.192 -0.1547  0.3202  0.0554
 9265TIP3    H149286   5.891   4.265  14.123  0.2431 -1.5418 -1.6051
 9265TIP3    H249287   5.781   4.231  14.221  0.9396  2.9684  1.0423
 9266TIP3   OH249288   4.620   2.465   6.660  0.1505 -0.6087 -0.6620
 9266TIP3    H149289   4.577   2.518   6.592  0.0912  2.2068  1.4008
 9266TIP3    H249290   4.708   2.450   6.626 -0.8268 -2.1966 -2.7530
 9267TIP3   OH249291   4.707   3.891  13.593  0.2217  0.4462 -0.3869
 9267TIP3    H149292   4.707   3.949  13.517  0.0043 -0.5073 -1.1334
 9267TIP3    H249293   4.731   3.805  13.559 -3.3442 -0.8555 -0.0995
 9268TIP3   OH249294   1.695   1.914   4.698 -0.0328 -0.3419  0.4239
 9268TIP3    H149295   1.749   1.854   4.750  0.6731 -1.4410 -1.4731
 9268TIP3    H249296   1.755   1.984   4.671  0.4189 -1.3366 -1.3235
 9269TIP3   OH249297   1.454   5.836   0.926  0.4462 -0.2449 -0.5310
 9269TIP3    H149298   1.395   5.828   0.852  1.5866 -0.9984 -1.3906
 9269TIP3    H249299   1.443   5.755   0.975 -1.4810  0.8983  1.0820
 9270TIP3   OH249300   3.808   3.105   0.619 -0.3518 -0.0220  0.3187
 9270TIP3    H149301   3.891   3.106   0.571 -0.0566  2.6635  0.7444
 9270TIP3    H249302   3.834   3.116   0.711 -1.1636  0.6807  0.4743
 9271TIP3   OH249303   0.524   4.052  13.944  1.0568  0.6459  0.8110
 9271TIP3    H149304   0.456   4.049  13.877  2.7374  1.1809 -1.0112
 9271TIP3    H249305   0.495   3.990  14.011 -0.4521 -0.2979 -0.6471
 9272TIP3   OH249306   0.248   4.803  14.515  0.0138  0.3590 -0.2200
 9272TIP3    H149307   0.173   4.842  14.561 -0.7980 -0.3760 -0.8726
 9272TIP3    H249308   0.214   4.720  14.481  0.7255  0.6341 -1.6842
 9273TIP3   OH249309   1.957   2.384   5.855 -0.2235  0.1641  0.5521
 9273TIP3    H149310   1.869   2.376   5.893  0.6210 -1.0730  2.4302
 9273TIP3    H249311   1.995   2.297   5.866  1.5061  0.8842  0.4945
 9274TIP3   OH249312   1.112   3.219   3.823 -0.0343  0.2037 -0.4513
 9274TIP3    H149313   1.131   3.160   3.896  0.1374  1.0149  0.1745
 9274TIP3    H249314   1.049   3.171   3.769  0.1119 -0.5518  0.0360
 9275TIP3   OH249315   0.001   0.623   0.616  0.0277  0.2670  0.1355
 9275TIP3    H149316   0.014   0.603   0.524  1.7368 -0.3243  0.4676
 9275TIP3    H249317   0.004   0.718   0.621  0.4717  0.2864 -0.3697
 9276TIP3   OH249318   2.493   0.123   5.140 -0.4490  0.3830  0.0640
 9276TIP3    H149319   2.510   0.053   5.202  2.1128 -0.2688 -1.2675
 9276TIP3    H249320   2.548   0.196   5.170 -0.7990  0.7887 -0.2645
 9277TIP3   OH249321   4.642   6.141  13.946  0.4310  0.7830  0.4905
 9277TIP3    H149322   4.707   6.149  13.876 -0.4323 -2.2122 -0.7863
 9277TIP3    H249323   4.558   6.158  13.903 -0.0573 -0.4602  0.8969
 9278TIP3   OH249324   3.404   6.333  17.029 -0.1071  0.1895  0.7386
 9278TIP3    H149325   3.397   6.345  16.934 -0.4746 -1.1506  0.5787
 9278TIP3    H249326   3.446   6.414  17.060  1.5327 -0.0216 -0.7654
 9279TIP3   OH249327   6.720   5.293  14.384 -0.6302  0.5049  0.3914
 9279TIP3    H149328   6.626   5.286  14.403 -0.8410  2.1173  0.1403
 9279TIP3    H249329   6.732   5.243  14.303 -0.9608 -0.9841  1.2247
 9280TIP3   OH249330   6.029   2.299  14.124  0.1692  0.4972 -0.2654
 9280TIP3    H149331   6.083   2.378  14.113 -0.4118  1.1583  1.3773
 9280TIP3    H249332   5.942   2.326  14.094 -0.5553  1.2037  2.2750
 9281TIP3   OH249333   5.908   4.038  15.138  0.2455 -0.3720 -0.1538
 9281TIP3    H149334   5.840   4.053  15.203  0.0085 -2.5198  0.1512
 9281TIP3    H249335   5.870   4.071  15.056 -0.2303  0.5628  0.4312
 9282TIP3   OH249336   6.029   3.470  13.930  0.2371  0.0530 -0.3111
 9282TIP3    H149337   6.099   3.430  13.879 -0.2719  0.1643 -1.1095
 9282TIP3    H249338   6.073   3.504  14.008  0.9125 -0.7324 -0.3341
 9283TIP3   OH249339   4.934   6.086  12.723  0.2267  0.7212  0.2849
 9283TIP3    H149340   4.886   6.165  12.699  0.4493  0.8801  0.3660
 9283TIP3    H249341   5.010   6.085  12.666  0.1440  0.4826  0.1759
 9284TIP3   OH249342   3.300   5.743   5.200  0.3523 -0.7511  0.2696
 9284TIP3    H149343   3.328   5.832   5.222 -0.7361 -0.2243 -0.4067
 9284TIP3    H249344   3.255   5.753   5.116 -1.5328 -1.6109  1.1488
 9285TIP3   OH249345   2.120   4.566  10.524 -0.4503  0.5880 -0.2522
 9285TIP3    H149346   2.057   4.494  10.520  0.2869 -0.0676 -0.2400
 9285TIP3    H249347   2.098   4.621  10.449 -0.3297 -0.2370 -0.9143
 9286TIP3   OH249348   5.899   2.596  15.756  0.2813 -0.1013 -0.3178
 9286TIP3    H149349   5.861   2.677  15.792  1.9117  0.2141  0.8362
 9286TIP3    H249350   5.839   2.527  15.785 -0.2528  0.5271  0.1201
 9287TIP3   OH249351   3.260   4.184  11.340 -0.0374  0.1958  0.2474
 9287TIP3    H149352   3.284   4.182  11.432 -0.5472  0.3998  0.3893
 9287TIP3    H249353   3.173   4.225  11.338 -0.3208 -0.4067 -0.2567
 9288TIP3   OH249354   0.718   1.984   2.488 -0.1284 -0.2471 -0.2457
 9288TIP3    H149355   0.668   2.037   2.549  0.6649 -0.0074  0.2132
 9288TIP3    H249356   0.768   2.048   2.436  1.1412 -0.5383  0.5810
 9289TIP3   OH249357   2.006   3.454   4.941  0.0196 -0.1447  0.1019
 9289TIP3    H149358   1.992   3.517   4.870 -0.1459 -0.9366 -0.5871
 9289TIP3    H249359   2.020   3.508   5.019  0.6025  0.7520 -0.6013
 9290TIP3   OH249360   0.012   6.819   1.836 -0.4729  0.4781  0.2962
 9290TIP3    H149361  -0.035   6.902   1.845 -1.1070  0.0773  0.7941
 9290TIP3    H249362   0.044   6.800   1.924  0.4853  0.6585 -0.0063
 9291TIP3   OH249363   0.643   2.645   3.055  0.2519 -0.2490  0.5203
 9291TIP3    H149364   0.678   2.688   3.133  1.4026  1.0722 -0.6871
 9291TIP3    H249365   0.564   2.694   3.033  0.7227  0.3128  0.0388
 9292TIP3   OH249366   6.157   0.371   0.951  0.4792 -0.0210  0.3649
 9292TIP3    H149367   6.229   0.397   0.893  1.3994 -0.7387  1.1528
 9292TIP3    H249368   6.200   0.346   1.033 -0.7244  0.1139  1.0599
 9293TIP3   OH249369   1.151   5.217  13.889  0.8014 -0.0642  0.5405
 9293TIP3    H149370   1.239   5.200  13.921  0.8594  1.9815  1.6309
 9293TIP3    H249371   1.096   5.153  13.934  1.2415  1.1205  2.8651
 9294TIP3   OH249372   0.398   4.205   5.237  0.3007 -0.5778  0.2263
 9294TIP3    H149373   0.490   4.188   5.258  0.3586 -2.1278 -1.0338
 9294TIP3    H249374   0.379   4.145   5.165 -1.7647 -0.4243  0.5874
 9295TIP3   OH249375   3.847   4.828  12.514 -0.1844 -0.4174  0.6483
 9295TIP3    H149376   3.895   4.772  12.575 -0.3732  0.0570  1.2352
 9295TIP3    H249377   3.872   4.917  12.538  0.7010 -0.2491 -0.7536
 9296TIP3   OH249378   0.679   0.027  14.022 -0.3586 -0.1135 -0.4877
 9296TIP3    H149379   0.769   0.041  14.052  0.0251 -1.4244 -0.9421
 9296TIP3    H249380   0.626   0.083  14.079  0.6218 -0.3339  0.6929
 9297TIP3   OH249381   5.191   2.474   4.036 -0.1893 -0.3302 -0.4231
 9297TIP3    H149382   5.285   2.459   4.045 -0.1482  0.0220 -0.2059
 9297TIP3    H249383   5.170   2.531   4.111 -0.4971 -0.0835 -0.6977
 9298TIP3   OH249384   2.793   2.514   0.902  0.2845 -0.5007 -0.2762
 9298TIP3    H149385   2.751   2.428   0.904  1.0050 -0.8823 -1.0699
 9298TIP3    H249386   2.786   2.543   0.811  2.7046 -1.0831 -0.7194
 9299TIP3   OH249387   5.666   4.296   6.811  0.0680  0.1518  0.7466
 9299TIP3    H149388   5.747   4.266   6.854  0.7764  0.5901 -0.2554
 9299TIP3    H249389   5.693   4.320   6.723 -1.3322 -0.5667  0.0853
 9300TIP3   OH249390   0.612   3.636  14.623  0.5063 -0.1063 -0.3782
 9300TIP3    H149391   0.547   3.585  14.671 -0.6441  1.1103 -0.5913
 9300TIP3    H249392   0.684   3.649  14.685  0.0954 -0.5752  0.2056
 9301TIP3   OH249393   6.086   1.066  14.025 -0.2493 -0.3009 -0.2102
 9301TIP3    H149394   6.078   0.991  13.965 -1.4023  0.7012 -1.3855
 9301TIP3    H249395   5.997   1.079  14.057  0.0501  0.2341  0.4116
 9302TIP3   OH249396   1.260   2.168   1.095 -0.0121 -0.1812 -0.1122
 9302TIP3    H149397   1.266   2.252   1.049 -2.3052 -1.1442 -2.3781
 9302TIP3    H249398   1.319   2.110   1.047 -0.9833 -0.7195 -0.6626
 9303TIP3   OH249399   3.984   3.597   0.941  0.1227 -0.2150 -0.0628
 9303TIP3    H149400   4.054   3.580   1.005  0.3904 -2.5969 -0.9150
 9303TIP3    H249401   4.004   3.685   0.908  0.5308  0.7076  2.3621
 9304TIP3   OH249402   3.136   6.355  13.963 -0.4735  0.1852 -0.7622
 9304TIP3    H149403   3.068   6.296  13.931 -1.1414 -0.1911  1.2182
 9304TIP3    H249404   3.218   6.316  13.932 -0.9653 -1.2539 -0.3173
 9305TIP3   OH249405   2.948   0.816  14.157 -0.8737 -0.4771 -0.0234
 9305TIP3    H149406   2.876   0.778  14.108 -1.5839 -0.6927  1.1411
 9305TIP3    H249407   2.992   0.875  14.095 -2.5502  0.3028 -0.5283
 9306TIP3   OH249408   5.264   6.155   2.768 -0.4375  0.4277 -0.2980
 9306TIP3    H149409   5.254   6.153   2.673 -0.5521 -0.9869 -0.2782
 9306TIP3    H249410   5.199   6.219   2.798  0.1856  1.5251 -1.2213
 9307TIP3   OH249411   2.126   3.636   2.128  0.5577 -0.5856 -0.1031
 9307TIP3    H149412   2.209   3.638   2.175  1.3849  1.2362 -1.5171
 9307TIP3    H249413   2.063   3.677   2.187  0.2335 -3.3100  1.5847
 9308TIP3   OH249414   5.026   5.659   0.350 -0.2252  0.1899 -0.2243
 9308TIP3    H149415   4.987   5.709   0.277 -2.6710 -1.8187 -0.4534
 9308TIP3    H249416   4.963   5.669   0.421 -0.1695 -1.4912  0.1031
 9309TIP3   OH249417   2.508   1.211   5.601 -0.0789 -0.1453  0.5502
 9309TIP3    H149418   2.493   1.157   5.679 -1.3712 -1.8233 -0.7973
 9309TIP3    H249419   2.435   1.191   5.543  2.0505 -0.7936 -2.1026
 9310TIP3   OH249420   2.756   6.216   3.756  0.1348  0.3244  0.5207
 9310TIP3    H149421   2.843   6.186   3.782 -0.7686 -2.5913  0.5675
 9310TIP3    H249422   2.751   6.198   3.662 -0.4185  0.4298  0.5250
 9311TIP3   OH249423   0.149   5.023  16.236  0.0582 -0.1161  0.7892
 9311TIP3    H149424   0.105   4.948  16.197  0.9855  0.1408 -0.8498
 9311TIP3    H249425   0.181   4.992  16.321  0.2915 -1.5167  0.2056
 9312TIP3   OH249426   2.013   1.272  16.867 -0.1120 -0.5588  0.1911
 9312TIP3    H149427   2.027   1.293  16.960 -0.5298  0.1837  0.0975
 9312TIP3    H249428   1.932   1.220  16.867 -0.4759 -0.0055  0.1910
 9313TIP3   OH249429   5.587   1.237   1.119 -0.6885 -0.2464  0.8299
 9313TIP3    H149430   5.611   1.323   1.084 -1.1391 -0.0964  0.8841
 9313TIP3    H249431   5.605   1.243   1.213 -1.4626  0.0564  0.9644
 9314TIP3   OH249432   4.601   0.159   3.129 -0.1032  0.3558  0.2519
 9314TIP3    H149433   4.594   0.068   3.156 -1.6670  0.4622  0.2706
 9314TIP3    H249434   4.534   0.205   3.180 -2.4968  0.7185 -2.9162
 9315TIP3   OH249435   0.567   0.607   1.149 -0.2922 -0.7167  0.6355
 9315TIP3    H149436   0.541   0.697   1.169 -0.5615 -0.4483 -0.8327
 9315TIP3    H249437   0.605   0.612   1.061  0.6258 -1.8715  0.9471
 9316TIP3   OH249438   3.449   1.533   3.586  0.2219 -0.3225  0.1043
 9316TIP3    H149439   3.457   1.487   3.669 -0.4176 -1.0032 -0.1997
 9316TIP3    H249440   3.437   1.624   3.610 -3.6411 -0.8995  0.9489
 9317TIP3   OH249441   5.947   2.252   1.204 -0.2562  0.6414  0.5790
 9317TIP3    H149442   6.029   2.280   1.162 -2.2422 -0.6924 -5.0248
 9317TIP3    H249443   5.884   2.320   1.182 -2.1432 -1.6746 -1.8272
 9318TIP3   OH249444   4.868   0.625  12.681  0.2687 -0.8445  0.4749
 9318TIP3    H149445   4.899   0.689  12.616 -0.8795  0.2811  0.9915
 9318TIP3    H249446   4.783   0.658  12.709  0.1401 -2.0235  1.5893
 9319TIP3   OH249447   4.057   5.349  13.908 -1.2053 -0.3715 -0.0702
 9319TIP3    H149448   4.059   5.274  13.848  3.2725  0.5459 -1.3898
 9319TIP3    H249449   4.051   5.310  13.995 -0.6595 -2.1501 -0.7889
 9320TIP3   OH249450   1.335   6.349   3.083  0.1698 -0.1977  0.1521
 9320TIP3    H149451   1.354   6.268   3.036  0.1323 -0.0935 -0.0434
 9320TIP3    H249452   1.416   6.400   3.077 -0.1966  0.3058 -0.8020
 9321TIP3   OH249453   1.373   2.160  16.958  0.5435  0.4874 -0.5420
 9321TIP3    H149454   1.421   2.242  16.961  0.5186  0.4821  2.0435
 9321TIP3    H249455   1.428   2.097  17.005 -0.3762 -0.4201 -0.6364
 9322TIP3   OH249456   0.232   6.194   2.332  0.1746 -0.2190  0.1760
 9322TIP3    H149457   0.153   6.169   2.284  0.0321 -1.9283  1.1935
 9322TIP3    H249458   0.280   6.111   2.342  0.6791  0.2541  2.0676
 9323TIP3   OH249459   0.551   4.931  15.519 -0.1460 -0.5766  0.3168
 9323TIP3    H149460   0.503   4.904  15.597 -1.0208 -0.1355 -0.0597
 9323TIP3    H249461   0.581   4.849  15.480 -1.1626 -0.9072  0.1986
 9324TIP3   OH249462   2.988   0.532  14.732  0.4792  0.1378 -0.1261
 9324TIP3    H149463   3.040   0.485  14.667 -0.8175 -2.7303  0.7478
 9324TIP3    H249464   2.918   0.574  14.682  0.4537 -0.6493 -0.7683
 9325TIP3   OH249465   3.060   3.232  12.935 -0.8296  0.4317  0.2628
 9325TIP3    H149466   2.971   3.215  12.903 -0.3963 -0.8278 -0.3827
 9325TIP3    H249467   3.065   3.186  13.019 -0.0448 -1.8245 -0.9041
 9326TIP3   OH249468   2.945   3.923   4.558  0.3323 -0.0401 -0.0079
 9326TIP3    H149469   3.028   3.938   4.512  0.6926  0.2494  0.7207
 9326TIP3    H249470   2.905   3.849   4.513  1.0585 -0.2785 -0.2681
 9327TIP3   OH249471   3.236   1.380  11.590 -0.5030 -0.5138  0.3805
 9327TIP3    H149472   3.252   1.453  11.529  0.1989 -0.3320  0.7818
 9327TIP3    H249473   3.188   1.421  11.663 -1.0200 -0.6627  0.1343
 9328TIP3   OH249474   2.227   3.253  11.338 -0.7767  0.2491  0.0485
 9328TIP3    H149475   2.314   3.227  11.307 -0.4705 -0.0038  1.0809
 9328TIP3    H249476   2.232   3.348  11.345 -0.6724  0.2600 -0.1571
 9329TIP3   OH249477   6.557   0.402  11.233  0.0926  0.7990 -0.1934
 9329TIP3    H149478   6.582   0.311  11.244  0.2618  0.8975  0.2485
 9329TIP3    H249479   6.499   0.402  11.157 -0.3355  0.2414  0.1255
 9330TIP3   OH249480   4.897   3.807   4.347  0.3894  0.1799 -0.0748
 9330TIP3    H149481   4.834   3.858   4.399  0.4030  1.9575 -1.6731
 9330TIP3    H249482   4.965   3.782   4.409 -0.8053  0.0961  1.2490
 9331TIP3   OH249483   2.728   1.163   4.168  0.1814  0.5875 -0.1720
 9331TIP3    H149484   2.779   1.192   4.244  0.2539 -1.3641  0.5915
 9331TIP3    H249485   2.637   1.168   4.197  0.2324 -0.5949  0.2397
 9332TIP3   OH249486   1.358   6.778  13.101  0.0674 -0.2336  0.0306
 9332TIP3    H149487   1.417   6.719  13.055  0.6881 -0.5847  1.2376
 9332TIP3    H249488   1.377   6.764  13.193 -1.1604  0.4324  0.4103
 9333TIP3   OH249489   1.566   6.506   3.101  0.4354  0.0119  0.0408
 9333TIP3    H149490   1.656   6.508   3.069  0.2063  0.4482 -0.6043
 9333TIP3    H249491   1.543   6.598   3.112 -0.1298 -0.0683 -0.3970
 9334TIP3   OH249492   5.855   2.026   5.314 -0.3560 -0.5897 -0.1464
 9334TIP3    H149493   5.948   2.007   5.302 -0.1880  0.2225 -0.2116
 9334TIP3    H249494   5.822   1.951   5.363  1.0569  0.6036  2.8823
 9335TIP3   OH249495   1.745   0.092   4.911 -0.2714  0.2515  0.3502
 9335TIP3    H149496   1.676   0.100   4.977 -2.2488 -0.8021 -1.4288
 9335TIP3    H249497   1.778   0.003   4.922  1.0576  0.8383  1.3643
 9336TIP3   OH249498   5.796   1.337   6.526  0.6079  1.3514 -0.0849
 9336TIP3    H149499   5.844   1.295   6.598  2.0725  1.9669 -0.6553
 9336TIP3    H249500   5.711   1.359   6.564  1.2053  1.3289  1.3525
 9337TIP3   OH249501   0.904   0.659   2.667 -0.3209 -0.1526 -0.5518
 9337TIP3    H149502   0.964   0.652   2.741 -0.5832  0.3640 -0.2884
 9337TIP3    H249503   0.938   0.597   2.602 -0.3553 -0.9590  0.1797
 9338TIP3   OH249504   1.193   4.345   1.275  0.2804 -0.1721 -0.3989
 9338TIP3    H149505   1.244   4.417   1.239  1.1598 -0.6239 -0.0820
 9338TIP3    H249506   1.188   4.363   1.369 -1.2107  0.5091 -0.5716
 9339TIP3   OH249507   3.339   3.080   2.892 -0.3006 -0.0513  0.1585
 9339TIP3    H149508   3.268   3.075   2.829  0.2668 -0.8691 -0.4439
 9339TIP3    H249509   3.396   3.150   2.859 -0.6649  0.3971  0.4754
 9340TIP3   OH249510   5.755   4.511   1.067  0.2078  0.3723 -0.4111
 9340TIP3    H149511   5.827   4.552   1.019  1.3250  1.2658  1.8721
 9340TIP3    H249512   5.751   4.559   1.149 -2.1689 -0.5305  0.0674
 9341TIP3   OH249513   2.679   0.062   5.484  0.0186 -0.3643  0.3125
 9341TIP3    H149514   2.704   0.026   5.569  0.6788  0.9665  0.7210
 9341TIP3    H249515   2.704   0.155   5.489 -0.1725 -0.1960 -1.2363
 9342TIP3   OH249516   0.875   2.815   3.633 -0.1492  0.1348 -0.0187
 9342TIP3    H149517   0.933   2.814   3.710  0.5470  1.3589 -0.4925
 9342TIP3    H249518   0.887   2.729   3.593  0.1200 -0.2116  0.7787
 9343TIP3   OH249519   5.049   5.889  13.152 -0.1117 -0.0891  0.1276
 9343TIP3    H149520   5.119   5.948  13.121  1.7776 -3.2909 -2.5013
 9343TIP3    H249521   4.986   5.888  13.080 -1.3433  0.4435  1.1717
 9344TIP3   OH249522   3.405   1.209  16.123  0.2503 -0.3039 -0.2067
 9344TIP3    H149523   3.436   1.181  16.209 -0.0092 -0.3223 -0.1177
 9344TIP3    H249524   3.463   1.281  16.098  0.5577 -0.5400 -0.1818
 9345TIP3   OH249525   1.577   1.224   1.515  0.3549 -0.5557 -0.0803
 9345TIP3    H149526   1.632   1.186   1.446 -0.0408  1.7808 -1.8020
 9345TIP3    H249527   1.519   1.152   1.541  0.5505 -1.5597 -2.1696
 9346TIP3   OH249528   3.603   1.526   0.225  0.3889  0.5136  0.5095
 9346TIP3    H149529   3.687   1.566   0.248  0.0518  1.8006 -0.3777
 9346TIP3    H249530   3.545   1.600   0.209 -0.7875 -0.3569  0.5990
 9347TIP3   OH249531   6.644   5.219   3.163 -0.0406  0.9573  0.0268
 9347TIP3    H149532   6.624   5.197   3.072  0.1924  0.9402 -0.0234
 9347TIP3    H249533   6.564   5.258   3.198 -2.2664 -4.2148  1.5804
 9348TIP3   OH249534   5.193   5.547  10.930 -0.3178 -0.4240 -0.5807
 9348TIP3    H149535   5.144   5.536  11.012  1.4174  0.9331  0.7219
 9348TIP3    H249536   5.236   5.462  10.917  0.8614 -0.1186  0.9809
 9349TIP3   OH249537   5.522   6.511  11.775  0.9781 -0.7543  0.1894
 9349TIP3    H149538   5.537   6.420  11.801  0.3286 -1.0619 -0.4496
 9349TIP3    H249539   5.504   6.506  11.681 -0.4602 -0.1517  0.4054
 9350TIP3   OH249540   6.112   5.610   1.225  0.3240  0.4420  0.8782
 9350TIP3    H149541   6.176   5.595   1.295  2.3699 -0.9394 -1.1525
 9350TIP3    H249542   6.071   5.525   1.211  0.4080  0.5448 -0.0207
 9351TIP3   OH249543   4.639   2.816   1.115  0.2257 -0.2124  0.0139
 9351TIP3    H149544   4.579   2.751   1.150 -0.2130 -1.1758 -2.3527
 9351TIP3    H249545   4.582   2.884   1.078  0.6764  1.4270  2.1809
 9352TIP3   OH249546   5.019   2.918  15.327  0.1271  0.1214 -0.1556
 9352TIP3    H149547   5.106   2.915  15.288 -0.4680 -1.3284 -1.5095
 9352TIP3    H249548   5.018   2.997  15.380  2.7424 -0.5839  1.0908
 9353TIP3   OH249549   6.554   2.399   0.476  0.6102  0.3100  1.1397
 9353TIP3    H149550   6.565   2.360   0.389  2.0475 -0.4744  1.6334
 9353TIP3    H249551   6.631   2.370   0.525  2.0794  4.1895  1.4328
 9354TIP3   OH249552   1.336   0.424  16.029 -0.1118  0.8411  0.1768
 9354TIP3    H149553   1.300   0.341  16.060 -1.0505  1.4171  0.6728
 9354TIP3    H249554   1.326   0.484  16.103  2.3492  0.9198  0.5211
 9355TIP3   OH249555   1.469   6.000  15.925 -0.1283 -0.3812 -0.9546
 9355TIP3    H149556   1.480   6.060  15.851  0.6813  1.1679  0.3581
 9355TIP3    H249557   1.382   6.022  15.960  0.2713  0.2168 -0.3239
 9356TIP3   OH249558   4.846   3.579  16.699 -0.3512  0.4686  0.3843
 9356TIP3    H149559   4.934   3.548  16.721 -1.0246 -0.6212  1.6561
 9356TIP3    H249560   4.789   3.540  16.765 -2.0861 -0.4054 -1.5256
 9357TIP3   OH249561   6.674   0.696   2.455  0.2733  0.3494  0.0491
 9357TIP3    H149562   6.724   0.724   2.532  1.1866 -0.8731 -0.0830
 9357TIP3    H249563   6.583   0.701   2.483  0.6082 -0.6505  1.4366
 9358TIP3   OH249564   0.129   2.472  12.080  0.1778 -0.1150 -0.3946
 9358TIP3    H149565   0.117   2.522  11.999 -0.6849 -0.8090 -0.7175
 9358TIP3    H249566   0.224   2.466  12.090  0.2951  0.5997 -0.9629
 9359TIP3   OH249567   5.715   0.249  13.081 -0.6771 -0.1510  0.0321
 9359TIP3    H149568   5.677   0.331  13.050  0.6925  0.5626  0.1514
 9359TIP3    H249569   5.738   0.267  13.172 -0.2333 -0.6109  0.0150
 9360TIP3   OH249570   2.588   4.963  10.882 -0.0645  0.2053 -0.2107
 9360TIP3    H149571   2.587   5.055  10.856  2.4408  0.3444 -0.0626
 9360TIP3    H249572   2.583   4.914  10.799  1.3033  0.5584 -0.5357
 9361TIP3   OH249573   2.121   5.856  10.993  0.1896 -0.4206  0.3111
 9361TIP3    H149574   2.181   5.833  11.064  0.1349 -0.3588  0.3767
 9361TIP3    H249575   2.104   5.773  10.948  1.8486 -0.1654 -0.8985
 9362TIP3   OH249576   2.773   4.359   1.258  0.0952  0.0297 -0.2706
 9362TIP3    H149577   2.811   4.272   1.250  0.5845  0.3440 -1.6149
 9362TIP3    H249578   2.842   4.413   1.296  0.4685  0.2460 -1.2322
 9363TIP3   OH249579   0.271   0.066  15.893 -0.5616  0.1920 -0.5917
 9363TIP3    H149580   0.220   0.094  15.970  0.6838 -0.5259  0.5351
 9363TIP3    H249581   0.239   0.122  15.822  0.1058  2.8404  1.0205
 9364TIP3   OH249582   4.374   3.297   1.652 -0.1377  0.5814  0.7881
 9364TIP3    H149583   4.418   3.381   1.644 -0.2457  0.4905 -1.1748
 9364TIP3    H249584   4.287   3.318   1.687  0.6641  0.9717  2.6814
 9365TIP3   OH249585   4.183   4.762  11.580 -0.3258  0.4879 -0.1340
 9365TIP3    H149586   4.160   4.725  11.666  0.9092  1.1111  0.4940
 9365TIP3    H249587   4.270   4.726  11.562 -0.2509  0.9777 -0.7564
 9366TIP3   OH249588   5.452   3.078   1.346  0.3556  0.0740 -0.4300
 9366TIP3    H149589   5.493   3.105   1.264 -0.8751 -0.0865 -1.1192
 9366TIP3    H249590   5.386   3.014   1.320 -0.3708  0.3690  0.6405
 9367TIP3   OH249591   3.924   3.940  11.305  0.1227 -0.0919  0.2545
 9367TIP3    H149592   3.980   3.865  11.320  0.4041 -0.4369 -2.2058
 9367TIP3    H249593   3.841   3.903  11.274 -0.4514  0.5403  0.9912
 9368TIP3   OH249594   1.334   2.077  15.839  0.3235  0.7347 -0.9288
 9368TIP3    H149595   1.274   2.078  15.765  0.1988 -1.5577 -0.9453
 9368TIP3    H249596   1.279   2.058  15.915  0.9701 -2.1533 -1.0466
 9369TIP3   OH249597   1.888   1.293  15.984 -0.1939  0.7117 -0.3551
 9369TIP3    H149598   1.942   1.341  16.047 -0.1262 -0.5586  0.5853
 9369TIP3    H249599   1.938   1.215  15.963 -0.5423  0.7595 -1.4571
 9370TIP3   OH249600   2.298   2.754  16.831  0.0006 -1.2858  0.2217
 9370TIP3    H149601   2.312   2.845  16.858 -1.3038 -0.6100 -1.1817
 9370TIP3    H249602   2.213   2.731  16.869 -1.4748 -0.5870 -2.4011
 9371TIP3   OH249603   3.750   6.392  13.078 -0.0826  0.0394  0.1168
 9371TIP3    H149604   3.668   6.419  13.037  0.7338  1.1077 -0.9195
 9371TIP3    H249605   3.815   6.400  13.008  1.2997  1.4891  1.4648
 9372TIP3   OH249606   3.550   4.713  12.503 -0.3288  0.0358  0.0677
 9372TIP3    H149607   3.583   4.636  12.550 -0.1583 -0.6124 -1.0756
 9372TIP3    H249608   3.625   4.772  12.500 -0.4625  0.2726  0.9585
 9373TIP3   OH249609   5.123   3.891   6.858  0.0320 -0.4521  0.3383
 9373TIP3    H149610   5.075   3.842   6.924 -2.2759  3.0943  1.5498
 9373TIP3    H249611   5.083   3.865   6.775 -1.2348 -0.5635  0.9584
 9374TIP3   OH249612   5.383   4.246  12.661  0.5173 -0.2446  0.0317
 9374TIP3    H149613   5.473   4.241  12.693  1.2829  0.6260 -1.8219
 9374TIP3    H249614   5.390   4.291  12.576 -1.7408  0.4249  0.1274
 9375TIP3   OH249615   5.118   5.253   2.872  0.2732 -0.1718 -0.3294
 9375TIP3    H149616   5.170   5.236   2.950 -0.4517  0.1483  0.2399
 9375TIP3    H249617   5.133   5.346   2.853 -0.5442  0.0846  0.2036
 9376TIP3   OH249618   2.669   4.209  15.748  0.7740  0.6351  0.0336
 9376TIP3    H149619   2.719   4.289  15.766  1.6924  0.0955 -0.0902
 9376TIP3    H249620   2.724   4.159  15.688  0.3323 -0.2134  0.3174
 9377TIP3   OH249621   0.312   0.260  11.511  0.0872  0.1933 -0.1906
 9377TIP3    H149622   0.388   0.295  11.558 -1.5645  3.7011  0.1754
 9377TIP3    H249623   0.322   0.291  11.421 -1.6829  2.2971  0.2577
 9378TIP3   OH249624   5.004   4.772  13.889 -1.0527  0.5261 -0.5541
 9378TIP3    H149625   5.081   4.803  13.937  0.4937 -2.2720 -1.0373
 9378TIP3    H249626   5.003   4.825  13.809  0.0841  0.9533 -0.3086
 9379TIP3   OH249627   1.134   2.365   2.503 -0.6093  0.2305 -0.4946
 9379TIP3    H149628   1.113   2.380   2.410  0.4320  2.0406 -0.4895
 9379TIP3    H249629   1.229   2.355   2.504 -0.5460  0.8732  0.4503
 9380TIP3   OH249630   0.428   3.996   2.674 -0.4302 -0.0277 -0.1694
 9380TIP3    H149631   0.384   3.917   2.643  0.3342 -0.1804 -0.9251
 9380TIP3    H249632   0.424   4.056   2.600 -1.2561  0.7551  0.5018
 9381TIP3   OH249633   3.706   1.809   2.552  0.4060 -0.1121  0.1971
 9381TIP3    H149634   3.680   1.720   2.575 -2.3030  0.1787 -1.3173
 9381TIP3    H249635   3.625   1.860   2.557  1.7606  2.1592  0.4036
 9382TIP3   OH249636   5.528   0.831  14.308  0.2320 -0.6317 -0.2689
 9382TIP3    H149637   5.587   0.817  14.382  1.6707 -0.2025 -1.2891
 9382TIP3    H249638   5.495   0.744  14.287  0.6722 -0.9102  0.1717
 9383TIP3   OH249639   3.962   4.040   5.272 -0.8567 -0.1607  0.5698
 9383TIP3    H149640   3.922   4.001   5.350 -0.3918 -2.3231 -0.2125
 9383TIP3    H249641   4.054   4.053   5.296 -0.5889 -1.3323  0.2468
 9384TIP3   OH249642   4.235   5.390   0.510  0.4636  0.1870  0.2822
 9384TIP3    H149643   4.249   5.415   0.602 -0.8766 -1.8475  1.1060
 9384TIP3    H249644   4.182   5.462   0.474  1.8618  1.5112  0.7745
 9385TIP3   OH249645   2.815   2.113   1.677  0.3794  0.1485 -0.5687
 9385TIP3    H149646   2.810   2.019   1.663 -1.7635  0.2351 -0.7316
 9385TIP3    H249647   2.858   2.123   1.761 -1.5566 -1.1343  0.6517
 9386TIP3   OH249648   2.950   2.424   3.766  0.3739  0.0400  0.0004
 9386TIP3    H149649   2.926   2.417   3.859 -1.1095  0.4591 -0.3172
 9386TIP3    H249650   2.875   2.386   3.720  1.7867 -1.6881 -0.9996
 9387TIP3   OH249651   1.683   4.862  11.253 -0.2096 -0.3744 -0.0216
 9387TIP3    H149652   1.687   4.786  11.194 -0.1462 -0.7072  0.4080
 9387TIP3    H249653   1.590   4.884  11.257 -0.4154 -1.3513  1.0049
 9388TIP3   OH249654   3.361   1.510   0.556 -0.8024 -0.7080  0.0407
 9388TIP3    H149655   3.391   1.484   0.643  0.9245 -1.9940 -0.8669
 9388TIP3    H249656   3.413   1.588   0.535 -1.0908 -0.5012  0.0903
 9389TIP3   OH249657   5.745   2.657  16.207  0.0390  0.6965 -0.3152
 9389TIP3    H149658   5.778   2.665  16.296 -0.0394  0.1203 -0.2333
 9389TIP3    H249659   5.799   2.590  16.166 -0.9424 -0.1871 -0.2082
 9390TIP3   OH249660   5.169   5.659   3.954 -0.5969 -0.2794  0.0677
 9390TIP3    H149661   5.161   5.572   3.993  1.8710 -0.3771  0.5061
 9390TIP3    H249662   5.208   5.713   4.023 -0.0771  0.6103 -0.8903
 9391TIP3   OH249663   5.239   0.435   4.379  0.2186 -0.1406  0.2095
 9391TIP3    H149664   5.274   0.366   4.323  1.7961 -1.6894  2.8950
 9391TIP3    H249665   5.307   0.503   4.380 -1.4110  1.7079 -2.5805
 9392TIP3   OH249666   6.524   6.177  15.066  0.4391  0.6429  0.0845
 9392TIP3    H149667   6.566   6.188  15.151 -0.6633 -0.4809  0.8071
 9392TIP3    H249668   6.581   6.115  15.019  0.1273 -0.1284  0.6955
 9393TIP3   OH249669   1.421   3.639  12.896 -0.5144  0.2069  0.0468
 9393TIP3    H149670   1.456   3.554  12.924  0.2702  0.7464  0.7966
 9393TIP3    H249671   1.387   3.624  12.808 -1.2073 -1.0900  0.5055
 9394TIP3   OH249672   6.044   0.753  12.621 -0.0000  0.1699  0.2098
 9394TIP3    H149673   6.066   0.834  12.667  0.0929 -0.8998  2.1633
 9394TIP3    H249674   5.973   0.715  12.673 -0.8830 -0.4337 -1.3676
 9395TIP3   OH249675   3.367   3.805  14.615  0.0576  0.3181  0.1511
 9395TIP3    H149676   3.298   3.847  14.667  0.0972 -0.0534  0.5151
 9395TIP3    H249677   3.403   3.738  14.674  0.5813  0.3646 -0.1124
 9396TIP3   OH249678   2.929   2.741  15.477  0.2896  0.1038  0.1562
 9396TIP3    H149679   2.980   2.676  15.526  0.7890 -0.6034 -1.2646
 9396TIP3    H249680   2.847   2.749  15.527  0.7991 -0.5458  1.1356
 9397TIP3   OH249681   1.049   1.581   2.890  0.3305  0.3503 -0.0727
 9397TIP3    H149682   0.965   1.543   2.868 -1.4126  2.6877  1.9158
 9397TIP3    H249683   1.081   1.619   2.809 -1.8453  1.6691 -0.3810
 9398TIP3   OH249684   2.154   3.539  15.354 -0.2368  0.4114  0.5180
 9398TIP3    H149685   2.172   3.597  15.279  2.4347 -0.7193  0.1576
 9398TIP3    H249686   2.148   3.452  15.315 -2.9130  0.2078  1.2159
 9399TIP3   OH249687   3.532   3.218   1.668  0.0493  0.1926 -0.3749
 9399TIP3    H149688   3.548   3.257   1.583  0.9439 -0.3868 -0.4891
 9399TIP3    H249689   3.528   3.292   1.729  0.5357  0.5333 -0.7517
 9400TIP3   OH249690   0.956   3.885  14.955 -0.4231 -0.7180  0.3907
 9400TIP3    H149691   0.945   3.950  14.885  2.9476 -0.3809  0.0170
 9400TIP3    H249692   0.989   3.808  14.910  0.2894 -1.0337  1.4354
 9401TIP3   OH249693   4.237   3.791  13.679  0.0582 -0.3247  0.7473
 9401TIP3    H149694   4.296   3.770  13.751  1.3486  0.2938 -0.0787
 9401TIP3    H249695   4.213   3.883  13.694  0.3888 -0.1714  0.3733
 9402TIP3   OH249696   1.241   0.398   3.504  0.1603  0.4747  0.1609
 9402TIP3    H149697   1.159   0.444   3.489 -1.1852 -0.9420  2.4998
 9402TIP3    H249698   1.282   0.445   3.577  0.0450 -0.4163  0.8221
 9403TIP3   OH249699   1.178   4.132   5.922  0.0446 -0.4077  0.1484
 9403TIP3    H149700   1.168   4.227   5.919 -0.7207 -0.4897 -0.3733
 9403TIP3    H249701   1.212   4.114   6.010  2.4346  0.5192 -0.5190
 9404TIP3   OH249702   6.786   0.798   2.711 -0.4593  0.2548 -0.1444
 9404TIP3    H149703   6.829   0.851   2.778  0.1392 -0.3844 -0.0119
 9404TIP3    H249704   6.696   0.831   2.709 -0.2014  1.0013  0.2124
 9405TIP3   OH249705   5.698   2.135   4.953 -0.8150 -0.5489  0.2070
 9405TIP3    H149706   5.636   2.136   5.025  0.5341 -1.9203  1.4624
 9405TIP3    H249707   5.673   2.058   4.901  1.1646 -2.5571  2.0472
 9406TIP3   OH249708   2.838   3.687   3.878 -0.2843  0.2176 -0.0524
 9406TIP3    H149709   2.874   3.600   3.896  0.1187  0.5605  0.8999
 9406TIP3    H249710   2.796   3.713   3.960  0.7359  1.4499  0.1196
 9407TIP3   OH249711   5.364   0.450  15.774  0.3464 -0.3569  0.0832
 9407TIP3    H149712   5.332   0.404  15.852 -0.1337 -1.0599 -0.5055
 9407TIP3    H249713   5.340   0.392  15.702  0.0832  0.6563 -0.6526
 9408TIP3   OH249714   1.930   3.019   2.445  0.3397  0.2073  0.3189
 9408TIP3    H149715   2.024   3.008   2.434  0.4051  2.4642 -2.6079
 9408TIP3    H249716   1.922   3.093   2.506  0.4420 -0.0543  0.6531
 9409TIP3   OH249717   0.623   1.367   3.813  0.2776 -0.4483 -0.4439
 9409TIP3    H149718   0.590   1.321   3.736 -1.3429 -1.1980  0.6437
 9409TIP3    H249719   0.560   1.438   3.828  0.2626 -0.6382  0.4827
 9410TIP3   OH249720   2.201   0.084  16.449 -0.1452  0.4588 -0.1794
 9410TIP3    H149721   2.125   0.026  16.457  1.3168 -1.3940  1.2110
 9410TIP3    H249722   2.182   0.157  16.508 -0.2889 -0.7214  1.3140
 9411TIP3   OH249723   4.366   1.783  16.741  0.1704  0.0014  0.2954
 9411TIP3    H149724   4.331   1.737  16.665 -1.6044 -0.1064  1.1241
 9411TIP3    H249725   4.316   1.748  16.815 -0.2300  2.2020  1.1298
 9412TIP3   OH249726   5.622   5.603   2.887  0.2975  0.2872  0.7634
 9412TIP3    H149727   5.601   5.650   2.806  0.5326  0.7815  0.9859
 9412TIP3    H249728   5.574   5.520   2.880 -0.6107  0.8066  0.6325
 9413TIP3   OH249729   5.227   4.438  13.799  0.1209 -0.1790 -0.1325
 9413TIP3    H149730   5.152   4.476  13.753  0.7053  0.9960 -0.1714
 9413TIP3    H249731   5.236   4.492  13.878  2.0846  1.0053 -1.0891
 9414TIP3   OH249732   2.216   6.472   2.241 -0.4099 -0.4567  0.8521
 9414TIP3    H149733   2.188   6.385   2.214 -0.0152 -1.4160  3.2309
 9414TIP3    H249734   2.232   6.519   2.159  0.3401 -2.9371 -0.5447
 9415TIP3   OH249735   2.735   5.925  14.452  0.1963 -0.2989 -0.2388
 9415TIP3    H149736   2.781   5.927  14.368  0.5244  0.5634 -0.0606
 9415TIP3    H249737   2.664   5.864  14.439 -0.3905  0.5905 -1.4926
 9416TIP3   OH249738   3.355   1.104   0.710  0.4937 -0.1493  0.0749
 9416TIP3    H149739   3.344   1.101   0.615 -0.9977  1.1337  0.1595
 9416TIP3    H249740   3.267   1.089   0.745  0.8308  0.4159  1.2155
 9417TIP3   OH249741   0.311   2.402  13.546 -0.4380 -1.4581 -0.0976
 9417TIP3    H149742   0.234   2.457  13.563  0.8099  0.1829  0.6114
 9417TIP3    H249743   0.359   2.402  13.629 -0.0815 -3.1663 -0.2678
 9418TIP3   OH249744   1.570   6.099  16.534  1.1241 -0.1664  0.5799
 9418TIP3    H149745   1.526   6.084  16.618  0.4634 -1.6279  0.0044
 9418TIP3    H249746   1.514   6.162  16.489  2.2424  1.8128  1.7452
 9419TIP3   OH249747   1.804   6.162  16.792 -0.5262 -0.2764 -0.1332
 9419TIP3    H149748   1.750   6.239  16.811 -1.6668 -1.0625 -0.1046
 9419TIP3    H249749   1.843   6.182  16.707 -0.1742  0.6677  0.2323
 9420TIP3   OH249750   4.099   6.370   4.127  0.2890  0.5090 -0.8198
 9420TIP3    H149751   4.161   6.352   4.057 -2.0560  2.8576 -3.7869
 9420TIP3    H249752   4.113   6.463   4.147 -0.9210  0.5615 -0.1566
 9421TIP3   OH249753   5.559   5.192   2.253  0.3802 -0.3058  0.5718
 9421TIP3    H149754   5.545   5.104   2.219 -1.8502 -0.4819  1.7381
 9421TIP3    H249755   5.614   5.180   2.330 -1.1395 -0.9192  1.6071
 9422TIP3   OH249756   1.303   2.279   4.266  0.0137  0.2416 -0.5458
 9422TIP3    H149757   1.388   2.288   4.223 -0.7570  1.5523 -1.8891
 9422TIP3    H249758   1.241   2.263   4.195 -1.0788  0.8880  0.2278
 9423TIP3   OH249759   5.363   3.450  13.952 -0.1334 -0.0108  0.3430
 9423TIP3    H149760   5.282   3.414  13.987 -0.1106  0.6745  1.1314
 9423TIP3    H249761   5.369   3.537  13.990  1.1270 -0.1654  0.5516
 9424TIP3   OH249762   0.666   4.090  12.011  0.1648  0.3245 -0.1023
 9424TIP3    H149763   0.577   4.078  11.978 -0.1841  0.3999  0.7729
 9424TIP3    H249764   0.657   4.081  12.106  1.1074  0.2546 -0.0146
 9425TIP3   OH249765   1.323   4.595   3.597  0.0799 -0.4455 -0.2409
 9425TIP3    H149766   1.270   4.642   3.661 -0.7975 -0.9638 -0.5642
 9425TIP3    H249767   1.385   4.544   3.649 -0.3706 -0.5676  0.1809
 9426TIP3   OH249768   1.587   1.757  14.458  0.1493 -0.2407  0.2754
 9426TIP3    H149769   1.631   1.747  14.543 -1.1941 -1.1474  0.9078
 9426TIP3    H249770   1.563   1.668  14.432 -0.2706  0.1159 -0.6072
 9427TIP3   OH249771   6.112   0.471   3.319 -0.2749  0.3528  0.1533
 9427TIP3    H149772   6.204   0.446   3.320 -0.4823 -0.5763 -1.2834
 9427TIP3    H249773   6.088   0.476   3.412  1.1978  0.5896  0.5438
 9428TIP3   OH249774   1.093   0.103   2.343 -0.5043  0.0709 -0.0855
 9428TIP3    H149775   1.033   0.145   2.281 -1.5798 -1.2909 -0.0407
 9428TIP3    H249776   1.147   0.045   2.289 -0.3819  0.0433  0.0644
 9429TIP3   OH249777   3.106   5.700   1.989  0.2595 -0.2308 -0.2442
 9429TIP3    H149778   3.062   5.649   2.056  1.3015  1.4227  1.8098
 9429TIP3    H249779   3.038   5.761   1.957  0.0988 -0.1630  0.2285
 9430TIP3   OH249780   1.094   4.777  17.022 -0.2319 -0.4517  0.3686
 9430TIP3    H149781   1.037   4.811  17.091  0.4134 -1.1002  1.2428
 9430TIP3    H249782   1.183   4.789  17.057  0.1258 -0.3878 -0.5437
 9431TIP3   OH249783   0.426   2.258  16.448  0.0363 -0.3817 -0.0140
 9431TIP3    H149784   0.436   2.271  16.353 -2.5882 -0.7048 -0.4172
 9431TIP3    H249785   0.476   2.178  16.467 -2.7640 -2.8613 -2.0512
 9432TIP3   OH249786   2.635   4.143   4.353 -0.5977  0.6782 -0.3295
 9432TIP3    H149787   2.712   4.119   4.302 -0.4433  1.4584 -0.4788
 9432TIP3    H249788   2.604   4.061   4.389 -0.4760  0.1708 -1.3511
 9433TIP3   OH249789   5.286   1.958  14.512  0.0210 -0.4255  0.2074
 9433TIP3    H149790   5.336   1.882  14.539  0.0543 -0.4090  0.1914
 9433TIP3    H249791   5.307   1.969  14.419  2.5007  1.4810  0.8863
 9434TIP3   OH249792   1.402   1.999  10.729 -0.4440  0.4561 -0.5124
 9434TIP3    H149793   1.381   2.090  10.709 -0.4391  0.7070  0.5184
 9434TIP3    H249794   1.493   2.003  10.761  0.2391 -0.2034 -2.2884
 9435TIP3   OH249795   0.942   4.007  13.698 -0.5314  0.4402 -0.5155
 9435TIP3    H149796   0.910   3.951  13.769 -0.6874  2.6387  1.2550
 9435TIP3    H249797   0.891   4.087  13.705  1.8866  2.1328 -0.7724
 9436TIP3   OH249798   4.280   3.854  11.213  0.4877  0.0633  0.1949
 9436TIP3    H149799   4.208   3.794  11.234  0.4300  0.5026  1.2851
 9436TIP3    H249800   4.302   3.896  11.296 -0.3889  2.5832 -0.7303
 9437TIP3   OH249801   3.685   2.969   2.934 -0.0366 -0.0297 -0.0410
 9437TIP3    H149802   3.767   2.923   2.916 -1.6494 -3.3458  0.3354
 9437TIP3    H249803   3.700   3.058   2.901  3.1577 -0.8996 -1.3413
 9438TIP3   OH249804   0.776   1.732   1.852 -0.4056 -0.1922  0.0922
 9438TIP3    H149805   0.771   1.664   1.918 -0.2326 -1.1316 -0.8347
 9438TIP3    H249806   0.844   1.703   1.792  0.6420  1.4842  0.4069
 9439TIP3   OH249807   6.245   5.317   3.939  0.1004 -0.0520 -0.2271
 9439TIP3    H149808   6.205   5.282   4.018  0.9536  0.8267  0.6138
 9439TIP3    H249809   6.275   5.239   3.891  0.7210 -0.5467  0.9293
 9440TIP3   OH249810   5.156   0.295   1.534  0.0594 -0.1131 -0.6318
 9440TIP3    H149811   5.210   0.374   1.533 -0.1612  0.0298 -1.5739
 9440TIP3    H249812   5.189   0.241   1.462 -1.3408  0.1812 -1.5224
 9441TIP3   OH249813   4.915   0.149  14.360 -0.3561  1.2480  0.7162
 9441TIP3    H149814   4.915   0.109  14.273  0.7895  1.4703  0.5961
 9441TIP3    H249815   4.891   0.241  14.344 -1.4525  0.9783  0.8003
 9442TIP3   OH249816   3.600   4.856   5.987 -0.0570 -0.3493  0.1450
 9442TIP3    H149817   3.662   4.797   6.032 -0.0541  0.2359  0.9465
 9442TIP3    H249818   3.644   4.879   5.905 -0.4226 -2.1048 -0.5883
 9443TIP3   OH249819   1.544   5.348   4.388  0.1215  0.2499 -0.2838
 9443TIP3    H149820   1.453   5.322   4.398 -0.1519  1.3582  0.3828
 9443TIP3    H249821   1.541   5.424   4.329  1.0233 -1.8962 -3.2926
 9444TIP3   OH249822   4.491   1.217  16.556  0.0234  0.3200 -0.8727
 9444TIP3    H149823   4.556   1.254  16.616  0.5080  1.1969 -1.9087
 9444TIP3    H249824   4.509   1.123  16.557  0.7606  0.4565 -0.4822
 9445TIP3   OH249825   5.279   4.736   3.599 -0.0789 -0.1192  0.2808
 9445TIP3    H149826   5.363   4.771   3.570  0.7236 -0.9722  1.4651
 9445TIP3    H249827   5.271   4.764   3.690 -1.8755  1.3186 -0.2559
 9446TIP3   OH249828   6.758   2.081   5.432 -0.1249  0.4742  0.5101
 9446TIP3    H149829   6.711   2.028   5.496  1.9070 -0.8907  0.9948
 9446TIP3    H249830   6.738   2.042   5.348 -1.3474  1.1146  0.4926
 9447TIP3   OH249831   2.922   1.281   3.400  0.0621 -0.7129  0.2009
 9447TIP3    H149832   2.942   1.365   3.358 -2.0124 -0.1774  0.2045
 9447TIP3    H249833   3.003   1.230   3.390  0.9084  0.7773 -1.0210
 9448TIP3   OH249834   5.365   3.593   5.853  0.2381 -0.3254  0.1307
 9448TIP3    H149835   5.451   3.552   5.845  0.5012 -0.3078  2.2908
 9448TIP3    H249836   5.340   3.578   5.944 -2.9762 -2.1121 -0.8730
 9449TIP3   OH249837   5.570   1.343   3.006 -0.4975  0.2936  0.4987
 9449TIP3    H149838   5.529   1.427   3.027  0.3433  0.9266 -0.3017
 9449TIP3    H249839   5.632   1.328   3.078 -0.8304  0.2196  0.7751
 9450TIP3   OH249840   4.144   3.133  16.000  0.0998 -0.1203  0.1441
 9450TIP3    H149841   4.086   3.198  16.040 -0.7678 -1.3453  1.0029
 9450TIP3    H249842   4.132   3.144  15.906 -1.4437 -0.2205  0.2996
 9451TIP3   OH249843   3.083   4.423   1.043 -0.1223  0.7291 -0.5016
 9451TIP3    H149844   3.017   4.423   0.973  0.0636  1.4343 -0.6887
 9451TIP3    H249845   3.165   4.404   0.998 -0.2516 -0.6270 -0.1995
 9452TIP3   OH249846   2.084   2.566  14.427 -0.5020  0.0213  0.1534
 9452TIP3    H149847   2.073   2.561  14.522 -2.1461  0.0372  0.0023
 9452TIP3    H249848   2.029   2.496  14.393 -2.1712  1.7253 -0.8727
 9453TIP3   OH249849   1.364   2.910   3.263 -0.0596  0.0700 -0.2910
 9453TIP3    H149850   1.332   2.912   3.173 -3.1692  0.4534  0.6876
 9453TIP3    H249851   1.343   2.822   3.294 -0.5828  0.4708  0.5273
 9454TIP3   OH249852   5.843   0.028  16.323 -0.4091 -0.0145 -0.6436
 9454TIP3    H149853   5.824  -0.031  16.250 -1.2704 -0.5628  0.0016
 9454TIP3    H249854   5.781   0.099  16.314  0.3947  0.6358 -1.2174
 9455TIP3   OH249855   3.586   6.506   2.165  0.2865 -0.1105  0.6306
 9455TIP3    H149856   3.536   6.482   2.088  0.8342  0.1184  0.1998
 9455TIP3    H249857   3.677   6.503   2.137  0.4952 -0.1308  1.2951
 9456TIP3   OH249858   5.100   2.190   4.850  0.1261  0.2308 -0.2879
 9456TIP3    H149859   5.037   2.144   4.906  0.7029  0.7619  0.8135
 9456TIP3    H249860   5.080   2.282   4.862  2.0467  0.5191  1.2862
 9457TIP3   OH249861   0.498   1.996  13.021 -0.4260  0.0129 -0.0684
 9457TIP3    H149862   0.483   1.981  12.928 -2.0905 -1.1345  0.3367
 9457TIP3    H249863   0.443   2.071  13.042  1.3111  1.4394 -0.3148
 9458TIP3   OH249864   1.869   1.245  15.483  0.2200  0.5279 -0.2880
 9458TIP3    H149865   1.862   1.248  15.578  1.4999 -0.3264 -0.1405
 9458TIP3    H249866   1.943   1.187  15.466 -1.0103 -0.6768 -1.8590
 9459TIP3   OH249867   0.256   2.818  13.872 -0.0229  0.0195  0.5678
 9459TIP3    H149868   0.337   2.852  13.910  0.8991 -0.0522 -1.2352
 9459TIP3    H249869   0.266   2.831  13.778 -1.9450 -0.3826  0.2689
 9460TIP3   OH249870   2.930   5.691  16.399 -0.5183 -0.2178 -0.0752
 9460TIP3    H149871   2.865   5.647  16.454 -2.8136  0.8748 -1.7754
 9460TIP3    H249872   2.912   5.785  16.411  1.6100  0.1880  0.3547
 9461TIP3   OH249873   5.211   3.715  10.708 -0.1150 -0.0535  0.1362
 9461TIP3    H149874   5.181   3.789  10.761  0.9175  1.2316 -1.0227
 9461TIP3    H249875   5.146   3.646  10.724 -0.7546  0.8697  1.7184
 9462TIP3   OH249876   0.993   3.708   5.155  0.5884 -0.2070 -0.4493
 9462TIP3    H149877   1.012   3.639   5.219 -0.0768 -0.7541 -0.8210
 9462TIP3    H249878   0.976   3.661   5.073  1.6712  0.4952 -1.1035
 9463TIP3   OH249879   1.213   6.139  13.904 -0.1993  0.4732 -0.0889
 9463TIP3    H149880   1.227   6.075  13.834 -0.6197  0.0184  0.2416
 9463TIP3    H249881   1.280   6.206  13.888  3.7123 -2.4291  2.4752
 9464TIP3   OH249882   1.073   1.233  16.251 -0.1581 -0.2885  0.2388
 9464TIP3    H149883   1.049   1.155  16.302 -0.5296  0.9014  1.9592
 9464TIP3    H249884   1.161   1.256  16.282  0.2988 -0.4715 -0.8645
 9465TIP3   OH249885   1.831   4.287   3.778 -0.1410 -0.0794 -0.0386
 9465TIP3    H149886   1.843   4.194   3.798  1.5035 -0.4991 -2.5845
 9465TIP3    H249887   1.822   4.291   3.683 -1.6002  2.2768  0.1170
 9466TIP3   OH249888   4.388   1.737   2.466  0.3854 -0.0949 -0.0174
 9466TIP3    H149889   4.477   1.763   2.445  0.7317 -1.3095 -0.1230
 9466TIP3    H249890   4.373   1.657   2.415 -0.8134  0.1685 -0.1182
 9467TIP3   OH249891   1.120   0.951   1.374 -0.4927  0.3195  0.4855
 9467TIP3    H149892   1.185   0.894   1.415  0.6205  0.9258 -0.3448
 9467TIP3    H249893   1.066   0.982   1.446 -0.1249 -0.5462  1.1459
 9468TIP3   OH249894   0.566   4.177   4.579  0.6082 -0.0116 -0.5199
 9468TIP3    H149895   0.572   4.200   4.486 -0.2979  0.2782 -0.5162
 9468TIP3    H249896   0.636   4.227   4.621  2.0187 -1.3249 -1.2489
 9469TIP3   OH249897   3.548   5.375   4.178 -0.0957 -0.0284  0.2976
 9469TIP3    H149898   3.504   5.356   4.261 -1.0562  0.1339 -0.1593
 9469TIP3    H249899   3.516   5.462   4.153 -1.0389 -0.7102 -0.9958
 9470TIP3   OH249900   2.996   5.397  16.087  0.1665  0.3227 -0.2158
 9470TIP3    H149901   2.971   5.440  16.169 -0.7493 -0.7801  0.1036
 9470TIP3    H249902   2.915   5.397  16.035 -0.1112 -1.8112  0.1605
 9471TIP3   OH249903   3.794   0.922  16.509  0.2990  0.2948 -0.2154
 9471TIP3    H149904   3.760   0.981  16.576  3.3252  0.7525  1.1153
 9471TIP3    H249905   3.824   0.845  16.559  2.6585  0.6677 -0.9115
 9472TIP3   OH249906   1.664   5.915   2.167  0.3800  0.5404  0.4171
 9472TIP3    H149907   1.582   5.948   2.129  0.3046  0.5290  0.5698
 9472TIP3    H249908   1.645   5.824   2.189  0.1396  0.7952  1.3033
 9473TIP3   OH249909   3.104   2.398   3.187  0.1008 -0.0946  0.2015
 9473TIP3    H149910   3.075   2.307   3.199 -0.1055  0.1643  1.8618
 9473TIP3    H249911   3.068   2.423   3.102 -1.3287 -1.0190  0.4974
 9474TIP3   OH249912   5.288   5.721   6.116  0.3806  0.0540  0.2045
 9474TIP3    H149913   5.290   5.707   6.211 -2.4750  0.0983  0.3729
 9474TIP3    H249914   5.280   5.816   6.106 -0.2244 -0.0151 -0.0184
 9475TIP3   OH249915   5.922   1.815  15.824 -0.4748 -0.2762 -0.1678
 9475TIP3    H149916   5.938   1.776  15.739 -1.8725  0.5043 -0.8252
 9475TIP3    H249917   6.002   1.864  15.843 -0.7421  0.8664 -1.7960
 9476TIP3   OH249918   3.696   1.567  12.703  1.1543  0.2104 -0.6999
 9476TIP3    H149919   3.698   1.645  12.758  1.2148 -0.3687  0.1386
 9476TIP3    H249920   3.786   1.535  12.704  0.8291 -0.7540  0.2833
 9477TIP3   OH249921   6.707   4.193   4.764 -0.1905 -0.1738  0.2477
 9477TIP3    H149922   6.650   4.226   4.694 -0.0999  1.4289  0.9070
 9477TIP3    H249923   6.790   4.174   4.720 -0.0127  1.1727 -0.0324
 9478TIP3   OH249924   1.098   4.829  15.371 -0.0124 -0.0714 -0.4284
 9478TIP3    H149925   1.026   4.869  15.322 -0.6085  0.1127  0.5643
 9478TIP3    H249926   1.167   4.816  15.306  0.9782  4.3063 -0.5810
 9479TIP3   OH249927   5.072   3.400   5.974  0.3499  0.0004  0.4198
 9479TIP3    H149928   5.070   3.358   5.888  0.2336  0.3006  0.2744
 9479TIP3    H249929   5.163   3.393   6.003  0.7316  1.2515 -0.4071
 9480TIP3   OH249930   0.924   4.178   5.129  0.4027 -0.1882 -0.0373
 9480TIP3    H149931   1.005   4.147   5.171 -0.8140 -0.1563  2.4527
 9480TIP3    H249932   0.914   4.268   5.158  1.3433  1.1725 -3.3815
 9481TIP3   OH249933   1.795   1.653   2.031  0.5329  0.0353  0.1880
 9481TIP3    H149934   1.796   1.564   2.067 -2.6325 -0.0209  0.3952
 9481TIP3    H249935   1.764   1.643   1.941 -1.0888  0.9611  0.5970
 9482TIP3   OH249936   1.949   1.837   0.201  0.3167  0.5552 -0.2366
 9482TIP3    H149937   1.995   1.777   0.260 -1.1717  1.7136  2.2625
 9482TIP3    H249938   1.858   1.806   0.201  0.3097  0.4200 -2.2481
 9483TIP3   OH249939   3.741   3.745  11.208  0.4564 -0.5018 -0.0036
 9483TIP3    H149940   3.780   3.658  11.223 -2.1373 -1.6054  0.9021
 9483TIP3    H249941   3.702   3.739  11.122  1.5029  0.3176 -0.5570
 9484TIP3   OH249942   1.390   0.989   0.752  0.2086 -0.3785 -0.0211
 9484TIP3    H149943   1.396   1.084   0.767 -0.3647 -0.3832  0.2505
 9484TIP3    H249944   1.386   0.981   0.656  1.1171 -0.1892 -0.0910
 9485TIP3   OH249945   1.378   6.500   2.517 -0.3326 -0.0623  0.1018
 9485TIP3    H149946   1.472   6.486   2.506 -0.5587 -0.4939 -1.7070
 9485TIP3    H249947   1.364   6.498   2.611  1.2775 -1.3720  0.3690
 9486TIP3   OH249948   5.743   2.397  15.872  0.4948 -0.4388  0.5003
 9486TIP3    H149949   5.730   2.324  15.812  1.1525 -2.3217  2.5207
 9486TIP3    H249950   5.661   2.404  15.919  0.2921  0.4316  0.0333
 9487TIP3   OH249951   5.560   2.354  16.082  0.0221 -0.1189 -0.1253
 9487TIP3    H149952   5.629   2.318  16.138 -0.6139  0.0912  0.8268
 9487TIP3    H249953   5.504   2.278  16.063  0.6868 -0.3574 -1.1764
 9488TIP3   OH249954   6.024   0.685  11.010  0.0447 -0.7423 -0.1983
 9488TIP3    H149955   5.998   0.678  11.102  1.6402 -0.2548  0.3172
 9488TIP3    H249956   5.990   0.770  10.981 -1.4883 -1.4036 -0.4402
 9489TIP3   OH249957   2.613   1.904  11.860 -0.3001 -0.1351 -0.2643
 9489TIP3    H149958   2.523   1.928  11.840 -0.7741 -0.4368  1.3531
 9489TIP3    H249959   2.606   1.834  11.925  1.0471  1.1942  1.4399
 9490TIP3   OH249960   1.574   3.820   4.747  0.1778 -0.1997 -0.0310
 9490TIP3    H149961   1.576   3.773   4.663  0.8874  1.1186 -0.7948
 9490TIP3    H249962   1.496   3.875   4.741  0.2815 -0.0350  0.1312
 9491TIP3   OH249963   4.153   5.067   0.983 -0.0133  0.1696 -0.3354
 9491TIP3    H149964   4.190   5.118   0.911 -0.3347  0.3531 -0.3721
 9491TIP3    H249965   4.229   5.040   1.035  0.4161 -1.6113 -1.7824
 9492TIP3   OH249966   1.431   1.362   2.718  0.6747  0.1374 -0.3301
 9492TIP3    H149967   1.496   1.321   2.661 -1.5464  0.2604 -3.1415
 9492TIP3    H249968   1.442   1.456   2.704 -0.1716  0.1539 -0.9397
 9493TIP3   OH249969   0.771   5.304   1.319 -0.1872  0.2860 -0.1171
 9493TIP3    H149970   0.713   5.335   1.389  0.1071  2.3000 -0.7118
 9493TIP3    H249971   0.858   5.302   1.360 -0.2826 -0.3262  0.0704
 9494TIP3   OH249972   5.692   4.765  14.459 -0.0436 -0.0721  0.6060
 9494TIP3    H149973   5.667   4.780  14.550 -0.2639  1.2077  0.3479
 9494TIP3    H249974   5.683   4.850  14.417 -0.7760 -0.8129 -0.8236
 9495TIP3   OH249975   1.004   3.374   2.231  0.4282  0.0012  0.1574
 9495TIP3    H149976   1.026   3.338   2.317 -0.2710 -0.4203  0.1665
 9495TIP3    H249977   0.993   3.297   2.175  0.4512  0.2610 -0.2083
 9496TIP3   OH249978   1.939   0.698   2.761 -0.1718 -0.1936  0.2381
 9496TIP3    H149979   1.866   0.710   2.700  0.4425 -0.3726 -0.5469
 9496TIP3    H249980   1.931   0.772   2.822 -0.1319  0.6499 -0.7476
 9497TIP3   OH249981   4.744   4.092  11.019  0.1119  0.3455 -0.2766
 9497TIP3    H149982   4.686   4.092  11.095  0.8021  1.7867  0.2791
 9497TIP3    H249983   4.713   4.166  10.966 -1.0444 -1.2675 -1.9776
 9498TIP3   OH249984   0.214   0.351  13.388 -0.1433  0.2859  0.5619
 9498TIP3    H149985   0.184   0.356  13.479 -1.9057 -0.8275  0.1053
 9498TIP3    H249986   0.166   0.276  13.352  2.7647 -1.2313 -0.4915
 9499TIP3   OH249987   6.444   2.760  16.646  0.3173  0.3113  0.0112
 9499TIP3    H149988   6.506   2.697  16.683  0.7660  0.6030 -0.2395
 9499TIP3    H249989   6.487   2.844  16.655 -0.4746  0.6540  0.7751
 9500TIP3   OH249990   3.126   6.551  16.499  0.0482  0.1889 -0.3271
 9500TIP3    H149991   3.113   6.510  16.584 -1.7339 -0.0253 -0.6490
 9500TIP3    H249992   3.117   6.644  16.515  1.7779  0.3309  0.0218
 9501TIP3   OH249993   2.189   1.183  15.894  0.2708  0.0481 -0.1967
 9501TIP3    H149994   2.223   1.125  15.961 -0.8336  0.3841  0.6754
 9501TIP3    H249995   2.229   1.268  15.913  0.3463  0.0326 -0.2813
 9502TIP3   OH249996   0.349   1.995   1.561 -0.3889 -0.3136  0.1036
 9502TIP3    H149997   0.422   2.055   1.575 -0.4916 -0.0559 -0.4645
 9502TIP3    H249998   0.293   2.008   1.638 -0.1519 -0.0536  0.2332
 9503TIP3   OH249999   6.574   3.816   1.148 -0.0997 -0.2457  0.2383
 9503TIP3    H150000   6.614   3.865   1.076  0.2455 -1.3829 -0.3513
 9503TIP3    H250001   6.547   3.884   1.210  0.3905  0.6956 -0.5515
 9504TIP3   OH250002   4.554   1.737  12.751 -0.2163 -0.0542 -0.0807
 9504TIP3    H150003   4.590   1.713  12.666  0.6365  1.0579 -0.0628
 9504TIP3    H250004   4.616   1.701  12.814  0.4635  1.1664 -0.0236
 9505TIP3   OH250005   6.036   3.355  15.377 -0.6494  0.3381  0.0582
 9505TIP3    H150006   6.010   3.311  15.458 -0.2133  0.6409  0.3636
 9505TIP3    H250007   6.118   3.312  15.351 -0.4089  0.7324  0.1659
 9506TIP3   OH250008   1.591   1.030  15.725  0.3219  0.3299 -0.0074
 9506TIP3    H150009   1.651   0.966  15.685 -0.6646  0.2125 -1.3562
 9506TIP3    H250010   1.646   1.108  15.737  0.8649  0.1126 -0.8944
 9507TIP3   OH250011   1.636   2.205   0.580 -0.0052  0.3860  0.3082
 9507TIP3    H150012   1.669   2.212   0.669  0.5942  1.1733  0.0392
 9507TIP3    H250013   1.552   2.251   0.581 -0.3504 -0.2408  0.6281
 9508TIP3   OH250014   1.555   3.967  14.083 -1.2499  0.6195 -0.3122
 9508TIP3    H150015   1.631   3.965  14.142 -0.3062 -2.4739 -1.3988
 9508TIP3    H250016   1.486   3.922  14.132 -1.5150  0.9959 -0.3407
 9509TIP3   OH250017   1.529   5.695   3.534  0.0488  0.1422  0.1004
 9509TIP3    H150018   1.508   5.622   3.476 -0.2238  0.8406 -0.6879
 9509TIP3    H250019   1.571   5.760   3.478  0.8395  0.3573  0.9094
 9510TIP3   OH250020   5.966   2.089   2.698  0.4042 -0.1038  0.3143
 9510TIP3    H150021   5.989   2.182   2.689  2.2717 -0.5474  0.1787
 9510TIP3    H250022   5.958   2.076   2.793 -1.6938  0.5598  0.2880
 9511TIP3   OH250023   1.839   6.204   2.272  0.3922 -0.1945  0.1168
 9511TIP3    H150024   1.832   6.280   2.215  2.4325 -0.5375 -0.6819
 9511TIP3    H250025   1.912   6.225   2.331 -0.3571 -0.7047  1.2586
 9512TIP3   OH250026   1.818   5.585  16.838 -0.2773 -0.3466 -0.6324
 9512TIP3    H150027   1.840   5.668  16.879 -0.7057  0.1313 -1.3573
 9512TIP3    H250028   1.806   5.524  16.911  1.7279 -0.2204 -0.1261
 9513TIP3   OH250029   4.363   2.760   2.483 -0.0248  0.1482  0.2349
 9513TIP3    H150030   4.419   2.756   2.405  0.8737  1.9358  0.7226
 9513TIP3    H250031   4.285   2.711   2.459  0.1927  0.7129 -1.8351
 9514TIP3   OH250032   4.053   6.278  14.685  0.3543 -0.2001  0.3152
 9514TIP3    H150033   4.059   6.207  14.621  1.3717  0.4631 -0.3664
 9514TIP3    H250034   4.144   6.290  14.715 -0.0119 -0.0752  1.4221
 9515TIP3   OH250035   1.147   0.842   3.711  0.0890  0.0205 -0.2459
 9515TIP3    H150036   1.118   0.927   3.744 -2.2689 -0.7177 -0.2046
 9515TIP3    H250037   1.160   0.789   3.790  1.4031  0.2593 -0.2779
 9516TIP3   OH250038   2.490   3.664   2.028  0.6733 -0.4264 -0.1218
 9516TIP3    H150039   2.520   3.745   2.070 -1.1369  0.9733 -1.4120
 9516TIP3    H250040   2.486   3.601   2.100  1.4093  0.8160  1.0596
 9517TIP3   OH250041   1.752   6.849   3.309  0.5611  0.3282 -0.5030
 9517TIP3    H150042   1.718   6.786   3.244  2.9503 -0.5074 -1.0340
 9517TIP3    H250043   1.762   6.798   3.389  3.7794 -0.4453 -1.2880
 9518TIP3   OH250044   5.618   0.423   3.614  0.0351 -0.4250  0.2202
 9518TIP3    H150045   5.703   0.381   3.596  0.5980  0.4713  0.7189
 9518TIP3    H250046   5.620   0.503   3.562  0.3478  0.5958  1.7471
 9519TIP3   OH250047   4.859   6.356  12.587 -0.2056 -0.3411 -0.0515
 9519TIP3    H150048   4.902   6.391  12.509 -1.4445 -2.2934 -1.6934
 9519TIP3    H250049   4.767   6.349  12.563 -0.8931  0.3397  2.1201
 9520TIP3   OH250050   5.393   1.949   2.613  0.7251 -0.1586 -0.3331
 9520TIP3    H150051   5.413   1.969   2.521  0.9452 -0.1758 -0.2895
 9520TIP3    H250052   5.473   1.973   2.660  0.2063  0.9670  0.0028
 9521TIP3   OH250053   1.976   1.420   5.308  0.1345  0.2073  0.1730
 9521TIP3    H150054   2.044   1.387   5.366 -0.5804 -3.4316 -0.8005
 9521TIP3    H250055   1.898   1.425   5.363  0.1026 -0.4168  0.1856
 9522TIP3   OH250056   1.785   4.719  13.177 -0.2754  0.4368  0.2405
 9522TIP3    H150057   1.818   4.774  13.247 -3.3463  2.6997  0.1248
 9522TIP3    H250058   1.822   4.756  13.097  0.1755  0.3005  0.3845
 9523TIP3   OH250059   2.754   1.880  13.656  0.2734 -0.5193  0.1082
 9523TIP3    H150060   2.684   1.945  13.661 -0.0383 -0.8058 -0.3912
 9523TIP3    H250061   2.764   1.848  13.746  2.0290  1.8374  0.8754
 9524TIP3   OH250062   0.281   6.815  15.058  0.8207  0.0508  0.1585
 9524TIP3    H150063   0.220   6.888  15.066  0.2340 -0.2094 -1.5074
 9524TIP3    H250064   0.361   6.846  15.101  1.1856  2.4068 -1.9270
 9525TIP3   OH250065   5.386   6.487  14.908 -0.8174  0.1485 -0.1427
 9525TIP3    H150066   5.297   6.480  14.944 -1.0835 -4.2445 -1.1442
 9525TIP3    H250067   5.376   6.469  14.815  0.7920  3.8503 -1.2220
 9526TIP3   OH250068   5.090   3.905   0.053 -0.0420  0.0522  0.3992
 9526TIP3    H150069   5.149   3.899  -0.022 -0.7929  1.3624 -0.3320
 9526TIP3    H250070   5.018   3.846   0.031  0.3728 -0.5931  0.7263
 9527TIP3   OH250071   3.609   4.041  13.427 -0.4178  0.3620 -0.0322
 9527TIP3    H150072   3.618   4.066  13.518 -0.4947  2.7079 -0.6133
 9527TIP3    H250073   3.517   4.019  13.416 -0.3716 -0.0919  0.4792
 9528TIP3   OH250074   4.779   1.769   2.788  0.2647 -0.0939  0.2455
 9528TIP3    H150075   4.768   1.697   2.850  2.6814  1.7715  3.1356
 9528TIP3    H250076   4.725   1.840   2.823  0.2761  0.4695 -0.8227
 9529TIP3   OH250077   5.999   6.558  14.813 -0.4206  0.4775 -0.4381
 9529TIP3    H150078   5.985   6.625  14.747 -0.9928  0.5356 -0.2644
 9529TIP3    H250079   6.084   6.519  14.791 -1.0532 -0.1847 -1.7984
 9530TIP3   OH250080   1.396   5.877  16.375 -0.1559  0.2709 -0.2527
 9530TIP3    H150081   1.427   5.962  16.407  2.0181  0.0140 -1.4719
 9530TIP3    H250082   1.410   5.817  16.448 -1.2235  0.8191  0.4369
 9531TIP3   OH250083   4.481   5.174   0.146  0.0392  0.0386  0.1823
 9531TIP3    H150084   4.440   5.239   0.203  1.2260  0.2947  0.7617
 9531TIP3    H250085   4.410   5.112   0.126 -0.7422  0.7251  0.7662
 9532TIP3   OH250086   2.301   5.028   1.769  0.5075  0.0374 -0.5994
 9532TIP3    H150087   2.268   4.939   1.767 -1.4862  0.7418 -0.7483
 9532TIP3    H250088   2.346   5.035   1.853 -2.5189 -0.0582  1.1596
 9533TIP3   OH250089   3.805   0.274   1.534 -0.8371  0.4843  0.1264
 9533TIP3    H150090   3.889   0.303   1.570 -1.7110  0.6037  2.2216
 9533TIP3    H250091   3.766   0.221   1.604 -1.8109 -0.9399 -1.4268
 9534TIP3   OH250092   5.861   1.091  15.056  0.0056  0.5371 -0.5426
 9534TIP3    H150093   5.930   1.156  15.052 -1.6441  2.3200 -1.7260
 9534TIP3    H250094   5.904   1.008  15.036  1.3822  1.9476 -4.2765
 9535TIP3   OH250095   4.569   6.241   5.712  0.0531  0.3470 -0.2974
 9535TIP3    H150096   4.643   6.189   5.682 -0.2264 -0.2068 -0.0284
 9535TIP3    H250097   4.567   6.316   5.652  0.8945  0.4230 -0.2383
 9536TIP3   OH250098   5.230   0.103   2.697  0.0134 -0.4246 -0.0654
 9536TIP3    H150099   5.323   0.078   2.701  0.2643  0.5550  0.4311
 9536TIP3    H250100   5.194   0.072   2.780 -0.0397 -0.5389 -0.1309
 9537TIP3   OH250101   5.092   4.233  15.044 -0.3666  0.2035 -0.2302
 9537TIP3    H150102   5.157   4.298  15.071  0.3850  0.2658 -2.0533
 9537TIP3    H250103   5.120   4.206  14.957 -1.8200 -1.0735 -0.3399
 9538TIP3   OH250104   2.168   0.395   3.739 -0.3262  0.4421 -0.3544
 9538TIP3    H150105   2.221   0.474   3.731  0.7256 -0.1983 -0.0072
 9538TIP3    H250106   2.231   0.327   3.765 -1.1074 -0.6222 -1.1553
 9539TIP3   OH250107   6.598   3.423   6.477  0.1080 -0.3221  0.2292
 9539TIP3    H150108   6.547   3.428   6.558 -0.2806 -0.1466 -0.0231
 9539TIP3    H250109   6.614   3.514   6.453 -1.3929 -0.3074 -0.8904
 9540TIP3   OH250110   3.385   2.894  12.559 -0.4413  0.1743 -0.1198
 9540TIP3    H150111   3.400   2.844  12.639 -1.3649 -0.3199 -0.2449
 9540TIP3    H250112   3.336   2.971  12.589 -0.0265  0.4259 -0.0881
 9541TIP3   OH250113   2.161   0.513   0.287 -0.2283 -0.4207  0.2038
 9541TIP3    H150114   2.103   0.562   0.228  1.5401 -0.4141 -1.6475
 9541TIP3    H250115   2.229   0.477   0.229  0.2331 -2.5248  1.9335
 9542TIP3   OH250116   3.269   4.191   4.716  0.4030 -0.1358  0.5859
 9542TIP3    H150117   3.199   4.247   4.749  0.1812 -0.6316  0.9756
 9542TIP3    H250118   3.237   4.102   4.730  1.5249 -0.3990  1.7097
 9543TIP3   OH250119   5.864   0.755   3.518  0.0951 -0.7657  0.2690
 9543TIP3    H150120   5.804   0.763   3.444  0.5628 -1.8353 -0.2499
 9543TIP3    H250121   5.888   0.845   3.539  0.5933 -0.4655 -1.4316
 9544TIP3   OH250122   1.730   1.755  16.868 -1.0640  0.2215 -0.9357
 9544TIP3    H150123   1.656   1.702  16.836 -0.6713 -0.5022 -0.6814
 9544TIP3    H250124   1.807   1.707  16.838 -0.6983  0.6889 -0.7423
 9545TIP3   OH250125   6.337   0.847   4.500 -0.2896 -0.0057  0.0380
 9545TIP3    H150126   6.304   0.852   4.410 -1.0429  1.6747  0.3656
 9545TIP3    H250127   6.265   0.807   4.549  0.0284 -0.6958 -0.0404
 9546TIP3   OH250128   0.757   0.032  12.756  0.4641  0.3172 -0.2385
 9546TIP3    H150129   0.695  -0.027  12.713 -0.0576 -0.5327  1.5820
 9546TIP3    H250130   0.836  -0.020  12.768  0.3061  0.2604  0.5906
 9547TIP3   OH250131   6.256   0.168   6.104 -0.1156  0.3395  0.2718
 9547TIP3    H150132   6.324   0.235   6.110  0.1187  0.0698  0.6632
 9547TIP3    H250133   6.290   0.094   6.155  0.0600 -0.4614 -0.9727
 9548TIP3   OH250134   2.437   4.130   1.129 -0.1016 -0.2637  0.2724
 9548TIP3    H150135   2.363   4.101   1.077  0.6317 -2.4715  0.3367
 9548TIP3    H250136   2.451   4.060   1.192  2.6950 -0.4958 -0.4458
 9549TIP3   OH250137   3.884   4.933   2.100 -0.0482 -0.0722 -0.3171
 9549TIP3    H150138   3.823   5.007   2.101  0.3729  0.2761 -0.3242
 9549TIP3    H250139   3.939   4.946   2.177  1.2827  0.6896 -1.3657
 9550TIP3   OH250140   0.835   1.770  14.015 -0.3952 -0.6647  0.0494
 9550TIP3    H150141   0.803   1.847  13.967  0.1572 -0.6938 -0.3698
 9550TIP3    H250142   0.775   1.762  14.089 -0.7979 -0.1646 -0.2163
 9551TIP3   OH250143   4.104   5.426  12.649  0.1667  0.0407  0.1366
 9551TIP3    H150144   4.019   5.464  12.627  0.5186  0.4782 -0.4806
 9551TIP3    H250145   4.106   5.427  12.745  0.3043  1.9289  0.1506
 9552TIP3   OH250146   4.800   1.958  13.539  0.2880 -0.7806 -0.3131
 9552TIP3    H150147   4.772   2.026  13.477 -0.2647  0.0373  0.8174
 9552TIP3    H250148   4.809   2.004  13.622  0.0998 -2.0644  0.4242
 9553TIP3   OH250149   1.987   1.830   5.891 -0.1923  0.4611  0.2004
 9553TIP3    H150150   1.998   1.806   5.798 -0.1877  1.0585  0.0427
 9553TIP3    H250151   1.981   1.925   5.890  1.7157  0.6448  0.9841
 9554TIP3   OH250152   1.868   2.087   3.166  0.0010  0.1666 -0.4034
 9554TIP3    H150153   1.955   2.123   3.149  0.3955 -0.3041  0.5025
 9554TIP3    H250154   1.843   2.124   3.251  0.1344 -1.1269  0.2285
 9555TIP3   OH250155   1.274   0.529   5.860 -0.3022  0.3142 -0.2330
 9555TIP3    H150156   1.323   0.611   5.851 -0.6463  0.5275 -0.1930
 9555TIP3    H250157   1.312   0.486   5.936 -0.6546  0.8191  0.2399
 9556TIP3   OH250158   4.680   1.770  16.221  0.8528  0.1256  1.0024
 9556TIP3    H150159   4.645   1.694  16.269 -0.3331  0.5331  0.8207
 9556TIP3    H250160   4.607   1.799  16.166  1.3000  1.3637  1.0299
 9557TIP3   OH250161   3.237   3.078   5.516  0.3186 -0.3796  0.1121
 9557TIP3    H150162   3.180   3.006   5.543  2.7353 -1.8801  1.5402
 9557TIP3    H250163   3.268   3.053   5.429 -0.3638 -0.0471 -0.2387
 9558TIP3   OH250164   3.800   1.163  15.201  0.4120 -0.1499 -0.1734
 9558TIP3    H150165   3.855   1.238  15.223 -1.0642  0.5229  1.5084
 9558TIP3    H250166   3.723   1.172  15.259 -0.2569 -2.4272 -0.6110
 9559TIP3   OH250167   4.845   2.362  15.356 -0.2783 -0.2928  0.0790
 9559TIP3    H150168   4.788   2.433  15.324 -0.7558 -0.8316 -0.2803
 9559TIP3    H250169   4.785   2.288  15.369  0.7790 -2.0112 -3.5909
 9560TIP3   OH250170   3.646   6.583  14.046  0.3528 -0.4256 -0.3592
 9560TIP3    H150171   3.600   6.577  13.962 -0.8036  2.0738 -0.0046
 9560TIP3    H250172   3.738   6.585  14.023  0.0343  1.0162 -1.6880
 9561TIP3   OH250173   1.292   1.738  13.236 -0.4245  0.1627  0.3214
 9561TIP3    H150174   1.304   1.770  13.325  0.6142  0.1558  0.1896
 9561TIP3    H250175   1.380   1.719  13.204 -0.9550 -2.5624  0.2684
 9562TIP3   OH250176   4.013   2.340  10.785  0.2741  0.1300 -0.6170
 9562TIP3    H150177   3.983   2.327  10.695 -0.2161 -3.0232 -0.1200
 9562TIP3    H250178   3.962   2.277  10.837  0.6544  1.7214  1.8653
 9563TIP3   OH250179   6.117   6.204  11.169  0.2162 -0.4322 -0.0819
 9563TIP3    H150180   6.112   6.109  11.158 -0.6745 -0.4165  0.1272
 9563TIP3    H250181   6.210   6.222  11.180  0.4063 -1.2652 -0.2717
 9564TIP3   OH250182   4.846   0.412  13.083  0.2387 -0.2109  0.1976
 9564TIP3    H150183   4.768   0.365  13.053  0.1883 -0.2266  0.3464
 9564TIP3    H250184   4.907   0.409  13.010 -0.1164  0.2865 -0.1228
 9565TIP3   OH250185   6.428   4.832   5.302  0.1777 -0.0612  0.0508
 9565TIP3    H150186   6.384   4.909   5.338  0.7707  1.1549 -1.6930
 9565TIP3    H250187   6.369   4.801   5.234 -0.2366 -1.4168  0.9978
 9566TIP3   OH250188   2.080   1.830   5.179  0.3465  0.1605 -0.0099
 9566TIP3    H150189   2.083   1.748   5.131 -2.6778  0.8525 -1.6239
 9566TIP3    H250190   2.070   1.897   5.112  1.1925  1.7429  1.3528
 9567TIP3   OH250191   6.774   2.898  16.449 -0.5018  0.4725 -0.3523
 9567TIP3    H150192   6.811   2.810  16.442  0.6972  0.9571 -0.5267
 9567TIP3    H250193   6.818   2.936  16.525 -2.3101  0.3457  0.8076
 9568TIP3   OH250194   1.412   0.187  13.749 -0.1841 -0.1347  0.5068
 9568TIP3    H150195   1.345   0.138  13.797 -1.0664  0.2844 -0.2635
 9568TIP3    H250196   1.375   0.199  13.662  0.8122  0.2973  0.1263
 9569TIP3   OH250197   2.897   0.092  15.570  0.2618  0.1040 -0.7802
 9569TIP3    H150198   2.926   0.165  15.515  1.5433 -0.0410 -0.3216
 9569TIP3    H250199   2.968   0.027  15.564 -0.3575 -0.6331 -0.3082
 9570TIP3   OH250200   6.793   3.281   4.772  0.5131 -0.1854 -0.4153
 9570TIP3    H150201   6.868   3.284   4.831  1.6908  1.5944 -1.8898
 9570TIP3    H250202   6.832   3.264   4.686 -1.0318 -1.4859 -0.9177
 9571TIP3   OH250203   5.031   1.476  13.606 -0.2209  0.2006  0.6699
 9571TIP3    H150204   4.985   1.545  13.558 -1.8205 -1.1155  0.2230
 9571TIP3    H250205   5.010   1.493  13.698  0.1399  0.8116  0.6467
 9572TIP3   OH250206   1.353   3.502  15.052  0.5678 -0.2779 -0.2965
 9572TIP3    H150207   1.272   3.550  15.067 -0.3015 -1.5622 -0.6750
 9572TIP3    H250208   1.411   3.530  15.123 -0.2731  0.5078  0.0980
 9573TIP3   OH250209   2.186   6.491   4.815 -0.4043 -0.8122  0.3220
 9573TIP3    H150210   2.142   6.570   4.784 -0.4277 -0.9582 -0.0247
 9573TIP3    H250211   2.264   6.485   4.760  1.2133  0.6068  2.2758
 9574TIP3   OH250212   0.961   3.644  14.221 -0.2013  0.0717 -0.7167
 9574TIP3    H150213   0.913   3.643  14.303  0.4534  0.7108 -0.3125
 9574TIP3    H250214   0.930   3.567  14.174  0.0851 -0.8396  0.5266
 9575TIP3   OH250215   1.122   2.366   0.705  0.0096 -0.6895  0.0622
 9575TIP3    H150216   1.100   2.292   0.650  3.1833 -2.8306  1.3449
 9575TIP3    H250217   1.065   2.358   0.781 -0.1367 -1.4539 -0.1235
 9576TIP3   OH250218   6.311   5.337  15.633 -0.0427 -0.1295  0.1405
 9576TIP3    H150219   6.337   5.384  15.712  0.8822  0.5504 -0.5427
 9576TIP3    H250220   6.260   5.401  15.583 -0.7911 -0.6180  0.2665
 9577TIP3   OH250221   2.795   0.051  10.309 -0.3557  0.8246  0.1583
 9577TIP3    H150222   2.734   0.031  10.239  0.0069 -0.3541  0.1562
 9577TIP3    H250223   2.805  -0.032  10.357 -0.3484  1.5150  1.4029
 9578TIP3   OH250224   0.559   5.379   6.230  0.0639  0.1883  0.4920
 9578TIP3    H150225   0.490   5.446   6.231  0.1913  0.3161  0.7496
 9578TIP3    H250226   0.512   5.296   6.232 -0.1005  0.2658  0.0217
 9579TIP3   OH250227   5.245   2.194   5.643  0.7940  0.1380  0.3361
 9579TIP3    H150228   5.301   2.256   5.691 -0.4686  2.3889 -0.9185
 9579TIP3    H250229   5.159   2.236   5.641  0.3161 -0.7907 -2.1194
 9580TIP3   OH250230   0.210   1.722   3.722  0.1537  0.7463  0.4033
 9580TIP3    H150231   0.247   1.778   3.654 -3.0062  1.2722 -1.0843
 9580TIP3    H250232   0.189   1.782   3.794  0.6417  0.7084  0.5839
 9581TIP3   OH250233   4.716   5.667   4.697 -0.1235  0.4630  0.7994
 9581TIP3    H150234   4.695   5.723   4.623 -0.3333 -0.1677  0.3738
 9581TIP3    H250235   4.667   5.704   4.770  1.5132  2.2155  1.0969
 9582TIP3   OH250236   4.574   6.340   1.352  0.2162  0.1720 -0.5129
 9582TIP3    H150237   4.669   6.333   1.347  0.3905  1.9630 -0.2257
 9582TIP3    H250238   4.557   6.433   1.365 -1.5445 -0.2360  0.3956
 9583TIP3   OH250239   5.219   5.751   4.235  0.2157  0.1791  0.2839
 9583TIP3    H150240   5.308   5.725   4.259  0.5493  0.1729 -0.9306
 9583TIP3    H250241   5.163   5.705   4.299  1.0751  0.2508  1.1051
 9584TIP3   OH250242   0.475   6.528  12.879  0.5504  0.6362  0.1942
 9584TIP3    H150243   0.512   6.480  12.953  2.4790 -1.1364 -1.8023
 9584TIP3    H250244   0.550   6.563  12.833 -0.1761 -1.7291 -3.1216
 9585TIP3   OH250245   5.631   6.707   1.194 -0.0750  0.1889  0.3617
 9585TIP3    H150246   5.620   6.795   1.160 -0.3423  0.0268  0.0223
 9585TIP3    H250247   5.611   6.715   1.288  0.9264  0.6835  0.5491
 9586TIP3   OH250248   1.272   5.530  14.860 -0.3326 -0.1299  0.6766
 9586TIP3    H150249   1.231   5.494  14.781  0.8299 -0.3800  0.1622
 9586TIP3    H250250   1.230   5.616  14.872  0.6404  0.6686 -1.2126
 9587TIP3   OH250251   5.415   2.007   0.917  0.3312 -0.0390  0.3454
 9587TIP3    H150252   5.383   1.918   0.903  0.1941  0.1649 -0.6923
 9587TIP3    H250253   5.336   2.061   0.917  0.4957  0.2127 -0.1699
 9588TIP3   OH250254   2.024   1.101  15.661 -0.2657 -0.2556  0.1768
 9588TIP3    H150255   2.075   1.119  15.740  0.7441 -1.4739 -0.1770
 9588TIP3    H250256   1.952   1.046  15.692  1.3086 -2.5487 -0.0242
 9589TIP3   OH250257   3.024   0.742   0.968  0.0558  0.0803  0.4566
 9589TIP3    H150258   3.117   0.721   0.971  0.3173  0.9205 -1.0788
 9589TIP3    H250259   2.980   0.657   0.975  0.8862 -0.2679  1.9415
 9590TIP3   OH250260   1.791   3.303  13.964  0.1716 -0.3514 -0.3786
 9590TIP3    H150261   1.821   3.219  13.999  1.2372 -0.5375 -1.6553
 9590TIP3    H250262   1.709   3.320  14.010  0.0186 -2.0068  0.0273
 9591TIP3   OH250263   2.270   6.551  13.085 -0.3399  0.5625 -0.2153
 9591TIP3    H150264   2.307   6.501  13.013  2.1275  1.1328  0.5728
 9591TIP3    H250265   2.305   6.639  13.075 -0.2200  0.7473  1.4426
 9592TIP3   OH250266   6.672   6.088  13.043 -0.2635 -0.8559 -0.1605
 9592TIP3    H150267   6.604   6.024  13.023 -0.1501 -1.3592  0.9903
 9592TIP3    H250268   6.670   6.097  13.138 -1.3986  2.1142 -0.3419
 9593TIP3   OH250269   3.559   5.757  11.238 -0.0304 -0.7048 -0.5584
 9593TIP3    H150270   3.581   5.777  11.329  2.0817  0.8721 -1.3264
 9593TIP3    H250271   3.604   5.675  11.220 -1.2360 -1.5232  0.0531
 9594TIP3   OH250272   1.337   5.551   5.043  0.2853  0.3636 -0.4254
 9594TIP3    H150273   1.365   5.589   5.126 -2.1572  0.4132  0.4520
 9594TIP3    H250274   1.372   5.611   4.976 -0.1920  1.9870  0.7283
 9595TIP3   OH250275   0.919   4.874   4.961  0.0403 -0.0956 -0.3781
 9595TIP3    H150276   0.847   4.933   4.985 -0.4862 -0.0959 -1.8486
 9595TIP3    H250277   0.950   4.839   5.044 -0.7840  0.9297  0.3886
 9596TIP3   OH250278   0.462   0.269  13.844 -0.4017  0.7479 -0.1737
 9596TIP3    H150279   0.495   0.276  13.754  0.7839  1.1218  0.2778
 9596TIP3    H250280   0.367   0.262  13.833 -0.3726  1.8661 -1.4095
 9597TIP3   OH250281   2.434   6.007  13.903  0.6683 -0.0557 -0.2631
 9597TIP3    H150282   2.396   5.962  13.827  1.1898 -0.1119 -0.4945
 9597TIP3    H250283   2.385   5.974  13.978  0.1221  0.0262 -0.5779
 9598TIP3   OH250284   6.834   5.344   4.096  0.1110  0.2081  0.1168
 9598TIP3    H150285   6.800   5.261   4.062 -0.5436  0.1825  0.8073
 9598TIP3    H250286   6.782   5.411   4.051  0.8768  0.2664 -0.7008
 9599TIP3   OH250287   0.251   2.665   3.756 -0.2918 -0.3763 -0.0045
 9599TIP3    H150288   0.312   2.739   3.749  0.2801 -0.6337  1.7526
 9599TIP3    H250289   0.238   2.654   3.850 -1.7917 -1.3850 -0.2951
 9600TIP3   OH250290   5.086   3.769  14.728  0.2864 -0.5602  0.3264
 9600TIP3    H150291   5.035   3.789  14.806  1.0597 -1.3430  1.0657
 9600TIP3    H250292   5.122   3.682  14.745  0.5698 -0.6981 -0.8570
 9601TIP3   OH250293   1.929   4.712  15.870 -0.5300  0.6557 -0.0955
 9601TIP3    H150294   1.886   4.743  15.950 -1.7206 -1.1580  0.0361
 9601TIP3    H250295   2.003   4.771  15.858 -0.7464  1.4221  1.9396
 9602TIP3   OH250296   5.101   3.992  10.785 -0.0393 -0.0654 -0.3961
 9602TIP3    H150297   5.044   3.943  10.726 -1.8100 -1.9975  2.6140
 9602TIP3    H250298   5.059   4.078  10.793  0.3284  0.2846 -1.9928
 9603TIP3   OH250299   3.718   0.319  16.117  0.0118 -0.4123  0.3338
 9603TIP3    H150300   3.769   0.390  16.077 -1.4955  1.3623  1.4013
 9603TIP3    H250301   3.678   0.273  16.043 -1.1559  1.5738 -0.3321
 9604TIP3   OH250302   4.867   1.090   5.490 -0.0364 -0.0453 -0.1938
 9604TIP3    H150303   4.792   1.149   5.479  0.5140  0.5682 -0.7150
 9604TIP3    H250304   4.876   1.079   5.585 -0.8772 -0.2537 -0.1297
 9605TIP3   OH250305   4.919   3.625  13.931  0.3113  0.5225  0.1977
 9605TIP3    H150306   4.912   3.562  14.003  0.3739 -0.1491 -0.3727
 9605TIP3    H250307   4.865   3.699  13.959 -2.8658 -1.2784 -0.6724
 9606TIP3   OH250308   1.941   5.581   3.256 -0.3030 -0.3965  0.3925
 9606TIP3    H150309   1.897   5.608   3.337  0.3206 -1.3094  1.0579
 9606TIP3    H250310   1.893   5.504   3.227 -0.2005 -0.3787  0.1722
 9607TIP3   OH250311   6.063   6.105   2.134  0.5241  0.2155  0.0244
 9607TIP3    H150312   6.156   6.128   2.140  0.3763  0.7489  0.4160
 9607TIP3    H250313   6.056   6.021   2.179  1.1857 -0.9788 -1.9819
 9608TIP3   OH250314   3.952   4.969   0.098 -0.0632  0.4350  0.0831
 9608TIP3    H150315   3.859   4.978   0.119  0.0242 -0.9318  1.1633
 9608TIP3    H250316   3.998   5.016   0.167  0.0717  1.6848 -0.8102
 9609TIP3   OH250317   6.283   1.278   2.001 -0.3644 -0.2191 -0.3065
 9609TIP3    H150318   6.204   1.311   2.045  0.0179  1.2120 -0.6255
 9609TIP3    H250319   6.350   1.277   2.069 -0.1908  0.4020 -0.4608
 9610TIP3   OH250320   4.115   4.839   5.188 -0.2475  0.1871  0.3031
 9610TIP3    H150321   4.190   4.781   5.171 -0.6221 -0.2902  0.2499
 9610TIP3    H250322   4.078   4.806   5.270 -0.4508  0.3608  0.2820
 9611TIP3   OH250323   3.909   0.381  13.843  0.1601  0.4040  0.7060
 9611TIP3    H150324   3.991   0.357  13.886  0.1540 -2.7878 -0.8114
 9611TIP3    H250325   3.845   0.321  13.879 -0.9113  0.9782 -0.1923
 9612TIP3   OH250326   2.329   4.088  16.733  0.0932 -0.0928  0.3910
 9612TIP3    H150327   2.273   4.024  16.777 -1.4571  0.7603 -0.2355
 9612TIP3    H250328   2.268   4.156  16.704  1.2403  0.0830 -1.7815
 9613TIP3   OH250329   4.382   6.211  11.668  0.1750  0.3829  0.0165
 9613TIP3    H150330   4.384   6.295  11.714 -0.8862  0.9778 -0.9580
 9613TIP3    H250331   4.305   6.166  11.703  0.8205 -0.2669  0.6376
 9614TIP3   OH250332   4.143   1.659   1.647  0.4752 -0.9403  0.2417
 9614TIP3    H150333   4.108   1.725   1.587 -2.7641 -2.4564  0.2658
 9614TIP3    H250334   4.188   1.596   1.590 -1.1225 -1.4809 -0.4833
 9615TIP3   OH250335   6.399   0.156  15.280  0.5417 -0.0587  0.3921
 9615TIP3    H150336   6.467   0.097  15.247  0.6064  0.3534 -0.2300
 9615TIP3    H250337   6.395   0.138  15.374  1.0527 -0.5505  0.3262
 9616TIP3   OH250338   6.174   3.687   0.536 -0.1039  0.0944 -0.7853
 9616TIP3    H150339   6.151   3.605   0.580  0.1726 -1.1551 -2.8148
 9616TIP3    H250340   6.090   3.726   0.513 -0.2390  0.0987 -0.2825
 9617TIP3   OH250341   0.381   5.466   1.387 -0.3618  0.4378 -0.6480
 9617TIP3    H150342   0.362   5.438   1.477 -0.9068  0.7288 -0.6690
 9617TIP3    H250343   0.384   5.561   1.392 -2.1421  0.5746 -1.2455
 9618TIP3   OH250344   3.841   6.372  13.832  1.0412  0.3254  0.2906
 9618TIP3    H150345   3.922   6.323  13.844  0.7074 -0.0234  1.1945
 9618TIP3    H250346   3.777   6.328  13.887 -0.1622 -0.2709 -1.4888
 9619TIP3   OH250347   6.605   5.975   2.055  0.1770  0.3780  0.2145
 9619TIP3    H150348   6.612   5.889   2.013 -2.2218 -0.2034  0.8757
 9619TIP3    H250349   6.666   5.970   2.129 -0.4636 -1.0498  0.6805
 9620TIP3   OH250350   5.415   3.362  14.272 -0.0326 -0.4069 -0.1778
 9620TIP3    H150351   5.333   3.370  14.225  1.4239  0.1373 -2.7989
 9620TIP3    H250352   5.432   3.449  14.307  0.1456 -0.1328 -0.9356
 9621TIP3   OH250353   2.391   0.274   4.763  0.2653  0.3904  0.7776
 9621TIP3    H150354   2.389   0.240   4.674  0.9312 -0.7635  1.1762
 9621TIP3    H250355   2.483   0.270   4.788  0.1695  1.3058  1.2954
 9622TIP3   OH250356   1.762   4.742  14.532  0.3285 -0.2179  0.1951
 9622TIP3    H150357   1.745   4.699  14.616 -0.1130  0.9456  0.7202
 9622TIP3    H250358   1.841   4.699  14.498 -0.8490 -2.4043  0.0174
 9623TIP3   OH250359   1.652   5.653  11.242  0.6637 -0.2748 -0.0108
 9623TIP3    H150360   1.658   5.712  11.317  0.5369 -0.2355 -0.0315
 9623TIP3    H250361   1.582   5.592  11.264 -0.8084  1.0115 -0.9672
 9624TIP3   OH250362   6.492   2.350  16.660 -0.2480  0.6792 -0.5194
 9624TIP3    H150363   6.506   2.312  16.747  2.0593  0.0308 -1.1005
 9624TIP3    H250364   6.518   2.442  16.670 -1.2569  0.9437 -0.2348
 9625TIP3   OH250365   0.837   4.220   3.794 -0.3340  0.7953  0.2234
 9625TIP3    H150366   0.798   4.219   3.882  0.5250 -0.3782  0.6320
 9625TIP3    H250367   0.802   4.298   3.752 -2.4153  0.2592  0.8705
 9626TIP3   OH250368   3.171   4.520  14.254  0.0248 -0.2796  0.1005
 9626TIP3    H150369   3.214   4.543  14.172 -1.7627  1.9823 -0.2820
 9626TIP3    H250370   3.096   4.466  14.228 -0.3077  0.0907  0.2879
 9627TIP3   OH250371   2.935   1.332   2.937  0.3098 -0.3160 -0.6908
 9627TIP3    H150372   2.866   1.398   2.947  0.5584 -0.0726 -0.5781
 9627TIP3    H250373   2.904   1.276   2.866 -0.8202 -1.2365  0.4761
 9628TIP3   OH250374   4.566   0.395  14.149  0.0233  0.3521 -0.0964
 9628TIP3    H150375   4.480   0.391  14.190  0.1309 -0.1070  0.0970
 9628TIP3    H250376   4.570   0.316  14.094  0.5902 -0.0202  0.4555
 9629TIP3   OH250377   5.435   3.441  13.682  0.3584  0.0775  0.1204
 9629TIP3    H150378   5.423   3.417  13.773  1.9286  1.8115  0.8524
 9629TIP3    H250379   5.443   3.537  13.683 -1.1288  0.3095 -2.0422
 9630TIP3   OH250380   1.924   0.119  11.971  0.3403  0.7538 -0.4314
 9630TIP3    H150381   1.863   0.192  11.963  0.7951  1.4850  1.9579
 9630TIP3    H250382   1.904   0.080  12.056  0.6059 -1.4760 -1.3240
 9631TIP3   OH250383   4.491   0.666  13.616  0.7040 -0.0528  0.0067
 9631TIP3    H150384   4.413   0.690  13.665  2.2121  0.4172  2.3285
 9631TIP3    H250385   4.486   0.571  13.609 -0.4041  0.0250 -0.5210
 9632TIP3   OH250386   5.626   3.738  14.250  0.3835  0.3315  0.1983
 9632TIP3    H150387   5.652   3.688  14.173 -1.2271  0.7789 -0.6836
 9632TIP3    H250388   5.708   3.767  14.290  1.2752 -1.1090 -0.5327
 9633TIP3   OH250389   1.920   4.984  10.360 -0.3338  0.3601 -0.0555
 9633TIP3    H150390   1.838   4.958  10.401 -0.3218  0.7962  0.2492
 9633TIP3    H250391   1.930   5.076  10.383  0.9817 -0.0555  1.1744
 9634TIP3   OH250392   1.723   5.627   2.452  0.8463  0.1706 -0.0635
 9634TIP3    H150393   1.635   5.660   2.432  1.8423  3.0206 -0.1901
 9634TIP3    H250394   1.766   5.621   2.366  1.3918  0.8259  0.1534
 9635TIP3   OH250395   2.897   4.458  16.810  0.0722 -0.4689 -0.0317
 9635TIP3    H150396   2.940   4.533  16.851 -1.1726  1.0167 -1.3373
 9635TIP3    H250397   2.942   4.447  16.727  0.9706 -1.9046  0.6177
 9636TIP3   OH250398   5.997   2.862  13.290 -0.3311  0.1611 -0.2538
 9636TIP3    H150399   5.960   2.903  13.368  1.3676 -1.2109  1.3827
 9636TIP3    H250400   5.922   2.846  13.233 -1.9313 -0.4162  1.8772
 9637TIP3   OH250401   3.365   0.483   5.343 -0.0494 -0.3547 -0.8578
 9637TIP3    H150402   3.339   0.435   5.421 -0.4046 -0.8741 -1.2861
 9637TIP3    H250403   3.322   0.437   5.271  1.4193 -0.7667 -1.5139
 9638TIP3   OH250404   5.023   6.539  17.028 -0.4832 -0.5888  0.0875
 9638TIP3    H150405   5.045   6.465  17.085 -0.0479  0.8785  1.9187
 9638TIP3    H250406   4.928   6.547  17.036 -0.3687 -0.0476  1.1067
 9639TIP3   OH250407   0.566   4.448  12.713  0.6342 -0.5975  0.0830
 9639TIP3    H150408   0.634   4.512  12.735  0.2866 -0.0616 -0.3549
 9639TIP3    H250409   0.533   4.477  12.628  0.8442 -1.6903 -0.3920
 9640TIP3   OH250410   3.750   6.111   0.949  0.3689 -0.0405 -0.0285
 9640TIP3    H150411   3.752   6.031   0.896 -1.7450 -0.4761  0.4689
 9640TIP3    H250412   3.824   6.102   1.008 -0.1161 -1.8985  0.3546
 9641TIP3   OH250413   3.233   5.702  13.368 -0.2591  0.5711 -0.6857
 9641TIP3    H150414   3.252   5.753  13.289 -1.4953  2.0623 -0.0656
 9641TIP3    H250415   3.144   5.672  13.356 -0.4390  0.7710  0.1145
 9642TIP3   OH250416   0.808   4.248  10.765 -0.1303 -0.1827 -0.1035
 9642TIP3    H150417   0.836   4.159  10.788 -0.4713 -0.7800 -1.8671
 9642TIP3    H250418   0.714   4.242  10.752 -0.6204  1.0595  2.3357
 9643TIP3   OH250419   1.110   0.148  14.881  0.0631  0.2861  0.0466
 9643TIP3    H150420   1.035   0.133  14.823  0.5506 -0.5166 -0.4004
 9643TIP3    H250421   1.076   0.206  14.949 -1.4192 -1.2249  0.6944
 9644TIP3   OH250422   5.623   3.466  15.685 -0.5666  0.7269 -0.4296
 9644TIP3    H150423   5.658   3.538  15.632 -1.9887  0.7691 -1.3632
 9644TIP3    H250424   5.574   3.412  15.622 -1.3992  0.1862  0.6563
 9645TIP3   OH250425   2.307   2.063  11.120 -0.2106  0.1539 -0.6167
 9645TIP3    H150426   2.283   1.995  11.057  1.0089  0.4641 -1.4550
 9645TIP3    H250427   2.403   2.067  11.115 -0.0905  0.2153  1.2440
 9646TIP3   OH250428   4.631   5.144  14.201  0.3922 -0.2535  0.1434
 9646TIP3    H150429   4.672   5.099  14.127  1.4296  0.5599  0.1957
 9646TIP3    H250430   4.644   5.084  14.275 -1.4182 -1.4654 -0.4647
 9647TIP3   OH250431   4.515   0.907  13.862  0.3532  0.2685 -0.1158
 9647TIP3    H150432   4.579   0.932  13.796 -0.2076 -0.5806 -1.0138
 9647TIP3    H250433   4.565   0.853  13.924  0.6773  0.2797 -0.3634
 9648TIP3   OH250434   2.576   3.129  16.268 -0.5430 -0.0683  0.4676
 9648TIP3    H150435   2.653   3.117  16.323 -0.0472  0.9607  0.0248
 9648TIP3    H250436   2.550   3.041  16.242  0.3534 -0.4371  0.8050
 9649TIP3   OH250437   2.926   0.678  11.385  0.0137  0.7204 -0.5635
 9649TIP3    H150438   2.986   0.604  11.374  0.9600  1.2626  0.6782
 9649TIP3    H250439   2.895   0.697  11.296 -1.2611 -1.9261 -0.7832
 9650TIP3   OH250440   5.737   6.041   0.105  0.0860  0.2390  0.0148
 9650TIP3    H150441   5.789   6.044   0.186 -0.8902  0.6565  0.6411
 9650TIP3    H250442   5.688   6.123   0.105 -0.0652  0.1557 -0.9137
 9651TIP3   OH250443   5.519   2.704   6.615 -0.0086 -0.5516  0.0984
 9651TIP3    H150444   5.503   2.624   6.565 -0.0545 -1.1808  1.0903
 9651TIP3    H250445   5.597   2.684   6.667 -2.1339 -1.4508  3.2550
 9652TIP3   OH250446   3.250   5.611  16.547  0.0785 -0.5798  0.4459
 9652TIP3    H150447   3.158   5.609  16.573  0.0531  0.3056  0.4378
 9652TIP3    H250448   3.298   5.615  16.630  0.1194 -1.1568  0.4547
 9653TIP3   OH250449   3.408   1.185  15.197  0.0789 -0.0814  0.1206
 9653TIP3    H150450   3.341   1.118  15.212 -0.8321  1.0931  1.5378
 9653TIP3    H250451   3.430   1.218  15.284  0.6612  1.3059 -0.5142
 9654TIP3   OH250452   2.406   6.056   4.841 -0.5993  0.8478  0.0864
 9654TIP3    H150453   2.385   6.136   4.891 -0.0214 -0.1640  2.0530
 9654TIP3    H250454   2.470   6.011   4.895 -0.5637 -0.7436 -1.2256
 9655TIP3   OH250455   4.833   6.574  16.252 -0.5109 -0.2711 -0.2546
 9655TIP3    H150456   4.753   6.525  16.234 -0.6486  0.0854 -0.6289
 9655TIP3    H250457   4.834   6.643  16.186 -0.3614  0.2814  0.3160
 9656TIP3   OH250458   6.310   1.763   0.465 -0.0005 -0.0582 -0.2497
 9656TIP3    H150459   6.281   1.829   0.403 -0.6565  0.5972  0.7271
 9656TIP3    H250460   6.350   1.695   0.411  3.3603  2.3881 -1.1548
 9657TIP3   OH250461   1.728   3.247  11.374 -0.5351 -0.1299 -0.5685
 9657TIP3    H150462   1.683   3.322  11.335 -0.3133  1.0641  1.3537
 9657TIP3    H250463   1.707   3.252  11.467 -0.1539 -2.2365 -0.3265
 9658TIP3   OH250464   5.900   4.896   4.723 -0.0415  0.8607  0.7580
 9658TIP3    H150465   5.984   4.886   4.678 -0.1315  0.7500  0.6124
 9658TIP3    H250466   5.877   4.807   4.750 -1.4771  0.4014 -1.6696
 9659TIP3   OH250467   3.410   5.133   6.224  0.4038  0.2134  0.3763
 9659TIP3    H150468   3.448   5.111   6.309 -0.2939  2.7004  1.4046
 9659TIP3    H250469   3.332   5.077   6.219  1.4203 -1.2819  0.4997
 9660TIP3   OH250470   0.185   5.046  12.611  0.3047 -0.4299 -0.1946
 9660TIP3    H150471   0.202   4.958  12.575  0.8685 -0.2915 -0.2750
 9660TIP3    H250472   0.150   5.095  12.537 -0.8329 -0.8173  0.0629
 9661TIP3   OH250473   0.728   4.381  15.740 -0.0939 -0.6604 -0.5463
 9661TIP3    H150474   0.635   4.359  15.738 -0.3793  0.1501  1.6145
 9661TIP3    H250475   0.766   4.325  15.808  0.9537 -0.7748 -1.1950
 9662TIP3   OH250476   2.717   0.608  14.781  0.1950  0.1839 -0.8397
 9662TIP3    H150477   2.772   0.550  14.835  0.1524 -0.8590 -1.8685
 9662TIP3    H250478   2.633   0.612  14.827 -0.1985 -1.5640 -1.3242
 9663TIP3   OH250479   0.659   0.396  13.978 -0.6840  0.1985 -0.3064
 9663TIP3    H150480   0.581   0.358  13.938  0.3636 -2.5035  0.0638
 9663TIP3    H250481   0.645   0.385  14.072  0.9505 -2.2460 -0.2611
 9664TIP3   OH250482   6.698   6.577  12.355  0.5735  0.0969 -0.8058
 9664TIP3    H150483   6.788   6.600  12.329  0.5732 -0.1489 -1.0286
 9664TIP3    H250484   6.709   6.500  12.412  0.5938  0.7735  0.1338
 9665TIP3   OH250485   3.895   3.739   0.558 -0.2690  0.3057  0.2564
 9665TIP3    H150486   3.983   3.773   0.575 -0.3585  0.0707  1.2142
 9665TIP3    H250487   3.883   3.669   0.622 -1.1812  0.3827  0.1804
 9666TIP3   OH250488   1.115   0.738  13.856 -0.2063  0.2857  0.0116
 9666TIP3    H150489   1.179   0.806  13.878  0.6417 -0.1720 -0.9571
 9666TIP3    H250490   1.031   0.773  13.887  0.7788 -0.1197  3.6017
 9667TIP3   OH250491   0.815   2.739   1.442 -0.5450 -0.3787  0.0162
 9667TIP3    H150492   0.802   2.751   1.537 -1.4846 -0.2309 -0.1237
 9667TIP3    H250493   0.901   2.779   1.425 -0.7775  0.4317  0.6577
 9668TIP3   OH250494   6.744   0.679   1.266 -0.0040 -0.2150 -0.1522
 9668TIP3    H150495   6.819   0.734   1.245 -0.5637  0.4816 -0.3684
 9668TIP3    H250496   6.751   0.605   1.205 -0.6741  0.9439 -1.7128
 9669TIP3   OH250497   1.257   1.878  14.695  0.1064 -0.4409 -0.6180
 9669TIP3    H150498   1.218   1.903  14.779 -0.1008 -2.3228 -0.1029
 9669TIP3    H250499   1.188   1.831  14.649  0.3449  0.2344 -1.6910
 9670TIP3   OH250500   4.434   0.818   3.888  0.7278 -0.1028  0.1500
 9670TIP3    H150501   4.488   0.788   3.961 -0.2175 -1.2687  0.3929
 9670TIP3    H250502   4.351   0.843   3.928  0.2484 -0.6142 -0.4937
 9671TIP3   OH250503   1.870   0.481   4.604  0.0733 -0.1815  0.3174
 9671TIP3    H150504   1.839   0.398   4.638 -0.8595  0.4494  1.0620
 9671TIP3    H250505   1.803   0.508   4.541 -0.3559  0.6486  1.1009
 9672TIP3   OH250506   1.393   5.026   2.292 -0.3200 -0.7389  0.5523
 9672TIP3    H150507   1.400   4.973   2.371 -0.5937 -0.3277  0.8580
 9672TIP3    H250508   1.475   5.075   2.289 -0.1552 -1.0222  0.3816
 9673TIP3   OH250509   2.697   1.227  11.785 -0.2115  0.2419  0.2619
 9673TIP3    H150510   2.611   1.193  11.761  0.4368 -0.8311 -0.6066
 9673TIP3    H250511   2.713   1.299  11.724  0.4814 -1.0646 -1.1650
 9674TIP3   OH250512   1.829   1.967  13.683  0.5304  0.4532 -0.3174
 9674TIP3    H150513   1.843   1.985  13.776  0.0117 -0.3872 -0.0677
 9674TIP3    H250514   1.908   1.921  13.656  0.6143  0.5603 -0.2576
 9675TIP3   OH250515   1.912   0.543   3.024  0.1171 -0.1707 -0.1750
 9675TIP3    H150516   1.846   0.480   2.994  0.3800  0.1802 -1.5949
 9675TIP3    H250517   1.932   0.594   2.945  0.0774  1.5342  0.8809
 9676TIP3   OH250518   1.960   3.670   5.116  0.4566  0.0851  0.0068
 9676TIP3    H150519   2.039   3.724   5.126  0.3433  0.3868 -0.6311
 9676TIP3    H250520   1.890   3.724   5.151  0.2597  0.6009 -1.1181
 9677TIP3   OH250521   2.877   1.869   0.736  0.7348 -0.1217 -0.7068
 9677TIP3    H150522   2.971   1.874   0.755  0.6785 -0.8080 -0.2392
 9677TIP3    H250523   2.863   1.779   0.709 -0.0309 -0.3931  0.5233
 9678TIP3   OH250524   3.656   4.236  15.291 -0.2696  0.2862 -0.3207
 9678TIP3    H150525   3.610   4.319  15.281 -1.1286 -0.2418 -0.8193
 9678TIP3    H250526   3.742   4.261  15.325 -0.8178  1.3050  0.3792
 9679TIP3   OH250527   6.464   3.026  16.623  0.2741  0.1084  0.9247
 9679TIP3    H150528   6.490   3.105  16.671 -0.1382  0.0810  1.1959
 9679TIP3    H250529   6.368   3.026  16.627  0.1732  0.6574 -0.7843
 9680TIP3   OH250530   3.252   1.488   2.072 -0.3276  0.3911 -0.3130
 9680TIP3    H150531   3.313   1.470   2.001  0.9831 -0.2865  0.9288
 9680TIP3    H250532   3.306   1.485   2.151 -2.1609 -1.4710  0.9653
 9681TIP3   OH250533   2.921   5.825  13.127 -0.4419  0.1229 -0.2576
 9681TIP3    H150534   2.946   5.913  13.099 -1.7220  0.9888  1.1214
 9681TIP3    H250535   2.858   5.796  13.061  0.4229 -0.0169 -1.0363
 9682TIP3   OH250536   1.698   4.168  15.529  0.5102  0.4889 -0.0174
 9682TIP3    H150537   1.696   4.072  15.529 -1.0098  0.4995 -0.5824
 9682TIP3    H250538   1.607   4.194  15.538  0.5981  1.8509 -2.2138
 9683TIP3   OH250539   5.768   1.867   5.525  0.5402 -0.0641  0.0444
 9683TIP3    H150540   5.727   1.927   5.586  3.9122  3.2832 -0.6283
 9683TIP3    H250541   5.835   1.822   5.576  2.9072  2.2434 -0.8607
 9684TIP3   OH250542   5.950   0.794   2.787  0.2930 -0.2176 -0.0047
 9684TIP3    H150543   5.869   0.844   2.794 -0.3005 -0.8803 -1.5896
 9684TIP3    H250544   5.923   0.703   2.791  0.8100 -0.4645 -1.4713
 9685TIP3   OH250545   0.332   3.332  13.448 -0.2091 -0.5369 -0.2334
 9685TIP3    H150546   0.374   3.418  13.440  1.3315 -0.9178  2.5328
 9685TIP3    H250547   0.398   3.270  13.417 -0.1993 -0.9033  0.5055
 9686TIP3   OH250548   2.028   4.355  14.760  0.4475  0.4532  0.3134
 9686TIP3    H150549   2.027   4.330  14.853 -0.0588  1.4286  0.5795
 9686TIP3    H250550   1.938   4.340  14.730  1.2547 -2.8341 -0.8783
 9687TIP3   OH250551   5.804   6.838  13.568 -0.1642 -0.0059 -0.1870
 9687TIP3    H150552   5.772   6.805  13.651  3.3261 -3.1825  0.1367
 9687TIP3    H250553   5.783   6.769  13.505  0.6411  0.5980 -1.1468
 9688TIP3   OH250554   1.324   0.242  15.589  0.3514 -0.1835 -0.3344
 9688TIP3    H150555   1.304   0.225  15.681 -1.3407 -1.2932 -0.8640
 9688TIP3    H250556   1.408   0.288  15.591  1.7190 -2.5156  1.6345
 9689TIP3   OH250557   0.595   6.125  12.026 -0.3468 -0.2020 -0.1261
 9689TIP3    H150558   0.592   6.215  11.995  1.7189 -0.3584 -0.9471
 9689TIP3    H250559   0.599   6.071  11.947  0.4281 -0.8777  0.3506
 9690TIP3   OH250560   4.539   4.061   4.292 -0.7885 -0.0007 -0.3982
 9690TIP3    H150561   4.516   4.121   4.221 -2.6234  1.8239  1.5853
 9690TIP3    H250562   4.455   4.024   4.320 -0.1238 -0.6152  0.8723
 9691TIP3   OH250563   6.021   0.243   3.111 -0.7375  0.2235  0.4814
 9691TIP3    H150564   5.974   0.318   3.074  2.5869  2.2861 -0.0122
 9691TIP3    H250565   6.029   0.265   3.204  1.1286  1.1318  0.1596
 9692TIP3   OH250566   0.153   6.557  12.334 -0.4265 -0.1992  0.1039
 9692TIP3    H150567   0.231   6.603  12.304 -1.4395  0.9222 -0.9292
 9692TIP3    H250568   0.184   6.500  12.404  1.2022  0.6735  0.1416
 9693TIP3   OH250569   1.202   3.121   3.288  0.5957 -0.8532  0.0402
 9693TIP3    H150570   1.253   3.040   3.294  1.2349 -0.3515  2.8161
 9693TIP3    H250571   1.258   3.181   3.239  1.7116 -1.0075  1.0971
 9694TIP3   OH250572   0.217   3.881  12.699  0.8766 -0.0438 -0.1386
 9694TIP3    H150573   0.286   3.835  12.652  1.6577  0.1888  0.7429
 9694TIP3    H250574   0.197   3.956  12.643  0.7908 -0.5323 -0.7701
 9695TIP3   OH250575   3.484   6.059  11.485 -0.0845 -0.5607 -0.6646
 9695TIP3    H150576   3.533   5.977  11.488  2.4672  0.9074  1.1692
 9695TIP3    H250577   3.421   6.052  11.557  1.1882 -0.3117  0.4886
 9696TIP3   OH250578   0.275   2.980  12.683  0.4695 -0.3232  0.2378
 9696TIP3    H150579   0.224   2.900  12.698 -0.0849  0.0120  0.1743
 9696TIP3    H250580   0.361   2.948  12.654 -0.4954 -0.9050 -2.2485
 9697TIP3   OH250581   4.033   3.868  12.685 -0.2327 -0.2202  0.2706
 9697TIP3    H150582   4.036   3.787  12.736  0.3176  0.7755  1.9178
 9697TIP3    H250583   4.045   3.841  12.595 -0.1087 -1.9675  0.7795
 9698TIP3   OH250584   2.410   3.228   1.450  0.3715 -0.0696  0.0743
 9698TIP3    H150585   2.464   3.289   1.500 -1.3932  1.6389  0.0161
 9698TIP3    H250586   2.345   3.196   1.514 -0.4582  0.3340 -0.5435
 9699TIP3   OH250587   4.126   6.205  11.447  0.2588 -0.2862  0.0189
 9699TIP3    H150588   4.115   6.110  11.441 -0.4127 -0.2370  0.3561
 9699TIP3    H250589   4.095   6.238  11.363  1.5451 -0.4425 -0.5320
 9700TIP3   OH250590   3.120   5.120  14.354  0.6371  0.3840  0.3681
 9700TIP3    H150591   3.208   5.110  14.317  0.1021 -0.8837 -0.6229
 9700TIP3    H250592   3.081   5.192  14.303  0.1432 -0.9041 -1.1557
 9701TIP3   OH250593   0.070   0.811   2.320 -0.5557 -0.0364  0.3155
 9701TIP3    H150594  -0.009   0.762   2.343 -0.0642 -0.6269  0.7799
 9701TIP3    H250595   0.045   0.903   2.329 -1.1445 -0.2167  0.5882
 9702TIP3   OH250596   2.576   5.685  11.602 -0.3596 -0.2988 -0.6206
 9702TIP3    H150597   2.567   5.653  11.692  0.4835 -1.4672 -0.9171
 9702TIP3    H250598   2.669   5.674  11.582  0.0103  2.3902 -0.7788
 9703TIP3   OH250599   0.481   0.007  15.271  0.0467  0.0598  0.3196
 9703TIP3    H150600   0.449   0.033  15.357 -0.2221  0.7903  0.0034
 9703TIP3    H250601   0.543  -0.064  15.289 -0.4121 -0.1600  1.0677
 9704TIP3   OH250602   0.491   1.554  12.182 -0.0309  0.3175 -0.2914
 9704TIP3    H150603   0.555   1.603  12.129  0.2900  0.5890  0.3350
 9704TIP3    H250604   0.408   1.599  12.166  0.1201  0.5854 -0.3275
 9705TIP3   OH250605   5.483   3.729  16.063  1.1903 -0.2714 -0.1854
 9705TIP3    H150606   5.431   3.802  16.029  4.0023  0.6678 -2.9222
 9705TIP3    H250607   5.432   3.651  16.038  0.3785  0.6191 -1.4563
 9706TIP3   OH250608   2.160   3.953   1.903 -0.1347  0.2598 -0.4393
 9706TIP3    H150609   2.214   3.886   1.861  0.6661  1.9663 -2.2726
 9706TIP3    H250610   2.070   3.922   1.890  0.2249 -0.5486 -1.1141
 9707TIP3   OH250611   3.145   5.258  13.776 -0.0090  0.1792  0.7403
 9707TIP3    H150612   3.090   5.277  13.852 -0.7151  3.3811 -0.3960
 9707TIP3    H250613   3.086   5.217  13.713  0.3205 -1.4847  1.4706
 9708TIP3   OH250614   1.908   1.390  14.451 -0.4593  0.3012  0.3359
 9708TIP3    H150615   1.879   1.425  14.367  1.0182 -0.6754 -0.6255
 9708TIP3    H250616   2.000   1.416  14.458 -0.6198  0.6036  1.8094
 9709TIP3   OH250617   2.748   0.696  14.016 -0.0594 -0.0556 -0.3782
 9709TIP3    H150618   2.720   0.608  14.040 -2.7242  1.5783  3.3674
 9709TIP3    H250619   2.668   0.748  14.015  1.3466  2.3750 -2.8591
 9710TIP3   OH250620   5.611   5.730   1.868 -0.0350 -0.1445  0.4472
 9710TIP3    H150621   5.690   5.729   1.815  0.0484 -1.1696  0.5549
 9710TIP3    H250622   5.602   5.820   1.898  1.6262 -0.1837  1.1930
 9711TIP3   OH250623   3.520   1.664  10.218  0.6007  0.2886  0.0293
 9711TIP3    H150624   3.540   1.597  10.283  2.1219  0.8988  0.2483
 9711TIP3    H250625   3.552   1.627  10.135 -0.5755 -0.1438 -0.2501
 9712TIP3   OH250626   4.013   2.788  15.040  0.4279 -0.0996 -0.1411
 9712TIP3    H150627   4.036   2.784  15.133 -0.0490 -0.1341 -0.0180
 9712TIP3    H250628   3.920   2.810  15.040 -0.1126 -2.1649 -0.5514
 9713TIP3   OH250629   5.117   1.097   0.674  0.0845  0.4679  0.6388
 9713TIP3    H150630   5.140   1.007   0.697  0.4648  0.3211 -0.2730
 9713TIP3    H250631   5.112   1.143   0.758  0.4433 -0.2727  1.0720
 9714TIP3   OH250632   2.429   0.977   2.866 -0.5878 -0.0915 -0.3462
 9714TIP3    H150633   2.412   1.002   2.957  0.8558  0.1755 -0.1284
 9714TIP3    H250634   2.385   0.892   2.857 -0.0260 -0.5370  0.8715
 9715TIP3   OH250635   5.481   2.611  16.250  0.2043  0.1648 -0.0640
 9715TIP3    H150636   5.571   2.645  16.256  0.1472  0.3155 -0.0553
 9715TIP3    H250637   5.487   2.538  16.190  0.0545  1.1019 -1.2504
 9716TIP3   OH250638   4.437   4.616   1.359  0.1985  0.3244  0.6274
 9716TIP3    H150639   4.480   4.680   1.302 -0.3323  0.0173 -0.1219
 9716TIP3    H250640   4.503   4.549   1.374 -0.1451 -0.3955 -0.9206
 9717TIP3   OH250641   3.646   6.427   5.164 -0.0277 -0.1403  0.3213
 9717TIP3    H150642   3.711   6.360   5.188 -0.2344 -0.2286  0.6422
 9717TIP3    H250643   3.652   6.491   5.235  1.0583  0.8319 -0.6035
 9718TIP3   OH250644   3.695   1.649  13.668  0.2892  0.0347 -0.5416
 9718TIP3    H150645   3.640   1.711  13.620  1.0017  0.6824 -0.5339
 9718TIP3    H250646   3.666   1.563  13.638 -2.9967  0.1269  1.8372
 9719TIP3   OH250647   3.748   0.578  10.572 -0.4438 -0.0973  0.1225
 9719TIP3    H150648   3.823   0.636  10.560  0.2948 -0.9590  0.4868
 9719TIP3    H250649   3.770   0.524  10.648 -1.0464 -0.9526 -0.2820
 9720TIP3   OH250650   3.664   3.540   5.014  0.1450  0.2870 -0.4122
 9720TIP3    H150651   3.689   3.454   4.980  1.3278  0.2432  0.5042
 9720TIP3    H250652   3.699   3.542   5.103 -3.9771 -0.1497  1.4841
 9721TIP3   OH250653   4.151   4.504  14.851 -0.0382 -0.2794 -0.1069
 9721TIP3    H150654   4.200   4.450  14.788 -0.7102  0.9158 -1.7359
 9721TIP3    H250655   4.077   4.449  14.877 -0.8160 -0.1613 -1.8933
 9722TIP3   OH250656   0.853   5.264   4.424  0.2136 -0.0465  0.5333
 9722TIP3    H150657   0.807   5.184   4.400  1.8821 -0.6330 -0.9274
 9722TIP3    H250658   0.863   5.258   4.519  0.9365 -1.9571  0.3870
 9723TIP3   OH250659   1.755   1.155   0.993 -0.2455  0.1822  0.2855
 9723TIP3    H150660   1.769   1.064   0.968  2.9381  0.6003  0.0597
 9723TIP3    H250661   1.663   1.160   1.018 -0.1750 -3.4615  1.8634
 9724TIP3   OH250662   4.870   5.220   6.061  0.8236  0.2817 -0.4961
 9724TIP3    H150663   4.789   5.176   6.089  1.3604 -0.2618  0.2612
 9724TIP3    H250664   4.900   5.266   6.139  2.3375 -1.2285 -0.1149
 9725TIP3   OH250665   2.686   0.834  15.854 -0.5335 -0.2880  0.5573
 9725TIP3    H150666   2.592   0.843  15.838 -0.5302  1.2178  1.1781
 9725TIP3    H250667   2.727   0.880  15.781 -0.3319  0.3431  1.0580
 9726TIP3   OH250668   4.592   0.500   5.188 -0.2151  0.7340  1.0435
 9726TIP3    H150669   4.598   0.455   5.103  0.1662  0.7828  1.0463
 9726TIP3    H250670   4.513   0.555   5.180 -1.1912 -0.5675  1.3472
 9727TIP3   OH250671   1.083   3.789  13.503 -1.0170 -0.3133  0.2037
 9727TIP3    H150672   0.988   3.774  13.499 -0.8789 -1.3305  0.5475
 9727TIP3    H250673   1.092   3.884  13.497 -1.9704 -0.2954 -1.5443
 9728TIP3   OH250674   3.176   4.090  16.385 -0.3308  0.2127 -0.5579
 9728TIP3    H150675   3.250   4.144  16.412  0.5684 -0.5868 -1.3160
 9728TIP3    H250676   3.100   4.131  16.426  0.7196  0.0545  1.7023
 9729TIP3   OH250677   4.607   0.437   2.344  0.2308  0.2686  0.1497
 9729TIP3    H150678   4.626   0.479   2.428 -0.7460  0.6089  0.2130
 9729TIP3    H250679   4.683   0.380   2.328  0.6046  0.4877  1.0692
 9730TIP3   OH250680   0.059   3.406  11.267  0.5419  0.3576 -0.1058
 9730TIP3    H150681   0.078   3.399  11.361 -1.0009 -0.1226  0.1986
 9730TIP3    H250682   0.073   3.499  11.248 -1.1441  0.9202  1.1148
 9731TIP3   OH250683   4.695   5.757  16.590  0.3855 -0.1977 -0.2494
 9731TIP3    H150684   4.776   5.706  16.588  0.6517  0.2298 -0.7563
 9731TIP3    H250685   4.638   5.715  16.525  0.8503  0.5294 -1.1518
 9732TIP3   OH250686   1.755   0.758  11.657  0.2962  0.4655 -0.2882
 9732TIP3    H150687   1.819   0.707  11.708 -0.0894 -0.9852 -1.2193
 9732TIP3    H250688   1.806   0.792  11.583  0.3973  0.8856 -0.0313
 9733TIP3   OH250689   2.055   4.877   2.557 -0.0491  0.2139  0.3295
 9733TIP3    H150690   2.055   4.878   2.652  0.0146 -1.9481  0.4116
 9733TIP3    H250691   2.142   4.845   2.533  0.2632  1.6192 -0.5084
 9734TIP3   OH250692   0.458   0.970  13.786  0.4256 -0.0614 -0.2820
 9734TIP3    H150693   0.433   0.938  13.873  2.1928  0.8020  0.6044
 9734TIP3    H250694   0.534   0.918  13.762 -0.1602 -0.4213 -1.4385
 9735TIP3   OH250695   4.875   4.425  12.622 -0.2544 -0.2050  0.6930
 9735TIP3    H150696   4.960   4.467  12.609 -0.2059 -0.6229 -0.4586
 9735TIP3    H250697   4.819   4.494  12.656 -0.1498  0.8043 -1.0748
 9736TIP3   OH250698   4.716   3.110   4.552 -0.1174 -0.1275  0.5612
 9736TIP3    H150699   4.746   3.046   4.488  1.6601  1.0480  0.1417
 9736TIP3    H250700   4.765   3.190   4.532 -1.6442  1.1466  1.5778
 9737TIP3   OH250701   0.609   6.195   3.009  0.3500 -0.2690  0.6586
 9737TIP3    H150702   0.657   6.166   3.087  0.4012  1.3808  1.2860
 9737TIP3    H250703   0.657   6.155   2.936 -0.2880 -2.6550  1.4644
 9738TIP3   OH250704   3.225   3.495  13.785  0.1922 -0.6498 -0.1193
 9738TIP3    H150705   3.200   3.583  13.813 -0.6614 -0.7409 -0.5668
 9738TIP3    H250706   3.317   3.504  13.759  0.1669  0.0703  0.0140
 9739TIP3   OH250707   2.520   3.696   1.143  0.2384 -0.0033  0.1297
 9739TIP3    H150708   2.544   3.611   1.179  0.7183 -0.8412 -2.0460
 9739TIP3    H250709   2.598   3.725   1.095 -0.2857  1.1583 -0.0581
 9740TIP3   OH250710   4.325   6.706   2.838 -0.4081 -0.5015  0.7992
 9740TIP3    H150711   4.280   6.648   2.899 -0.6870 -0.6378  0.4672
 9740TIP3    H250712   4.290   6.793   2.857 -1.6074 -0.7515 -0.1665
 9741TIP3   OH250713   3.083   1.737   5.113  0.1174 -0.0479 -0.6187
 9741TIP3    H150714   3.060   1.745   5.205 -0.2431  0.2268 -0.7312
 9741TIP3    H250715   3.036   1.659   5.083 -0.7460  0.5526 -0.8649
 9742TIP3   OH250716   2.838   2.392  16.237 -0.4833 -0.6629  0.4030
 9742TIP3    H150717   2.801   2.474  16.268 -0.4847 -0.8943  1.0379
 9742TIP3    H250718   2.782   2.324  16.275  0.0539 -0.9853  0.6321
 9743TIP3   OH250719   4.962   5.096  16.773  0.1565 -0.6054 -0.5951
 9743TIP3    H150720   4.888   5.037  16.760 -0.7622  0.4812 -0.3902
 9743TIP3    H250721   4.998   5.071  16.858 -1.2988  0.2589  0.2986
 9744TIP3   OH250722   4.362   5.888   1.864  0.3093  0.0152 -0.1795
 9744TIP3    H150723   4.401   5.870   1.949  0.0802 -0.8183 -0.2479
 9744TIP3    H250724   4.350   5.983   1.863  1.3968  0.1712  0.2411
 9745TIP3   OH250725   1.018   1.207  13.114  0.0095  0.0509 -0.0583
 9745TIP3    H150726   0.989   1.134  13.169  0.7119 -0.7998 -0.7788
 9745TIP3    H250727   1.011   1.173  13.025 -1.4030  1.5085 -0.5428
 9746TIP3   OH250728   5.042   3.458   4.973  0.0433  0.4729 -0.2181
 9746TIP3    H150729   4.986   3.437   4.898  1.4520 -0.6297 -1.0029
 9746TIP3    H250730   5.021   3.549   4.994  0.1809  1.0796 -2.4642
 9747TIP3   OH250731   5.139   1.575   2.852  0.1727  0.0709 -0.2081
 9747TIP3    H150732   5.139   1.545   2.762 -0.9228 -0.4640 -0.0506
 9747TIP3    H250733   5.129   1.670   2.847 -1.9252 -0.1342 -0.6409
 9748TIP3   OH250734   4.545   0.671  15.981  0.0288  0.4941  0.1935
 9748TIP3    H150735   4.468   0.653  16.035  1.0425 -1.7207  1.0533
 9748TIP3    H250736   4.619   0.664  16.041  0.9572  2.0927 -0.6995
 9749TIP3   OH250737   5.945   1.742   0.011 -0.0659  0.4668 -0.1284
 9749TIP3    H150738   5.925   1.695   0.092 -1.2315  2.0925  0.5847
 9749TIP3    H250739   5.909   1.688  -0.059 -0.6662 -0.0880  0.5998
 9750TIP3   OH250740   1.549   1.269  14.081 -0.4745 -0.3489 -0.0625
 9750TIP3    H150741   1.498   1.203  14.127 -0.1838 -2.7090 -2.7904
 9750TIP3    H250742   1.636   1.264  14.120 -0.5109 -1.4943 -0.1071
 9751TIP3   OH250743   1.850   0.225   1.388 -0.3016 -0.0552 -0.0482
 9751TIP3    H150744   1.839   0.319   1.373 -1.5760  0.1569  1.8764
 9751TIP3    H250745   1.801   0.208   1.468 -0.8938 -2.5533 -0.8674
 9752TIP3   OH250746   0.966   5.558   1.636 -0.3922  0.3535  0.0990
 9752TIP3    H150747   1.046   5.602   1.607 -1.2966  0.8832 -1.7460
 9752TIP3    H250748   0.948   5.596   1.722  0.8767  0.8401  0.1761
 9753TIP3   OH250749   5.394   0.381   3.304 -0.1323 -0.4113 -0.0409
 9753TIP3    H150750   5.475   0.355   3.260 -0.0399  0.2893 -0.2856
 9753TIP3    H250751   5.420   0.452   3.362 -0.0735 -1.8933  1.8546
 9754TIP3   OH250752   3.987   6.772  16.231  0.2087  0.3302  0.0893
 9754TIP3    H150753   4.081   6.752  16.240  0.5070  0.6108 -1.8505
 9754TIP3    H250754   3.943   6.688  16.243  0.8312 -0.0672 -0.3562
 9755TIP3   OH250755   0.737   5.441  14.650  0.2860  0.2829  0.6669
 9755TIP3    H150756   0.658   5.463  14.601  1.4194 -0.0179 -1.4725
 9755TIP3    H250757   0.714   5.363  14.699 -0.5441 -0.2514 -0.5200
 9756TIP3   OH250758   6.466   1.940  10.431  0.3633  1.0378  0.4507
 9756TIP3    H150759   6.525   1.994  10.484  1.8546  0.4729 -0.5685
 9756TIP3    H250760   6.495   1.851  10.445 -0.8412  0.6470  0.5979
 9757TIP3   OH250761   0.616   5.453  10.580  0.0230  0.1769  0.4654
 9757TIP3    H150762   0.521   5.444  10.577  0.1092 -0.6587 -1.1188
 9757TIP3    H250763   0.641   5.471  10.489  1.3359  0.9564  0.9497
 9758TIP3   OH250764   5.092   5.944  16.653  0.1105 -0.2785 -0.1216
 9758TIP3    H150765   5.103   5.865  16.705 -1.4535  0.3587  1.2752
 9758TIP3    H250766   5.165   6.000  16.677 -0.3357 -0.1838  1.0731
 9759TIP3   OH250767   6.136   2.505  16.622 -0.5737 -0.3968 -0.7872
 9759TIP3    H150768   6.182   2.496  16.705  1.1555  0.7647 -1.5557
 9759TIP3    H250769   6.052   2.461  16.636  0.4352 -1.9112  0.9351
 9760TIP3   OH250770   2.152   5.772   2.274  0.4191  0.2108 -0.7702
 9760TIP3    H150771   2.246   5.756   2.277  0.9181  2.1181 -2.9184
 9760TIP3    H250772   2.131   5.776   2.181 -1.3030  2.1597 -0.3869
 9761TIP3   OH250773   3.347   0.957   4.893 -0.9394  0.8858 -0.1407
 9761TIP3    H150774   3.258   0.992   4.890 -2.6079 -2.8537 -0.4551
 9761TIP3    H250775   3.376   0.974   4.983 -1.0554  3.8884 -0.5571
 9762TIP3   OH250776   0.331   5.242  13.874  0.4645  0.1609 -0.0018
 9762TIP3    H150777   0.257   5.196  13.912  0.4036 -0.3596 -0.7274
 9762TIP3    H250778   0.381   5.175  13.828  0.1456  0.8553 -1.4345
 9763TIP3   OH250779   4.287   6.630   4.598 -0.1048  0.3224  0.4436
 9763TIP3    H150780   4.240   6.589   4.525  0.8525  0.9716 -0.5633
 9763TIP3    H250781   4.360   6.677   4.557  0.6292  0.4691  1.8446
 9764TIP3   OH250782   5.082   6.050  10.726  0.8460  0.1102 -0.3589
 9764TIP3    H150783   5.069   5.973  10.781  0.8298 -0.4011 -1.0563
 9764TIP3    H250784   5.175   6.048  10.704  1.2010  1.2230  0.9472
 9765TIP3   OH250785   2.164   4.027   1.482  0.4416  0.3875  0.5585
 9765TIP3    H150786   2.099   3.997   1.418 -0.2981  2.0465  0.4752
 9765TIP3    H250787   2.206   3.947   1.513  1.3396 -0.4507 -2.5127
 9766TIP3   OH250788   3.265   0.091   6.476  0.2319 -0.5375  0.2156
 9766TIP3    H150789   3.255   0.078   6.382  0.5561  1.1913 -0.1007
 9766TIP3    H250790   3.352   0.056   6.496 -0.0751 -1.4487  0.0036
 9767TIP3   OH250791   2.218   0.515  14.143  0.6332  0.4589  0.3585
 9767TIP3    H150792   2.206   0.606  14.116 -0.7583  0.1703 -0.1064
 9767TIP3    H250793   2.294   0.517  14.200 -0.6390  2.3159  2.1834
 9768TIP3   OH250794   5.971   6.800  11.694 -0.1885 -0.4869  0.1728
 9768TIP3    H150795   5.928   6.719  11.665 -1.2249  0.2858 -0.4921
 9768TIP3    H250796   6.064   6.782  11.685 -0.4311 -0.9637 -1.7988
 9769TIP3   OH250797   5.857   1.546  13.670  0.0526  0.5908 -0.0315
 9769TIP3    H150798   5.830   1.599  13.746 -0.2529  1.6135 -0.8381
 9769TIP3    H250799   5.778   1.498  13.646  0.1425  0.2851  0.2813
 9770TIP3   OH250800   5.874   5.074   5.520 -0.2869  0.3525 -0.4297
 9770TIP3    H150801   5.831   4.994   5.549  2.3721 -0.1257  2.7080
 9770TIP3    H250802   5.843   5.086   5.430 -4.9983 -1.1259  0.6870
 9771TIP3   OH250803   6.188   0.855  15.468  0.5577 -0.1144  0.3907
 9771TIP3    H150804   6.186   0.782  15.406  1.7965  0.9430 -0.9733
 9771TIP3    H250805   6.179   0.934  15.414 -2.0751  0.7893  1.9221
 9772TIP3   OH250806   2.282   5.772  15.856  0.2352 -0.5293 -0.1093
 9772TIP3    H150807   2.230   5.837  15.809  0.0695  0.1034  0.9038
 9772TIP3    H250808   2.266   5.791  15.949 -0.1836 -2.3230  0.2213
 9773TIP3   OH250809   0.201   5.227  11.622  0.1356 -0.3788 -0.5179
 9773TIP3    H150810   0.257   5.155  11.652  0.6717  0.1852 -0.1264
 9773TIP3    H250811   0.158   5.259  11.701  0.8716  0.5393 -0.4668
 9774TIP3   OH250812   2.673   1.719   1.505 -0.3114  0.4785  0.1240
 9774TIP3    H150813   2.700   1.707   1.414 -1.0107 -0.4562  0.0265
 9774TIP3    H250814   2.647   1.631   1.534 -1.7385  1.0512  0.6815
 9775TIP3   OH250815   6.433   1.464  15.637 -0.4486  0.0503  0.0818
 9775TIP3    H150816   6.365   1.525  15.606 -1.7360 -0.8261  1.0474
 9775TIP3    H250817   6.394   1.423  15.714  1.6086  0.2363  1.2707
 9776TIP3   OH250818   6.120   3.711  10.815 -0.1513 -0.5476 -0.2876
 9776TIP3    H150819   6.189   3.712  10.881 -0.7154 -0.8860  0.3120
 9776TIP3    H250820   6.039   3.715  10.865 -0.5596  0.5533 -1.0113
 9777TIP3   OH250821   1.379   1.585   2.010 -0.0796  0.1993  0.2405
 9777TIP3    H150822   1.428   1.544   2.081  0.9321  0.7439 -0.1307
 9777TIP3    H250823   1.444   1.637   1.962 -0.8102  0.1335 -0.8681
 9778TIP3   OH250824   6.488   4.370   2.184 -0.4448  0.2730  0.0860
 9778TIP3    H150825   6.512   4.277   2.192 -0.0746  0.1814 -1.7385
 9778TIP3    H250826   6.570   4.415   2.169 -0.6556  0.8934  0.7188
 9779TIP3   OH250827   0.201   4.417   3.185  0.8835 -0.1997 -0.2445
 9779TIP3    H150828   0.250   4.406   3.266  1.2409  3.4846  0.2145
 9779TIP3    H250829   0.268   4.436   3.119  0.4166 -0.6296 -0.8553
 9780TIP3   OH250830   3.017   5.122   3.695 -0.2050  0.2865 -0.7646
 9780TIP3    H150831   2.992   5.156   3.781  1.3317  0.9366 -0.5426
 9780TIP3    H250832   2.991   5.192   3.634 -0.5967  0.1549 -0.7526
 9781TIP3   OH250833   5.930   6.514  14.186  0.1557  0.2849  0.2618
 9781TIP3    H150834   5.928   6.422  14.159 -3.6028 -0.3882  2.1718
 9781TIP3    H250835   5.908   6.563  14.107  0.8637 -0.5400 -0.4690
 9782TIP3   OH250836   1.746   3.805   5.229 -0.5221  0.7824 -0.3648
 9782TIP3    H150837   1.688   3.869   5.269 -1.8091 -0.7652  0.3719
 9782TIP3    H250838   1.741   3.729   5.286  1.0255  0.0480 -1.1537
 9783TIP3   OH250839   3.106   1.561   0.772 -0.0034  0.3125  0.1180
 9783TIP3    H150840   3.180   1.506   0.748  1.7987  2.3332  0.6686
 9783TIP3    H250841   3.097   1.548   0.867 -1.4354 -1.1015 -0.1726
 9784TIP3   OH250842   6.018   1.656   0.301  0.2243  0.2058 -0.2443
 9784TIP3    H150843   6.025   1.751   0.315 -1.4059  0.1594  1.2145
 9784TIP3    H250844   6.097   1.633   0.252  1.1179  2.1568  0.1883
 9785TIP3   OH250845   0.582   5.806  10.461 -0.7170 -0.5881 -0.4554
 9785TIP3    H150846   0.555   5.820  10.552  1.8970  0.3077  0.2613
 9785TIP3    H250847   0.593   5.895  10.426 -1.2758 -0.9288 -1.5281
 9786TIP3   OH250848   2.368   2.903  13.487 -0.5243 -0.4035 -0.7459
 9786TIP3    H150849   2.415   2.976  13.527 -2.0621  0.2399 -0.0591
 9786TIP3    H250850   2.437   2.850  13.446  0.7277  0.8038 -0.2688
 9787TIP3   OH250851   1.018   2.615  15.430 -0.2738 -0.0858  0.1409
 9787TIP3    H150852   1.084   2.564  15.383  0.6719  0.7949  0.4763
 9787TIP3    H250853   0.960   2.648  15.361 -1.1231 -1.8848 -0.0465
 9788TIP3   OH250854   0.950   5.972  15.942  0.4069 -0.2403  0.0457
 9788TIP3    H150855   0.884   5.903  15.951 -0.3075  0.2713 -1.0466
 9788TIP3    H250856   0.900   6.051  15.924  1.3087 -0.0268 -1.8854
 9789TIP3   OH250857   5.197   3.946   4.823  0.4270 -0.1639 -0.4850
 9789TIP3    H150858   5.239   3.883   4.881 -0.8930 -0.3761  0.2879
 9789TIP3    H250859   5.210   4.031   4.865 -0.7221 -0.3432  0.2789
 9790TIP3   OH250860   1.178   0.911  15.411  0.0238 -0.3287  0.1447
 9790TIP3    H150861   1.230   0.984  15.445  0.7287  0.6358 -2.6859
 9790TIP3    H250862   1.176   0.925  15.316 -1.4276 -2.9811 -0.3304
 9791TIP3   OH250863   6.748   1.764  14.215 -0.6790  0.4953  0.5476
 9791TIP3    H150864   6.689   1.689  14.219  0.7292 -0.7299 -0.3422
 9791TIP3    H250865   6.722   1.811  14.136 -0.8332  0.3033  0.4830
 9792TIP3   OH250866   5.916   2.025   4.243 -0.0834  0.0292 -0.7963
 9792TIP3    H150867   5.976   1.988   4.178 -0.1668 -0.4703 -0.5871
 9792TIP3    H250868   5.872   1.950   4.281 -0.2207  0.3391 -0.3350
 9793TIP3   OH250869   0.313   2.313   3.999 -0.2333 -0.0694  0.5950
 9793TIP3    H150870   0.261   2.290   3.921 -0.6182  0.3864  0.7102
 9793TIP3    H250871   0.361   2.392   3.973 -0.7222  0.3567  0.9704
 9794TIP3   OH250872   3.435   2.799   0.080  0.2041 -0.3855 -0.0819
 9794TIP3    H150873   3.502   2.850   0.034 -0.1391 -0.4866 -0.7071
 9794TIP3    H250874   3.443   2.711   0.043 -0.4407 -0.3361 -0.3442
 9795TIP3   OH250875   6.489   1.639  16.539  1.0600  0.0730  0.8413
 9795TIP3    H150876   6.458   1.673  16.623  1.2307  2.8397 -0.1134
 9795TIP3    H250877   6.584   1.647  16.543  1.0714  0.1849  0.4219
 9796TIP3   OH250878   1.348   4.757   0.012  0.5729  0.7978 -0.2012
 9796TIP3    H150879   1.421   4.699   0.032 -0.5572 -0.4323  0.5210
 9796TIP3    H250880   1.380   4.845   0.032  1.4023  0.1547  1.4014
 9797TIP3   OH250881   3.437   3.381   4.693 -0.2256  0.3529 -0.1829
 9797TIP3    H150882   3.474   3.344   4.613  2.0365 -0.5074  1.1599
 9797TIP3    H250883   3.497   3.353   4.763 -0.3248  3.5661  1.4224
 9798TIP3   OH250884   5.675   4.617   4.180 -0.3334  0.3705  0.1413
 9798TIP3    H150885   5.721   4.546   4.135  1.2686  2.0448 -1.0160
 9798TIP3    H250886   5.717   4.622   4.265 -0.3142  0.0870  0.1515
 9799TIP3   OH250887   0.110   2.690  14.662  0.4441 -0.1306  0.0718
 9799TIP3    H150888   0.117   2.627  14.590  1.2059 -0.7054  0.6445
 9799TIP3    H250889   0.111   2.637  14.741  0.1951  0.5426  0.5339
 9800TIP3   OH250890   5.449   0.060   0.046  0.3056  0.2200 -0.0180
 9800TIP3    H150891   5.430   0.149   0.075 -0.6308 -0.2325  0.8548
 9800TIP3    H250892   5.469   0.013   0.127  0.4283 -0.4410 -0.4266
 9801TIP3   OH250893   3.821   4.941   0.471  0.6264 -0.4518  0.1448
 9801TIP3    H150894   3.764   5.015   0.488  0.4972 -0.6686  0.6838
 9801TIP3    H250895   3.764   4.864   0.478  0.9226 -0.6514  0.3959
 9802TIP3   OH250896   3.982   1.555  11.995  0.3491 -0.0381  0.7179
 9802TIP3    H150897   4.064   1.508  11.977 -1.0706 -1.5383 -2.6450
 9802TIP3    H250898   3.986   1.632  11.939 -1.0238 -0.7949 -0.4739
 9803TIP3   OH250899   4.992   3.281   0.918 -0.0163  0.4989  0.2470
 9803TIP3    H150900   4.905   3.295   0.955 -0.2701  2.9181 -1.0882
 9803TIP3    H250901   4.976   3.236   0.835 -0.0786  1.3735 -0.2310
 9804TIP3   OH250902   5.750   0.940   5.931 -0.2543 -0.3049 -0.1722
 9804TIP3    H150903   5.683   0.913   5.994 -1.2472 -0.5838 -1.3102
 9804TIP3    H250904   5.831   0.900   5.963 -0.6415 -0.0875  1.1470
 9805TIP3   OH250905   4.012   6.549   1.349  0.1863 -0.0684 -0.0836
 9805TIP3    H150906   3.994   6.640   1.327  1.0860 -0.1356 -1.2323
 9805TIP3    H250907   3.931   6.516   1.387  0.4079  1.7123  2.1356
 9806TIP3   OH250908   6.294   1.905  12.963 -0.0469 -0.1265  0.5309
 9806TIP3    H150909   6.305   1.814  12.989  1.7597  0.2670  1.2937
 9806TIP3    H250910   6.275   1.951  13.045  3.1026  0.7347  0.8990
 9807TIP3   OH250911   6.055   4.574   4.476 -0.2715 -0.2098 -0.7790
 9807TIP3    H150912   6.054   4.479   4.481 -1.2651 -0.1376  2.0363
 9807TIP3    H250913   6.144   4.599   4.504 -0.8998 -0.3130  1.5311
 9808TIP3   OH250914   4.762   4.359   3.546 -0.3248  0.6461  0.1980
 9808TIP3    H150915   4.685   4.392   3.498  0.5456 -0.8042 -2.3671
 9808TIP3    H250916   4.829   4.426   3.532  0.0951 -0.0260 -1.1936
 9809TIP3   OH250917   5.391   6.040  12.573 -0.1378 -0.0538  0.3663
 9809TIP3    H150918   5.422   5.960  12.532 -0.1948 -0.5288  1.2336
 9809TIP3    H250919   5.444   6.049  12.652 -0.2111  0.7067  0.3396
 9810TIP3   OH250920   2.144   5.151  10.106  0.4478  0.1754 -0.5151
 9810TIP3    H150921   2.173   5.211  10.037 -0.8682 -0.1362 -1.3959
 9810TIP3    H250922   2.061   5.188  10.136  1.0247  0.3233  0.9466
 9811TIP3   OH250923   2.855   4.177   6.076  0.0678 -0.8746 -0.0561
 9811TIP3    H150924   2.781   4.223   6.037  0.3701  1.3440  1.7329
 9811TIP3    H250925   2.908   4.247   6.114  2.1670 -2.5438  0.2343
 9812TIP3   OH250926   3.116   3.635   2.979 -0.1638  0.5826 -0.5525
 9812TIP3    H150927   3.203   3.613   2.946  0.3341  0.6453  0.6616
 9812TIP3    H250928   3.108   3.730   2.964 -0.3271  0.4515 -1.3268
 9813TIP3   OH250929   0.541   5.594  15.123  0.3008  0.2898  0.2793
 9813TIP3    H150930   0.522   5.575  15.031  0.8119  0.1731  0.1955
 9813TIP3    H250931   0.584   5.514  15.155  1.7259  0.9704  0.1475
 9814TIP3   OH250932   3.418   2.246  12.744  0.0148 -0.8317 -0.1425
 9814TIP3    H150933   3.385   2.187  12.677 -0.9294  0.0079 -0.4396
 9814TIP3    H250934   3.345   2.257  12.804  0.5034 -0.7215  0.4470
 9815TIP3   OH250935   2.427   2.629  16.613 -0.2264  0.0488 -0.2162
 9815TIP3    H150936   2.504   2.659  16.661 -0.6642  1.2150 -0.2148
 9815TIP3    H250937   2.353   2.649  16.672 -0.4725 -2.3140  0.4031
 9816TIP3   OH250938   6.417   1.217  15.154 -0.2563  0.3619  0.3781
 9816TIP3    H150939   6.407   1.125  15.176  0.9772 -0.1499 -1.0182
 9816TIP3    H250940   6.377   1.226  15.068  1.8260  0.5170 -0.6469
 9817TIP3   OH250941   1.407   3.278  17.081 -0.1537 -0.4701  0.0338
 9817TIP3    H150942   1.497   3.287  17.111 -0.0919 -0.8019 -0.0519
 9817TIP3    H250943   1.382   3.366  17.054  0.1027 -0.3521  0.1768
 9818TIP3   OH250944   2.326   5.783  11.169 -0.0558 -0.4475 -0.3096
 9818TIP3    H150945   2.376   5.788  11.251  1.3770  1.7753 -1.2203
 9818TIP3    H250946   2.377   5.723  11.114 -0.9132 -1.7833  0.2882
 9819TIP3   OH250947   2.948   3.377  11.051  0.7212  0.3096 -0.4368
 9819TIP3    H150948   3.004   3.326  10.993  1.5436 -0.8150  1.2954
 9819TIP3    H250949   3.000   3.454  11.074  0.7433  0.2955 -0.4402
 9820TIP3   OH250950   5.271   5.628  11.983 -0.0693  0.1437 -0.1071
 9820TIP3    H150951   5.354   5.644  12.029  0.1488  1.4245 -0.8881
 9820TIP3    H250952   5.273   5.535  11.963  2.7186  0.5992 -2.8395
 9821TIP3   OH250953   3.104   1.678  16.291  0.3872 -0.1261  0.2497
 9821TIP3    H150954   3.116   1.767  16.323  0.3054 -0.5138  1.4170
 9821TIP3    H250955   3.193   1.644  16.282  0.4975  0.5861 -1.8022
 9822TIP3   OH250956   4.989   6.043  13.363 -0.7221  0.2885  0.0980
 9822TIP3    H150957   4.895   6.040  13.347 -0.8317  0.6621  0.6393
 9822TIP3    H250958   5.027   5.991  13.292 -1.3417  0.0251 -0.0508
 9823TIP3   OH250959   6.108   2.459   0.700 -0.2295  0.1423 -0.5857
 9823TIP3    H150960   6.192   2.491   0.666 -0.7480  1.6462 -0.4883
 9823TIP3    H250961   6.099   2.372   0.661  0.7253  0.5180 -1.7137
 9824TIP3   OH250962   4.675   5.609   0.768 -0.4172 -0.2140  0.4366
 9824TIP3    H150963   4.614   5.618   0.694 -0.5342  0.8012  0.6346
 9824TIP3    H250964   4.633   5.546   0.827  0.1965 -1.8979 -0.8537
 9825TIP3   OH250965   1.778   4.346  14.608 -0.1076  0.4571 -0.2621
 9825TIP3    H150966   1.745   4.432  14.631  0.8541  0.8247 -0.1959
 9825TIP3    H250967   1.706   4.286  14.629 -0.1677  1.0391  1.3691
 9826TIP3   OH250968   2.905   0.198   2.038 -1.0480  0.1080 -0.0961
 9826TIP3    H150969   2.873   0.197   1.948  2.9087 -0.7307 -1.7269
 9826TIP3    H250970   2.910   0.291   2.060  1.6747  0.6872 -2.4780
 9827TIP3   OH250971   3.155   4.877  13.808 -0.0482 -0.4687  0.0345
 9827TIP3    H150972   3.151   4.898  13.901  0.6837  0.6635 -0.1620
 9827TIP3    H250973   3.068   4.899  13.775 -0.9991 -2.8501  0.7926
 9828TIP3   OH250974   5.709   5.536  13.176 -0.2406  0.1448  0.8424
 9828TIP3    H150975   5.744   5.590  13.105 -1.7752  0.2380  0.1230
 9828TIP3    H250976   5.769   5.461  13.181 -1.6555 -1.4320 -2.6071
 9829TIP3   OH250977   4.915   2.781   5.483 -0.0756  0.3767 -0.0537
 9829TIP3    H150978   4.837   2.833   5.466 -0.0369  0.8501  1.0908
 9829TIP3    H250979   4.895   2.695   5.447 -1.3332  0.3596  0.6293
 9830TIP3   OH250980   6.628   3.365   6.188  0.1204  0.4983 -0.9123
 9830TIP3    H150981   6.670   3.450   6.172  0.1414  0.5564 -0.5496
 9830TIP3    H250982   6.626   3.357   6.283  0.9466 -0.3134 -0.9444
 9831TIP3   OH250983   2.417   3.299  14.097 -0.1231 -0.0610  0.2727
 9831TIP3    H150984   2.327   3.285  14.126  0.2367  1.5824  2.4936
 9831TIP3    H250985   2.470   3.274  14.172  1.0351  2.2486  0.2961
 9832TIP3   OH250986   6.101   5.152   4.086  0.5322  0.0692 -0.2080
 9832TIP3    H150987   6.139   5.070   4.054 -1.4885 -1.0792  0.1511
 9832TIP3    H250988   6.024   5.166   4.031  0.2310  1.1366  0.4553
 9833TIP3   OH250989   0.687   6.113   3.671  0.2570 -0.3112  0.0734
 9833TIP3    H150990   0.622   6.090   3.738  0.3241 -0.1516  0.1931
 9833TIP3    H250991   0.648   6.083   3.589 -0.2927  0.4280  0.0504
 9834TIP3   OH250992   3.121   6.601  12.480 -0.2615  0.4450 -0.0237
 9834TIP3    H150993   3.112   6.615  12.574  0.7957 -0.7232  0.2768
 9834TIP3    H250994   3.166   6.517  12.472 -1.9353 -0.3766 -1.6175
 9835TIP3   OH250995   2.300   2.689   0.361  0.1245 -0.0280  0.1426
 9835TIP3    H150996   2.318   2.672   0.454  1.2873 -3.4623 -0.5582
 9835TIP3    H250997   2.247   2.614   0.334  0.4373  0.5184 -2.1296
 9836TIP3   OH250998   2.291   5.983   3.944  0.0745 -0.1903 -0.0475
 9836TIP3    H150999   2.290   5.901   3.895 -0.7461 -0.0411 -0.2946
 9836TIP3    H251000   2.380   6.017   3.930  0.6768 -1.3888  0.6955
 9837TIP3   OH251001   4.757   2.316  10.626  0.4656  0.4334  0.0728
 9837TIP3    H151002   4.815   2.367  10.683 -0.0163  0.1668  0.8204
 9837TIP3    H251003   4.768   2.356  10.539  0.1464  1.7761  0.6168
 9838TIP3   OH251004   3.441   0.646   0.684 -0.5305 -0.3844 -0.2504
 9838TIP3    H151005   3.385   0.723   0.672 -0.0813 -0.1158 -0.6388
 9838TIP3    H251006   3.389   0.588   0.740 -0.6400  0.4408  0.5203
 9839TIP3   OH251007   3.705   6.372  11.508  0.9268  0.0465 -0.1931
 9839TIP3    H151008   3.683   6.336  11.422  2.0997 -1.2912  0.0130
 9839TIP3    H251009   3.764   6.306  11.546  2.2952  1.7136  0.6814
 9840TIP3   OH251010   5.151   4.925  13.423  0.3331 -0.6710 -0.3142
 9840TIP3    H151011   5.238   4.929  13.386  0.6781 -1.1898  0.4169
 9840TIP3    H251012   5.100   4.988  13.372  1.4409  0.5845  0.0521
 9841TIP3   OH251013   0.094   0.388  14.370 -0.0017  0.2263 -0.6897
 9841TIP3    H151014   0.075   0.479  14.350 -1.0571 -0.1617 -1.5895
 9841TIP3    H251015   0.109   0.386  14.464  1.9838  1.6266 -0.9331
 9842TIP3   OH251016   1.373   4.731   5.889 -0.3792  0.8000  0.2292
 9842TIP3    H151017   1.418   4.649   5.868 -2.4852 -0.4649  0.3596
 9842TIP3    H251018   1.342   4.763   5.804  1.8960  2.4838 -0.0798
 9843TIP3   OH251019   5.311   0.664   5.328 -0.2767  0.1834  0.0094
 9843TIP3    H151020   5.251   0.627   5.263 -2.6429  2.1937  0.8869
 9843TIP3    H251021   5.255   0.684   5.403  0.9013  4.2551  0.0696
 9844TIP3   OH251022   6.080   2.030  11.193 -0.2460 -0.1579  0.1804
 9844TIP3    H151023   6.099   2.085  11.117  0.1148 -1.5900 -0.7970
 9844TIP3    H251024   5.986   2.014  11.188 -0.1801 -0.4493 -0.0962
 9845TIP3   OH251025   3.939   6.115   4.427  0.0608 -0.2069  0.3130
 9845TIP3    H151026   3.909   6.027   4.446 -0.7224  0.1227  0.6405
 9845TIP3    H251027   3.945   6.120   4.332  1.0032 -0.8927  0.3200
 9846TIP3   OH251028   3.015   4.182   2.953 -0.1450 -0.7628  0.0849
 9846TIP3    H151029   2.977   4.267   2.930  0.9094  0.1388  1.4495
 9846TIP3    H251030   2.943   4.120   2.948 -1.0094  0.2688 -0.6438
 9847TIP3   OH251031   5.075   5.158  11.455  0.1899 -0.0467  0.2703
 9847TIP3    H151032   5.051   5.091  11.518 -2.8087  0.5364 -0.0831
 9847TIP3    H251033   5.002   5.160  11.393  0.1654  3.4688  0.2313
 9848TIP3   OH251034   1.510   1.270   0.063 -0.3116  0.1519 -0.7189
 9848TIP3    H151035   1.486   1.179   0.047  0.1332 -0.1785  0.4538
 9848TIP3    H251036   1.472   1.290   0.148  2.5442 -0.0327  0.6906
 9849TIP3   OH251037   2.093   4.449   0.541  0.5452 -0.0774 -0.0140
 9849TIP3    H151038   2.131   4.388   0.478  0.8450  0.5370 -0.4419
 9849TIP3    H251039   2.004   4.417   0.555 -0.0893  0.6603 -1.9967
 9850TIP3   OH251040   0.909   0.034  16.028  0.1659 -0.3433 -0.0563
 9850TIP3    H151041   0.874   0.026  16.117 -0.0610 -0.2892 -0.1419
 9850TIP3    H251042   0.866   0.112  15.992  1.6187  0.7311  0.4272
 9851TIP3   OH251043   3.901   6.532   2.403  0.0611 -0.5196 -0.0506
 9851TIP3    H151044   3.938   6.609   2.447 -1.3953  0.9950 -1.3695
 9851TIP3    H251045   3.884   6.561   2.314 -2.3707 -1.7300 -0.0594
 9852TIP3   OH251046   3.104   5.969   5.907 -0.1361 -0.0625 -0.6696
 9852TIP3    H151047   3.141   5.992   5.822  0.1557 -1.1719 -0.8570
 9852TIP3    H251048   3.085   6.053   5.948 -1.4123  0.5052 -2.3050
 9853TIP3   OH251049   6.722   4.490   2.110 -0.2620  0.9841 -0.1745
 9853TIP3    H151050   6.774   4.413   2.085  0.1264  1.4991 -1.0003
 9853TIP3    H251051   6.687   4.523   2.027  1.1964  2.8517 -0.1119
 9854TIP3   OH251052   6.701   0.207   4.669 -0.6309 -0.0142 -0.1025
 9854TIP3    H151053   6.644   0.276   4.704  0.9434  0.9019  0.7450
 9854TIP3    H251054   6.774   0.255   4.630 -0.2240 -1.1899 -0.8250
 9855TIP3   OH251055   1.046   5.623   0.986  0.2446 -0.9682  0.2652
 9855TIP3    H151056   1.002   5.699   0.950  0.8176 -0.6097  0.3008
 9855TIP3    H251057   0.978   5.556   0.992 -1.0196  0.3932  2.9556
 9856TIP3   OH251058   4.841   6.595  15.536 -0.7081  0.2185 -0.2125
 9856TIP3    H151059   4.846   6.536  15.461 -0.0273  1.9489 -1.5994
 9856TIP3    H251060   4.932   6.611  15.561 -0.9416 -0.7836  1.3878
 9857TIP3   OH251061   5.080   4.308  15.655  0.1180 -0.2230 -0.5909
 9857TIP3    H151062   5.056   4.372  15.722  0.5451 -0.9276  0.2430
 9857TIP3    H251063   4.996   4.281  15.617 -0.1034  0.4136 -0.5687
 9858TIP3   OH251064   1.658   4.871   0.518  0.2927  0.3318 -0.3707
 9858TIP3    H151065   1.670   4.924   0.597  1.2938 -3.2007  2.0820
 9858TIP3    H251066   1.564   4.855   0.514  0.4839 -3.3549  3.2291
 9859TIP3   OH251067   1.839   6.753   4.503 -0.4403  0.3455 -0.1157
 9859TIP3    H151068   1.876   6.670   4.472  1.2465  1.2926 -0.8155
 9859TIP3    H251069   1.904   6.818   4.477 -1.3173  1.7881  1.1815
 9860TIP3   OH251070   2.774   4.797  16.783 -0.1121  0.8119  0.0916
 9860TIP3    H151071   2.854   4.817  16.832  0.2039  1.7864 -0.7706
 9860TIP3    H251072   2.804   4.746  16.708 -0.4638  0.1633  0.3843
 9861TIP3   OH251073   1.909   6.514  15.396 -0.1895 -0.0859  0.0977
 9861TIP3    H151074   1.952   6.433  15.368  0.2514 -0.5187  1.8933
 9861TIP3    H251075   1.979   6.565  15.439 -0.7833  0.5886  0.2853
 9862TIP3   OH251076   6.666   0.929   0.081 -0.0593 -0.0692  0.1750
 9862TIP3    H151077   6.737   0.884   0.127 -0.6197 -1.3481 -0.1786
 9862TIP3    H251078   6.676   1.021   0.105  0.6495 -0.4860  1.5419
 9863TIP3   OH251079   4.416   2.311   4.683  0.2291 -0.2365  0.3294
 9863TIP3    H151080   4.478   2.360   4.629 -0.3325 -0.4271 -0.4942
 9863TIP3    H251081   4.386   2.240   4.627 -0.0234 -0.7041  1.0466
 9864TIP3   OH251082   1.221   4.089   3.388 -0.0099  0.0418  0.0691
 9864TIP3    H151083   1.170   4.161   3.425 -0.7976 -0.8634  0.8178
 9864TIP3    H251084   1.270   4.128   3.317  0.3904  1.5426  1.1198
 9865TIP3   OH251085   0.634   4.633   3.357 -0.3478  0.5297  0.1159
 9865TIP3    H151086   0.695   4.572   3.398 -0.7850 -0.1154 -0.1831
 9865TIP3    H251087   0.688   4.706   3.329  0.0762  0.6313  1.1388
 9866TIP3   OH251088   0.654   2.576   6.871 -0.1890  0.4174 -0.4639
 9866TIP3    H151089   0.575   2.608   6.827 -0.3641  2.2628  1.0629
 9866TIP3    H251090   0.715   2.650   6.867  0.9061 -0.4510 -0.2813
 9867TIP3   OH251091   1.292   4.178  14.705 -0.4057 -0.2287 -0.0641
 9867TIP3    H151092   1.251   4.264  14.716  1.7016  0.5550  3.0019
 9867TIP3    H251093   1.226   4.115  14.734 -1.3908  0.4883 -0.7210
 9868TIP3   OH251094   6.106   1.244  11.501 -0.4263  0.2558 -0.0787
 9868TIP3    H151095   6.048   1.242  11.577 -0.8349  0.1089 -0.3907
 9868TIP3    H251096   6.048   1.261  11.427 -0.4322 -2.1874 -0.7197
 9869TIP3   OH251097   5.249   0.019   3.779 -0.2319  0.3453  0.1737
 9869TIP3    H151098   5.198  -0.055   3.811 -0.7896  0.2194 -0.9483
 9869TIP3    H251099   5.307   0.042   3.851  0.8680 -2.0092  0.1058
 9870TIP3   OH251100   1.569   6.117  11.374 -0.5314  0.1561 -0.2204
 9870TIP3    H151101   1.602   6.192  11.424  0.3612 -0.1388 -0.3547
 9870TIP3    H251102   1.601   6.131  11.285 -1.2369  0.1375 -0.4864
 9871TIP3   OH251103   4.489   3.106   6.140 -0.1127 -0.5274  0.6912
 9871TIP3    H151104   4.540   3.136   6.214  0.3738 -0.7609  0.4557
 9871TIP3    H251105   4.502   3.173   6.073  0.4418 -0.9274  0.3944
 9872TIP3   OH251106   1.745   3.667   2.044 -0.0964 -0.3126 -0.0792
 9872TIP3    H151107   1.805   3.601   2.011  0.1165 -0.5963  0.8510
 9872TIP3    H251108   1.684   3.684   1.971  0.9657 -0.1738 -0.9531
 9873TIP3   OH251109   5.332   5.338   6.027 -0.2330 -0.2965 -0.0984
 9873TIP3    H151110   5.252   5.373   5.986  0.9766  0.3139 -2.0781
 9873TIP3    H251111   5.394   5.411   6.024  0.7864 -1.1226  0.3197
 9874TIP3   OH251112   6.419   1.804  17.073 -0.8903 -0.0133 -0.8253
 9874TIP3    H151113   6.348   1.864  17.098  0.8653  2.2507 -0.9191
 9874TIP3    H251114   6.399   1.781  16.982  0.1696  3.4675 -2.1209
 9875TIP3   OH251115   5.463   6.552   4.695 -0.0184  0.3345 -0.4031
 9875TIP3    H151116   5.550   6.560   4.734  0.5972 -1.3807 -1.3320
 9875TIP3    H251117   5.429   6.470   4.728 -1.2077  0.8712 -0.2472
 9876TIP3   OH251118   6.643   4.349  13.676 -0.3698 -0.7785 -0.4228
 9876TIP3    H151119   6.560   4.301  13.668 -0.0356 -1.2608 -1.1729
 9876TIP3    H251120   6.625   4.434  13.635 -1.0480 -0.1289  1.1676
 9877TIP3   OH251121   6.498   0.101   4.155 -0.2795  0.1108  0.1211
 9877TIP3    H151122   6.407   0.128   4.144  0.1192  1.3967 -0.1071
 9877TIP3    H251123   6.513   0.105   4.249 -0.7661 -1.2178  0.2854
 9878TIP3   OH251124   0.046   1.330   2.150  0.0699  0.2283  0.8585
 9878TIP3    H151125   0.124   1.299   2.197  0.3060  1.3674  1.2572
 9878TIP3    H251126   0.081   1.368   2.069 -0.0819  0.6552  0.9926
 9879TIP3   OH251127   1.006   1.095  12.370  0.8620 -0.7234  0.1375
 9879TIP3    H151128   0.925   1.043  12.372  0.3347 -0.0006 -1.2577
 9879TIP3    H251129   1.066   1.047  12.428 -0.7999 -0.8517  1.8562
 9880TIP3   OH251130   5.016   4.915  16.999 -0.0726 -0.0313  0.1242
 9880TIP3    H151131   4.935   4.899  17.047  0.3998  1.4983  1.5604
 9880TIP3    H251132   5.018   4.849  16.931 -1.8272 -0.9883  0.9458
 9881TIP3   OH251133   0.767   3.860   6.059  0.2127 -0.9402 -0.0814
 9881TIP3    H151134   0.769   3.941   6.111 -2.9557  0.3908 -1.7276
 9881TIP3    H251135   0.707   3.803   6.106 -0.1663 -0.9889 -0.6134
 9882TIP3   OH251136   4.396   2.380   0.591  0.7963  0.7096 -0.8289
 9882TIP3    H151137   4.405   2.361   0.684  3.0702  0.0628 -1.1265
 9882TIP3    H251138   4.343   2.308   0.556  1.0517  0.2419 -0.2578
 9883TIP3   OH251139   2.631   6.546  14.593 -0.2006 -0.1177  0.0648
 9883TIP3    H151140   2.565   6.531  14.526  0.3836 -1.2124 -0.2893
 9883TIP3    H251141   2.712   6.511  14.555  0.1307 -0.8024  1.3572
 9884TIP3   OH251142   3.874   4.261   4.054 -1.0411 -0.1111 -0.1516
 9884TIP3    H151143   3.902   4.277   4.144  1.9667 -0.1977 -0.9958
 9884TIP3    H251144   3.828   4.341   4.029 -0.6532  0.4896  0.9755
 9885TIP3   OH251145   3.794   2.867  13.882 -0.4825 -0.0601 -0.0606
 9885TIP3    H151146   3.787   2.912  13.966 -1.9088 -0.1629 -0.0993
 9885TIP3    H251147   3.767   2.934  13.817  0.4217 -0.0359 -0.4221
 9886TIP3   OH251148   2.378   1.675   1.339  0.5091 -0.2361 -0.2121
 9886TIP3    H151149   2.411   1.616   1.271  1.8239 -0.6946  0.7714
 9886TIP3    H251150   2.376   1.621   1.418 -1.8191  0.0446 -0.0278
 9887TIP3   OH251151   4.553   2.849   0.456  0.2804  0.1507 -0.3325
 9887TIP3    H151152   4.596   2.798   0.525  0.3557  1.5444  0.6865
 9887TIP3    H251153   4.584   2.809   0.375 -2.2269 -3.5582  0.3238
 9888TIP3   OH251154   3.597   5.550  14.546  0.1858  0.3876  0.3085
 9888TIP3    H151155   3.567   5.635  14.580 -0.2534  0.3505  0.0139
 9888TIP3    H251156   3.517   5.502  14.526  0.4145 -0.4665  1.3429
 9889TIP3   OH251157   4.347   2.232  13.586  0.0652 -0.0843 -0.7784
 9889TIP3    H151158   4.417   2.247  13.650  0.0988  0.2102 -0.8813
 9889TIP3    H251159   4.393   2.208  13.505 -0.0278 -2.2035 -0.2500
 9890TIP3   OH251160   3.290   2.866  11.342 -0.3055 -0.0679 -0.0204
 9890TIP3    H151161   3.334   2.949  11.355  1.2569 -0.9710  0.7452
 9890TIP3    H251162   3.335   2.826  11.268 -0.3200 -0.6882  0.2993
 9891TIP3   OH251163   5.370   1.086  11.844  0.0298  0.5346 -0.8904
 9891TIP3    H151164   5.336   1.051  11.761 -0.3131  0.8286 -0.8775
 9891TIP3    H251165   5.455   1.043  11.855 -0.2189 -0.0098 -1.0592
 9892TIP3   OH251166   5.113   3.206  16.450  0.2430 -0.1481  0.6550
 9892TIP3    H151167   5.144   3.121  16.421  0.2201  0.1332 -0.2229
 9892TIP3    H251168   5.098   3.196  16.544  1.8921 -0.6165  0.8952
 9893TIP3   OH251169   0.228   6.027  15.419 -1.1406  0.1497 -0.0955
 9893TIP3    H151170   0.322   6.034  15.400 -1.1867  0.3687 -0.2453
 9893TIP3    H251171   0.191   6.109  15.386 -1.4808 -0.2032 -0.5965
 9894TIP3   OH251172   2.598   0.536   2.422  0.2595  0.3817  0.0382
 9894TIP3    H151173   2.663   0.603   2.400  0.6836 -0.0925 -0.1817
 9894TIP3    H251174   2.525   0.584   2.461  0.0711  1.1039 -1.1662
 9895TIP3   OH251175   3.412   1.622  12.583 -0.5425 -0.2352 -0.2399
 9895TIP3    H151176   3.415   1.607  12.488  2.3698  0.5839 -0.3719
 9895TIP3    H251177   3.461   1.549  12.621 -1.0107 -0.1301  0.5949
 9896TIP3   OH251178   2.185   6.015   5.868  0.1949 -0.0779  0.3710
 9896TIP3    H151179   2.168   6.082   5.934 -0.9961 -0.3722  0.3984
 9896TIP3    H251180   2.144   5.936   5.904  1.6710 -0.8668  0.3926
 9897TIP3   OH251181   4.071   1.788  13.272 -0.3637  0.2252  0.1584
 9897TIP3    H151182   4.115   1.752  13.350 -0.2554  1.2287  0.5742
 9897TIP3    H251183   4.112   1.742  13.198  0.2349 -0.0269  0.6345
 9898TIP3   OH251184   5.522   3.592   2.282  0.5510 -0.4378  0.1825
 9898TIP3    H151185   5.558   3.519   2.332  0.5455  0.6716  1.8703
 9898TIP3    H251186   5.438   3.558   2.249  0.3971 -1.1086  1.1993
 9899TIP3   OH251187   4.773   3.902  12.289  0.2600  0.3213 -0.3198
 9899TIP3    H151188   4.820   3.985  12.287  0.1777  0.3465 -1.9281
 9899TIP3    H251189   4.762   3.883  12.383  1.6724  1.3159  0.0701
 9900TIP3   OH251190   5.722   3.305  14.428  0.2341  0.4020 -0.1177
 9900TIP3    H151191   5.786   3.257  14.481 -0.1725 -1.4314 -1.2110
 9900TIP3    H251192   5.771   3.336  14.352  0.7442  2.7606  1.0789
 9901TIP3   OH251193   3.394   2.501  16.139 -0.3610 -0.0854  0.3054
 9901TIP3    H151194   3.456   2.432  16.114 -0.7790 -0.2238 -0.3759
 9901TIP3    H251195   3.444   2.558  16.198 -0.5970 -2.0572  2.5504
 9902TIP3   OH251196   2.026   0.194   0.354 -0.4829  0.7042 -0.4659
 9902TIP3    H151197   1.957   0.220   0.293  0.1543  1.1748 -1.0050
 9902TIP3    H251198   2.092   0.152   0.299  0.6674  2.2395 -0.3020
 9903TIP3   OH251199   0.193   5.434  11.438  0.2033 -0.4693 -0.0091
 9903TIP3    H151200   0.235   5.510  11.478 -1.3930  0.2979  0.2921
 9903TIP3    H251201   0.194   5.367  11.506  2.7851 -1.2282 -0.6947
 9904TIP3   OH251202   0.775   1.393  15.641  0.0664  0.2400 -0.7794
 9904TIP3    H151203   0.861   1.373  15.604 -0.2154 -5.4836  0.7623
 9904TIP3    H251204   0.790   1.468  15.699  3.7557  0.0571 -1.2975
 9905TIP3   OH251205   0.458   6.624   3.822 -0.8052 -0.1603 -0.1220
 9905TIP3    H151206   0.413   6.658   3.899  0.9578 -0.2978  1.0435
 9905TIP3    H251207   0.409   6.658   3.748 -1.7584  1.1123  1.0452
 9906TIP3   OH251208   6.391   2.691   2.995  0.1323 -0.2913 -0.2703
 9906TIP3    H151209   6.481   2.706   3.026 -0.0347  0.7031 -0.2272
 9906TIP3    H251210   6.401   2.658   2.906  0.5301  1.0495 -0.7450
 9907TIP3   OH251211   5.726   6.209  11.969  0.1680  0.4272  0.5144
 9907TIP3    H151212   5.650   6.238  11.919 -0.2224 -0.3385  0.6514
 9907TIP3    H251213   5.787   6.177  11.902  0.1868  0.6179  0.4386
 9908TIP3   OH251214   1.059   0.904   4.960 -0.0459  0.2974  0.2218
 9908TIP3    H151215   1.018   0.819   4.976  2.5734 -1.1514 -0.0731
 9908TIP3    H251216   1.004   0.966   5.006 -1.6258 -1.6736  1.1630
 9909TIP3   OH251217   2.273   3.890   3.824 -0.0695  0.1132  0.1844
 9909TIP3    H151218   2.259   3.965   3.765 -2.2004 -0.5728 -0.3008
 9909TIP3    H251219   2.283   3.815   3.765 -0.4640 -0.3298  0.6683
 9910TIP3   OH251220   5.004   5.368   4.527  0.1433  0.0408 -0.1776
 9910TIP3    H151221   4.933   5.389   4.587  0.1684  0.6867 -0.3712
 9910TIP3    H251222   4.964   5.310   4.462  0.3273 -1.4122  0.9514
 9911TIP3   OH251223   1.323   3.399  14.553  0.2150  0.0940 -0.2227
 9911TIP3    H151224   1.254   3.454  14.516  0.4544 -0.0603 -0.9141
 9911TIP3    H251225   1.377   3.458  14.605 -0.4148  0.2233  0.2896
 9912TIP3   OH251226   3.084   4.928   1.051 -0.3575 -0.6717 -0.3914
 9912TIP3    H151227   3.015   4.878   1.007 -0.8050  0.2772 -0.7943
 9912TIP3    H251228   3.041   4.967   1.127 -0.9793  2.0048 -2.0110
 9913TIP3   OH251229   4.521   3.033   5.807  0.4122  0.0817  0.5867
 9913TIP3    H151230   4.457   2.990   5.864  0.3907 -0.7935 -0.0760
 9913TIP3    H251231   4.509   2.991   5.722  0.1035  1.7041 -0.2105
 9914TIP3   OH251232   4.086   4.053   0.768 -0.4284  0.1735 -0.1482
 9914TIP3    H151233   4.107   4.014   0.683 -1.5516  2.5619 -1.6334
 9914TIP3    H251234   4.146   4.127   0.775 -0.9489  0.5294  0.7285
 9915TIP3   OH251235   2.500   3.734   0.151  0.1496 -0.7119 -0.3084
 9915TIP3    H151236   2.554   3.658   0.174 -0.3704 -0.6498  1.2685
 9915TIP3    H251237   2.411   3.709   0.175 -0.4124 -0.4777 -2.0396
 9916TIP3   OH251238   2.905   0.992   3.237  0.1053  0.7753  0.2730
 9916TIP3    H151239   2.943   0.908   3.210 -1.3731  0.7958 -2.1756
 9916TIP3    H251240   2.815   0.990   3.204 -0.3233  2.8719  1.1471
 9917TIP3   OH251241   2.790   0.680  13.426 -0.1520  0.2443 -0.0116
 9917TIP3    H151242   2.801   0.763  13.380 -1.5547  0.4840  0.0338
 9917TIP3    H251243   2.703   0.686  13.465 -0.1282 -1.1129  0.2864
 9918TIP3   OH251244   3.564   1.177  11.291 -0.3752 -0.6954  0.0288
 9918TIP3    H151245   3.521   1.262  11.285  0.4043 -0.2868  0.0181
 9918TIP3    H251246   3.554   1.139  11.204  0.1615 -0.1616 -0.2777
 9919TIP3   OH251247   3.542   5.514  12.353 -0.0616 -0.1698  0.7020
 9919TIP3    H151248   3.600   5.464  12.296 -0.4864 -0.5273  0.5817
 9919TIP3    H251249   3.487   5.449  12.395  1.0305 -0.0267  2.4466
 9920TIP3   OH251250   3.147   0.717  15.301  0.0713 -0.2118 -0.2882
 9920TIP3    H151251   3.242   0.721  15.311 -0.0832  2.4410  1.0851
 9920TIP3    H251252   3.116   0.678  15.384 -0.1264  1.3942  0.4239
 9921TIP3   OH251253   2.812   4.245   3.345 -0.7639 -0.1767  0.0251
 9921TIP3    H151254   2.842   4.169   3.296  0.1233  0.7425 -0.8968
 9921TIP3    H251255   2.726   4.265   3.308 -0.2456  0.3076 -0.9601
 9922TIP3   OH251256   6.244   6.704   2.828  0.2044 -0.1919 -0.6647
 9922TIP3    H151257   6.247   6.776   2.891  0.5127  0.9626 -1.9285
 9922TIP3    H251258   6.151   6.683   2.819  0.1970 -0.7129  0.5193
 9923TIP3   OH251259   6.726   1.109  16.456 -0.2890  0.4111 -0.4218
 9923TIP3    H151260   6.759   1.194  16.426 -0.5959  0.8897  0.5455
 9923TIP3    H251261   6.639   1.128  16.490 -0.9049 -0.5446 -1.4170
 9924TIP3   OH251262   4.133   4.526   2.249 -0.6057 -0.2771 -0.1364
 9924TIP3    H151263   4.222   4.560   2.258 -0.8356  0.7243 -1.4298
 9924TIP3    H251264   4.135   4.441   2.294  0.8738 -0.0777  0.2203
 9925TIP3   OH251265   1.298   3.999  15.504  0.0929  0.0754  0.3398
 9925TIP3    H151266   1.349   4.079  15.493 -0.2196 -0.0212 -2.3123
 9925TIP3    H251267   1.234   4.021  15.572  1.2486  1.4053  1.0467
 9926TIP3   OH251268   3.475   5.865   4.283  0.2231 -0.1256 -0.8645
 9926TIP3    H151269   3.538   5.936   4.295 -0.2147  0.1453 -0.1010
 9926TIP3    H251270   3.517   5.788   4.322  0.0631  0.0700 -0.2914
 9927TIP3   OH251271   1.260   5.807  15.207  0.5456 -0.1136  0.0353
 9927TIP3    H151272   1.309   5.834  15.129  0.6629 -1.7052 -0.4747
 9927TIP3    H251273   1.316   5.741  15.248  0.5004  0.7237  1.5167
 9928TIP3   OH251274   0.261   0.331   4.803 -0.2268  0.0698 -0.3186
 9928TIP3    H151275   0.330   0.396   4.787  0.0980 -0.0152  0.6593
 9928TIP3    H251276   0.296   0.277   4.874 -0.6512 -0.9555 -0.8820
 9929TIP3   OH251277   1.904   4.499   1.953 -0.0332  0.1345  0.0086
 9929TIP3    H151278   1.841   4.570   1.944  0.6200  0.6995 -0.1555
 9929TIP3    H251279   1.880   4.456   2.035 -0.1443  0.8391  0.3551
 9930TIP3   OH251280   0.613   5.207   1.122  0.2889  0.2964 -0.6408
 9930TIP3    H151281   0.673   5.221   1.194  0.0410 -3.5445  0.5407
 9930TIP3    H251282   0.668   5.173   1.051 -0.1672 -1.9943  0.0111
 9931TIP3   OH251283   6.496   3.065  12.513  0.2610  0.2874 -0.1801
 9931TIP3    H151284   6.570   3.029  12.465 -0.0906 -1.0492  0.2375
 9931TIP3    H251285   6.463   3.135  12.457 -0.5523 -1.6416 -2.2651
 9932TIP3   OH251286   1.663   2.740   3.209 -0.1963  0.0645  0.2011
 9932TIP3    H151287   1.753   2.713   3.189 -0.0543  0.0476  0.8544
 9932TIP3    H251288   1.672   2.818   3.263 -0.5795  0.2230  0.0384
 9933TIP3   OH251289   6.449   6.390  12.744  0.6109 -0.1755 -0.0865
 9933TIP3    H151290   6.420   6.454  12.679  0.1535 -0.7179 -0.4187
 9933TIP3    H251291   6.446   6.438  12.827 -1.0613 -0.1516 -0.1314
 9934TIP3   OH251292   5.723   2.423   4.892  0.2821  0.4996  0.3286
 9934TIP3    H151293   5.659   2.444   4.824  1.0031  1.2800 -0.1144
 9934TIP3    H251294   5.731   2.327   4.887 -1.3960  0.2882  0.9065
 9935TIP3   OH251295   0.142   4.296   5.297 -0.0472 -0.0537  0.0317
 9935TIP3    H151296   0.224   4.253   5.272 -0.5245 -0.8647 -0.1762
 9935TIP3    H251297   0.152   4.386   5.267  1.7726  0.5505  2.2078
 9936TIP3   OH251298   5.924   3.127  14.508  0.6317  0.3381  0.2112
 9936TIP3    H151299   6.001   3.083  14.543  1.6497  1.8502 -0.0468
 9936TIP3    H251300   5.920   3.101  14.416  1.2520  0.8052  0.0500
 9937TIP3   OH251301   4.379   5.546   3.446 -0.1202 -0.2144 -0.1115
 9937TIP3    H151302   4.332   5.554   3.363  0.9537  1.4138 -0.6134
 9937TIP3    H251303   4.332   5.604   3.506 -0.6638 -1.0949  0.3354
 9938TIP3   OH251304   3.473   0.492  11.541 -0.8044  0.4442 -0.0048
 9938TIP3    H151305   3.436   0.576  11.516  0.9844  0.9808 -0.9810
 9938TIP3    H251306   3.484   0.444  11.459 -2.9619 -1.3257  0.6241
 9939TIP3   OH251307   5.159   4.642  13.561 -0.8348 -0.1844 -0.7916
 9939TIP3    H151308   5.074   4.663  13.599  0.1797 -1.0169  2.1904
 9939TIP3    H251309   5.221   4.698  13.607  0.4945 -1.2315 -1.2309
 9940TIP3   OH251310   2.647   5.945  14.869 -0.3222 -0.3690 -0.1874
 9940TIP3    H151311   2.609   5.864  14.835 -1.3128 -0.0693  0.1792
 9940TIP3    H251312   2.709   5.917  14.937 -0.5403 -0.8239 -0.1787
 9941TIP3   OH251313   5.838   4.139   0.485 -1.1249 -0.0122  0.0321
 9941TIP3    H151314   5.914   4.196   0.497  0.1693 -1.3794 -1.2844
 9941TIP3    H251315   5.798   4.136   0.572  1.3866 -0.6843  1.2893
 9942TIP3   OH251316   5.384   6.672   4.023 -0.0594  0.0788 -0.1209
 9942TIP3    H151317   5.393   6.596   3.965 -0.8996 -0.5908  0.6051
 9942TIP3    H251318   5.291   6.691   4.023  0.0033  0.4136  0.5789
 9943TIP3   OH251319   4.133   0.506   4.934  0.1491 -0.5309  0.0566
 9943TIP3    H151320   4.069   0.571   4.963  0.8986 -1.3471  4.3011
 9943TIP3    H251321   4.212   0.556   4.916 -0.7060  0.1557 -2.1364
 9944TIP3   OH251322   2.651   6.100  11.867 -0.0190 -0.3611  0.1660
 9944TIP3    H151323   2.569   6.149  11.854 -0.5751 -1.2180  0.3612
 9944TIP3    H251324   2.718   6.156  11.828 -0.8649 -0.2164 -1.1569
 9945TIP3   OH251325   1.573   5.178  15.672  0.1557  0.0982 -0.1362
 9945TIP3    H151326   1.632   5.102  15.670 -0.2976 -0.2803  0.5261
 9945TIP3    H251327   1.512   5.162  15.600 -0.8829 -0.9567  0.9419
 9946TIP3   OH251328   1.922   0.672   5.029 -0.1264  0.4528 -0.3605
 9946TIP3    H151329   2.005   0.652   4.988 -0.8660 -2.1680 -0.7805
 9946TIP3    H251330   1.858   0.670   4.957 -1.2757 -3.1310  0.5361
 9947TIP3   OH251331   2.247   3.647  11.724  0.4153  0.1794 -0.2978
 9947TIP3    H151332   2.307   3.657  11.798  1.4321  1.5142 -1.2408
 9947TIP3    H251333   2.239   3.552  11.713 -1.6246 -0.1442  2.9033
 9948TIP3   OH251334   4.855   6.647   5.201  0.3161 -0.3820  0.5648
 9948TIP3    H151335   4.920   6.712   5.176 -1.6589  1.6345  0.3213
 9948TIP3    H251336   4.865   6.638   5.296  0.8385 -0.0051  0.5478
 9949TIP3   OH251337   1.237   5.118   0.034  0.5700 -0.5377  0.5496
 9949TIP3    H151338   1.167   5.183   0.036  1.9079  0.9420  1.0414
 9949TIP3    H251339   1.227   5.075  -0.051 -0.2658  0.3784  0.1665
 9950TIP3   OH251340   4.811   1.416   4.059 -0.5181  0.0439 -0.6904
 9950TIP3    H151341   4.813   1.472   3.981  1.8118 -0.7510 -1.2722
 9950TIP3    H251342   4.754   1.462   4.120  0.9126  2.8325 -1.2949
 9951TIP3   OH251343   3.921   4.060  14.837 -0.2706 -0.7090 -0.0698
 9951TIP3    H151344   3.836   4.022  14.815 -1.1391 -0.1010  1.9598
 9951TIP3    H251345   3.983   3.988  14.828 -1.2393 -1.5638 -0.1234
 9952TIP3   OH251346   6.208   1.953  16.765 -0.4924 -0.2768  0.4849
 9952TIP3    H151347   6.176   1.865  16.785  1.6561 -1.3728 -0.5561
 9952TIP3    H251348   6.252   1.981  16.845  1.2572 -1.3811 -0.0340
 9953TIP3   OH251349   3.517   0.693   4.035 -0.5644 -0.7520  0.3401
 9953TIP3    H151350   3.541   0.713   4.126  3.1802  0.6247 -0.7648
 9953TIP3    H251351   3.426   0.720   4.028 -0.4786  0.7010  3.2817
 9954TIP3   OH251352   4.228   2.834  10.901  0.1881 -0.2701  0.6465
 9954TIP3    H151353   4.202   2.744  10.919  1.3448 -0.5666  0.9109
 9954TIP3    H251354   4.268   2.831  10.814  1.2520 -0.2309  1.1283
 9955TIP3   OH251355   4.381   6.046  11.130  0.0633 -0.4965 -0.3681
 9955TIP3    H151356   4.432   6.001  11.198  1.7916  1.0157 -0.5666
 9955TIP3    H251357   4.405   6.002  11.049  0.1221 -0.5774 -0.3063
 9956TIP3   OH251358   3.645   0.225   1.299 -0.7355  0.2212 -0.0953
 9956TIP3    H151359   3.593   0.157   1.340 -0.2833 -0.2081 -0.2180
 9956TIP3    H251360   3.712   0.248   1.364 -0.9792  0.6598  0.0051
 9957TIP3   OH251361   1.847   2.569  11.440 -0.6327  0.1481 -0.3363
 9957TIP3    H151362   1.784   2.498  11.449 -0.7357  0.3376  0.4571
 9957TIP3    H251363   1.908   2.557  11.512 -1.1888  1.4029  0.3684
 9958TIP3   OH251364   3.951   4.261   0.986 -0.0102  0.2292  0.2847
 9958TIP3    H151365   3.907   4.183   0.951 -2.1990  0.7560  1.6779
 9958TIP3    H251366   4.040   4.232   1.002  0.2540 -0.9322 -2.6079
 9959TIP3   OH251367   6.130   6.744  12.071  0.1689 -0.2501 -0.4480
 9959TIP3    H151368   6.179   6.675  12.027  0.0067 -1.3654  1.0432
 9959TIP3    H251369   6.109   6.708  12.157 -2.9807  0.2681 -0.8753
 9960TIP3   OH251370   5.713   2.181   6.494  0.0219  0.7491 -0.3108
 9960TIP3    H151371   5.669   2.196   6.578 -0.4438  0.5560 -0.5138
 9960TIP3    H251372   5.656   2.119   6.449  1.3325 -0.7934  0.0744
 9961TIP3   OH251373   5.957   6.516   0.501  0.0688 -0.2516  0.5215
 9961TIP3    H151374   5.869   6.526   0.465  0.7704 -0.9631 -1.5423
 9961TIP3    H251375   5.948   6.450   0.570 -1.0247 -0.2429  0.4020
 9962TIP3   OH251376   3.590   4.950  15.267 -0.2524  0.1456  0.1996
 9962TIP3    H151377   3.607   5.029  15.317  0.8116  1.3064 -1.8820
 9962TIP3    H251378   3.661   4.890  15.291  0.2193  0.6638  0.1029
 9963TIP3   OH251379   0.461   6.349  13.362 -0.0431 -0.0175  0.0910
 9963TIP3    H151380   0.551   6.316  13.358  0.9799  2.3019  1.6722
 9963TIP3    H251381   0.440   6.372  13.272  1.3174  0.2826 -0.1723
 9964TIP3   OH251382   1.656   2.378  11.413  0.1506 -0.0293 -0.2802
 9964TIP3    H151383   1.634   2.397  11.322  1.4307  1.6115 -0.2929
 9964TIP3    H251384   1.586   2.321  11.443 -1.1374  0.6580 -1.8300
 9965TIP3   OH251385   3.320   3.161  15.447  0.0748 -0.1815 -0.4654
 9965TIP3    H151386   3.322   3.206  15.532 -0.1181 -0.6012 -0.2347
 9965TIP3    H251387   3.261   3.213  15.393  1.6132  1.1556 -0.9593
 9966TIP3   OH251388   5.910   0.850   0.207  0.1545 -0.1065 -0.0964
 9966TIP3    H151389   5.851   0.905   0.259 -0.0842 -0.7382  0.3145
 9966TIP3    H251390   5.978   0.824   0.268  0.2882 -0.2364 -0.3015
 9967TIP3   OH251391   3.870   1.985   2.423 -0.2051  0.4476  0.3622
 9967TIP3    H151392   3.804   2.028   2.368 -0.0427  0.6853  0.3524
 9967TIP3    H251393   3.820   1.931   2.483 -0.3386 -1.3817 -1.3015
 9968TIP3   OH251394   5.458   2.349   0.326  0.4361  0.5312  0.4700
 9968TIP3    H151395   5.443   2.441   0.350  0.3532  0.9307 -1.0072
 9968TIP3    H251396   5.486   2.307   0.407  3.3020  2.4917  0.6645
 9969TIP3   OH251397   2.645   0.328  11.751 -0.4643  0.4575 -0.3723
 9969TIP3    H151398   2.715   0.389  11.727 -1.7817  2.0672 -0.3028
 9969TIP3    H251399   2.592   0.321  11.672 -1.2048  0.6693  0.0954
 9970TIP3   OH251400   5.217   2.549  17.037  0.4595  0.1782  0.4858
 9970TIP3    H151401   5.234   2.469  17.086  0.7387  0.4266  0.8045
 9970TIP3    H251402   5.204   2.520  16.946 -1.0169 -0.3833  0.8572
 9971TIP3   OH251403   5.797   5.218  16.325  0.2121  0.1308  0.2011
 9971TIP3    H151404   5.814   5.275  16.399 -0.9213 -0.7174  1.1592
 9971TIP3    H251405   5.824   5.268  16.248  1.6705  0.9160  1.1941
 9972TIP3   OH251406   4.441   6.562  11.340  0.1602  0.2602 -0.3493
 9972TIP3    H151407   4.371   6.588  11.400 -0.7364  1.8816 -2.0059
 9972TIP3    H251408   4.442   6.467  11.345 -1.4237  0.2494  0.5276
 9973TIP3   OH251409   6.714   6.660  12.073  0.1045 -0.1741  0.5490
 9973TIP3    H151410   6.731   6.675  12.166 -0.0112 -2.3495  0.9883
 9973TIP3    H251411   6.783   6.599  12.046  0.1223  0.4241 -0.8013
 9974TIP3   OH251412   2.526   3.663  16.166 -0.1794  0.0711 -0.3431
 9974TIP3    H151413   2.554   3.712  16.244  0.4407 -0.4845 -0.2081
 9974TIP3    H251414   2.486   3.584  16.201 -0.5940  0.1735 -0.5793
 9975TIP3   OH251415   0.523   1.557  10.545  0.1801  0.1932 -0.8318
 9975TIP3    H151416   0.477   1.639  10.563 -1.7523 -0.9977  0.1013
 9975TIP3    H251417   0.611   1.570  10.580 -0.4850  1.4114  0.4999
 9976TIP3   OH251418   3.448   4.302  13.849 -0.5402 -0.1215  0.8768
 9976TIP3    H151419   3.469   4.365  13.918  1.5345  0.4960 -0.2058
 9976TIP3    H251420   3.401   4.353  13.783 -0.1302 -0.0395  0.6434
 9977TIP3   OH251421   1.377   3.255   3.946 -0.1904 -0.1119  0.5874
 9977TIP3    H151422   1.413   3.211   4.023 -0.5758 -1.0232  0.2683
 9977TIP3    H251423   1.378   3.348   3.968  1.6138 -0.1665  0.8927
 9978TIP3   OH251424   6.300   6.832   6.264  0.2205  0.0190 -0.1120
 9978TIP3    H151425   6.277   6.744   6.235 -1.3074  0.8716 -1.6854
 9978TIP3    H251426   6.383   6.821   6.311  0.5017 -2.1183 -0.9884
 9979TIP3   OH251427   2.739   4.720   3.662  0.0930 -0.1279  0.1899
 9979TIP3    H151428   2.669   4.772   3.702  0.6066  0.1331  0.7537
 9979TIP3    H251429   2.719   4.630   3.688 -0.0161 -0.0500  0.3774
 9980TIP3   OH251430   5.168   4.737   0.851 -0.0146  0.0110  0.1526
 9980TIP3    H151431   5.143   4.803   0.786 -1.1788  1.6765  2.1870
 9980TIP3    H251432   5.264   4.740   0.853  0.1890 -1.2860 -2.5831
 9981TIP3   OH251433   5.697   4.848   2.180 -0.5206 -0.7784  0.4794
 9981TIP3    H151434   5.747   4.869   2.259 -0.4745 -1.7018  0.7090
 9981TIP3    H251435   5.637   4.779   2.207 -0.7715 -0.8335 -0.1995
 9982TIP3   OH251436   2.956   1.957   5.020  0.2543  0.1399 -0.2639
 9982TIP3    H151437   2.947   2.036   5.074 -0.6025 -0.3983  0.3980
 9982TIP3    H251438   3.011   1.899   5.073 -0.9897 -0.5790  0.2780
 9983TIP3   OH251439   0.662   0.950  16.433  0.4689 -0.6029 -0.0321
 9983TIP3    H151440   0.735   0.942  16.495 -0.5405  1.0971  1.4555
 9983TIP3    H251441   0.600   0.882  16.461 -0.3293  0.6549  1.3964
 9984TIP3   OH251442   2.408   3.529   4.511  0.4519  0.0249  0.1180
 9984TIP3    H151443   2.425   3.574   4.594  1.2468  1.2146 -0.6457
 9984TIP3    H251444   2.438   3.439   4.526 -3.4610 -1.1058  2.4899
 9985TIP3   OH251445   5.533   5.128   2.696 -0.5272 -0.0057 -0.0775
 9985TIP3    H151446   5.442   5.107   2.675 -0.4730 -0.4194  0.0939
 9985TIP3    H251447   5.571   5.046   2.726  0.0583  0.0364 -0.6715
 9986TIP3   OH251448   2.345   0.384   0.447 -0.0555  0.0969  0.8661
 9986TIP3    H151449   2.300   0.301   0.463 -1.5791  0.4371 -1.1847
 9986TIP3    H251450   2.274   0.445   0.426  1.0438  1.9055  2.1228
 9987TIP3   OH251451   5.584   4.188   0.278  0.6046 -0.0844 -0.2827
 9987TIP3    H151452   5.517   4.123   0.257 -1.5986  2.2200 -0.9770
 9987TIP3    H251453   5.555   4.227   0.360  2.2040 -0.3715  0.4401
 9988TIP3   OH251454   6.202   4.485  16.434 -0.3249 -0.4019  0.2176
 9988TIP3    H151455   6.285   4.444  16.457  0.0400  0.2091  0.0027
 9988TIP3    H251456   6.149   4.479  16.514  0.1782 -0.1569  0.5735
 9989TIP3   OH251457   4.237   1.412   1.540 -0.2171  0.4421 -0.1662
 9989TIP3    H151458   4.274   1.324   1.534  0.7560  0.6202  2.1583
 9989TIP3    H251459   4.143   1.400   1.524 -0.1770 -1.1109  0.5674
 9990TIP3   OH251460   0.588   1.253   0.422 -0.0059 -0.5309  0.0500
 9990TIP3    H151461   0.625   1.174   0.382  2.1482  0.7232 -0.6012
 9990TIP3    H251462   0.634   1.261   0.505  0.5149  0.5560 -0.3323
 9991TIP3   OH251463   5.341   3.413   4.941  0.0122 -0.0183 -0.3114
 9991TIP3    H151464   5.247   3.402   4.951  0.1419  0.7713  2.5733
 9991TIP3    H251465   5.379   3.371   5.018  2.1028 -0.6730 -1.5953
 9992TIP3   OH251466   1.604   6.038   4.895  0.3218 -0.5024 -0.1433
 9992TIP3    H151467   1.646   6.104   4.950 -0.1795  0.4221 -0.8333
 9992TIP3    H251468   1.644   5.955   4.922  0.6913  0.0258  1.0082
 9993TIP3   OH251469   0.960   3.483   5.707  0.0913  0.3643 -0.4950
 9993TIP3    H151470   1.012   3.533   5.769  1.8121 -0.6724 -1.0349
 9993TIP3    H251471   0.937   3.546   5.638 -2.1729  1.6222  1.2908
 9994TIP3   OH251472   1.745   6.451   0.683 -0.0269  0.4813  0.0673
 9994TIP3    H151473   1.824   6.492   0.719 -0.7089  0.2628  1.8984
 9994TIP3    H251474   1.673   6.504   0.717 -0.8130 -1.0065  0.8011
 9995TIP3   OH251475   1.967   6.506  15.726 -0.6447  0.3960  0.0755
 9995TIP3    H151476   2.023   6.471  15.657  0.5810  0.7154  0.8800
 9995TIP3    H251477   1.895   6.443  15.733 -0.0961 -0.3218 -0.6024
 9996TIP3   OH251478   3.790   5.271   1.624  0.3268 -0.1876 -0.1503
 9996TIP3    H151479   3.846   5.344   1.648 -0.4449  0.8806 -1.4924
 9996TIP3    H251480   3.701   5.303   1.640 -0.0198 -0.8150 -0.7811
 9997TIP3   OH251481   6.337   3.568  12.638 -0.4432  0.1077  0.8669
 9997TIP3    H151482   6.266   3.602  12.584  0.4391 -0.0401 -0.4167
 9997TIP3    H251483   6.400   3.532  12.576 -0.9119 -3.1848  2.0558
 9998TIP3   OH251484   3.578   1.395  15.989  0.9032 -0.0043  0.0904
 9998TIP3    H151485   3.534   1.480  15.988  1.2897  0.2139  0.9200
 9998TIP3    H251486   3.667   1.413  15.959  1.1162 -0.0271  0.6830
 9999TIP3   OH251487   0.541   2.004   0.577  0.5817 -0.3463 -0.3032
 9999TIP3    H151488   0.593   2.080   0.550 -2.1279  1.4465 -0.9438
 9999TIP3    H251489   0.535   1.950   0.498  2.6277 -1.3700  0.1892
10000TIP3   OH251490   6.072   5.090  13.146 -0.2608  0.0695  0.1896
10000TIP3    H151491   6.118   5.173  13.159 -1.2584  0.4927  1.1423
10000TIP3    H251492   5.982   5.115  13.127 -0.3467 -0.7794 -0.5773
10001TIP3   OH251493   3.657   1.901   2.870 -0.8274 -0.1414 -0.0033
10001TIP3    H151494   3.746   1.934   2.876  0.0046 -2.1616 -0.2362
10001TIP3    H251495   3.605   1.960   2.924  0.7259  0.8260  0.4928
10002TIP3   OH251496   3.255   2.574  15.895 -0.6619  0.1464  0.4345
10002TIP3    H151497   3.279   2.557  15.987 -0.7676 -3.4635 -0.0539
10002TIP3    H251498   3.339   2.578  15.849 -0.6665 -0.0420  0.4100
10003TIP3   OH251499   2.039   0.906  13.060 -0.2476  0.2156  0.1266
10003TIP3    H151500   1.970   0.887  13.123  1.1567 -0.6795  1.4704
10003TIP3    H251501   1.995   0.904  12.975 -1.3705 -3.4052  0.6218
10004TIP3   OH251502   5.634   1.768  12.754 -0.3090  0.7575 -0.0858
10004TIP3    H151503   5.706   1.718  12.715 -0.5849  0.7161 -0.5516
10004TIP3    H251504   5.559   1.749  12.698 -0.6099  1.0504  0.2135
10005TIP3   OH251505   5.420   6.636  16.548  0.6555  0.2478  0.5385
10005TIP3    H151506   5.357   6.564  16.541  0.5489  0.3304  0.6355
10005TIP3    H251507   5.367   6.712  16.574  1.0424 -0.0873  2.4693
10006TIP3   OH251508   3.978   4.983   3.365 -0.0210 -0.4602  0.1004
10006TIP3    H151509   4.038   5.055   3.385 -2.1963  1.9095 -1.2837
10006TIP3    H251510   4.012   4.946   3.284 -0.1127  0.5177 -0.4021
10007TIP3   OH251511   1.634   6.722   1.068  0.0173 -0.4990  0.2935
10007TIP3    H151512   1.687   6.788   1.112  0.1520 -1.5867  1.8281
10007TIP3    H251513   1.684   6.642   1.074 -1.0808 -1.2067  0.3654
10008TIP3   OH251514   3.351   5.819   4.750  0.2355 -0.1150  0.0738
10008TIP3    H151515   3.279   5.785   4.803 -0.0324 -3.5898 -2.1130
10008TIP3    H251516   3.430   5.796   4.799 -0.0632  1.0988  1.1502
10009TIP3   OH251517   2.826   5.779  10.589  0.0860 -0.9147  0.1319
10009TIP3    H151518   2.865   5.694  10.573  1.8356 -0.4071  1.4302
10009TIP3    H251519   2.827   5.789  10.684  2.6349  1.6778 -0.0197
10010TIP3   OH251520   4.850   4.204   0.550 -0.4222  0.0954  0.6595
10010TIP3    H151521   4.921   4.256   0.587 -1.3872  1.4623  0.6668
10010TIP3    H251522   4.786   4.269   0.521 -0.8484 -1.0258 -1.0558
10011TIP3   OH251523   4.491   2.629  12.848  0.3703  0.4559  0.7824
10011TIP3    H151524   4.450   2.697  12.901  0.2711  1.2106 -0.2256
10011TIP3    H251525   4.527   2.676  12.773  0.8252 -0.5333  0.3612
10012TIP3   OH251526   3.803   4.999  16.164 -0.5865 -0.1873 -0.6073
10012TIP3    H151527   3.870   5.064  16.186  0.4437 -1.5208  0.3564
10012TIP3    H251528   3.726   5.051  16.141  0.3570  1.3685 -0.3981
10013TIP3   OH251529   1.161   3.323   4.599  0.0364 -0.4031 -0.1219
10013TIP3    H151530   1.173   3.340   4.505  1.1466  1.6420  0.3299
10013TIP3    H251531   1.081   3.372   4.622  0.2180 -0.2315  0.1483
10014TIP3   OH251532   6.298   5.683  16.866 -0.3716 -0.2851  0.5090
10014TIP3    H151533   6.298   5.755  16.929 -0.6816 -0.1451  0.3539
10014TIP3    H251534   6.380   5.692  16.819  0.3939 -1.0620  1.6443
10015TIP3   OH251535   3.295   3.456   1.189  0.4730  0.0440  0.2872
10015TIP3    H151536   3.323   3.532   1.137  0.4836 -0.6873 -0.8060
10015TIP3    H251537   3.234   3.492   1.252 -0.8085  0.7448 -1.2826
10016TIP3   OH251538   4.424   5.688  16.702  0.0880  0.1991  0.2101
10016TIP3    H151539   4.419   5.596  16.731 -1.5960  0.0975 -0.3079
10016TIP3    H251540   4.492   5.687  16.635  1.4930 -0.2550  1.5691
10017TIP3   OH251541   3.998   3.485   4.730 -0.1327  0.7331  0.0611
10017TIP3    H151542   4.014   3.417   4.795 -1.6551 -0.9687 -1.2290
10017TIP3    H251543   4.064   3.552   4.748  0.1339 -0.1199  2.6709
10018TIP3   OH251544   1.660   0.894   2.188 -0.6330 -0.2683 -0.1452
10018TIP3    H151545   1.589   0.830   2.186 -0.5149 -0.7341  3.3240
10018TIP3    H251546   1.616   0.979   2.185 -1.2767 -0.5542  0.7593
10019TIP3   OH251547   1.000   5.243  16.931  0.6513 -0.1181  0.0274
10019TIP3    H151548   0.957   5.213  16.851  1.8507  1.4609 -1.2662
10019TIP3    H251549   0.928   5.256  16.993 -0.5991  0.9679 -1.5684
10020TIP3   OH251550   4.388   2.890  12.553 -0.4804  0.4042  0.3380
10020TIP3    H151551   4.300   2.866  12.581 -0.0650 -2.0526 -0.2379
10020TIP3    H251552   4.395   2.857  12.464  1.6534 -1.2869  1.0487
10021TIP3   OH251553   1.561   3.654   5.846  0.3525 -0.4400 -0.5530
10021TIP3    H151554   1.550   3.580   5.906 -0.6772 -0.9961 -1.3873
10021TIP3    H251555   1.646   3.691   5.870  0.7568 -1.6977  0.1000
10022TIP3   OH251556   3.888   0.503  10.817 -0.2344  0.2499  0.1789
10022TIP3    H151557   3.883   0.414  10.853 -1.8124  0.4035  0.4009
10022TIP3    H251558   3.968   0.503  10.765 -0.3466 -1.3903 -0.0533
10023TIP3   OH251559   3.942   3.080   5.186 -0.1765 -0.0850 -0.3303
10023TIP3    H151560   3.883   3.050   5.256  0.1098 -0.4677 -0.2501
10023TIP3    H251561   3.927   3.174   5.182 -0.4283 -0.1042  0.0320
10024TIP3   OH251562   6.548   2.603  16.841 -0.0401  0.1287  0.5518
10024TIP3    H151563   6.542   2.690  16.879  0.8720  0.5002 -0.1139
10024TIP3    H251564   6.620   2.561  16.888 -0.7534 -0.4268  1.1650
10025TIP3   OH251565   4.814   3.510  12.512  0.2754  0.1694 -0.2663
10025TIP3    H151566   4.809   3.472  12.600  2.2705 -0.4445 -0.3564
10025TIP3    H251567   4.725   3.503  12.477 -0.4590  0.0520  1.5420
10026TIP3   OH251568   4.979   1.025   4.560 -0.1690  0.4038  0.0248
10026TIP3    H151569   5.031   1.033   4.640  2.0118 -0.5015 -1.2054
10026TIP3    H251570   4.940   1.111   4.547 -1.0089  0.4247  2.2996
10027TIP3   OH251571   5.929   3.314  13.421  0.4820  0.5508 -0.0047
10027TIP3    H151572   6.015   3.343  13.391  0.9799 -1.0096 -0.1377
10027TIP3    H251573   5.946   3.264  13.501 -0.0975 -1.0656 -0.8489
10028TIP3   OH251574   0.525   5.327  13.433  0.4918  0.4564 -0.2375
10028TIP3    H151575   0.439   5.362  13.455 -0.6944  0.1250 -3.8128
10028TIP3    H251576   0.554   5.377  13.358  2.8781 -0.3398  0.0461
10029TIP3   OH251577   2.367   1.347   4.566  0.2567  0.2097 -0.1995
10029TIP3    H151578   2.290   1.296   4.593 -1.5462  3.1649  0.7209
10029TIP3    H251579   2.417   1.286   4.512 -3.0431 -1.7345 -1.4126
10030TIP3   OH251580   2.989   1.149   2.546 -0.7789  0.2535  0.2672
10030TIP3    H151581   3.082   1.167   2.531 -0.5652 -1.8067 -1.3520
10030TIP3    H251582   2.965   1.087   2.477 -2.8286 -0.8904  1.8814
10031TIP3   OH251583   1.443   4.084   1.308 -0.4590  0.2379 -0.1963
10031TIP3    H151584   1.373   4.034   1.349 -0.1434 -0.4978 -0.5445
10031TIP3    H251585   1.452   4.046   1.221  2.2705 -1.6185  0.7715
10032TIP3   OH251586   4.144   3.475   6.741 -0.1483 -0.2738  0.1089
10032TIP3    H151587   4.179   3.555   6.701 -0.0585 -1.0109 -1.3232
10032TIP3    H251588   4.219   3.418   6.752 -0.3906 -0.5985  0.0907
10033TIP3   OH251589   5.881   0.538   2.802 -0.4915  0.3387 -0.0002
10033TIP3    H151590   5.871   0.443   2.799  0.8278  0.1856 -0.6978
10033TIP3    H251591   5.962   0.552   2.851 -2.0985  1.2772  2.5936
10034TIP3   OH251592   1.311   3.421  11.582 -0.2276  0.3406 -0.2476
10034TIP3    H151593   1.365   3.458  11.652  1.2864 -1.8227 -0.1586
10034TIP3    H251594   1.221   3.440  11.608  0.3496  0.5857  1.7029
10035TIP3   OH251595   2.336   5.624   3.427  0.1617  0.3237 -0.7009
10035TIP3    H151596   2.352   5.592   3.516  2.7209  0.3388 -1.0811
10035TIP3    H251597   2.280   5.701   3.439 -1.2564 -0.8313  0.6787
10036TIP3   OH251598   1.191   6.019  12.890  0.0400 -0.6554 -0.3592
10036TIP3    H151599   1.210   6.112  12.900 -0.6673 -0.7143  2.5756
10036TIP3    H251600   1.230   5.995  12.806  0.9218  2.0895 -0.8401
10037TIP3   OH251601   4.023   0.822   2.649  0.0788 -0.0994 -0.0208
10037TIP3    H151602   4.077   0.806   2.726  0.8866  0.1300 -0.5267
10037TIP3    H251603   3.973   0.900   2.670 -1.8769 -1.6152  1.4029
10038TIP3   OH251604   1.273   6.016  14.985 -0.0026 -0.1907  0.4144
10038TIP3    H151605   1.261   6.064  15.067  0.8760 -1.2118  1.1681
10038TIP3    H251606   1.312   6.080  14.925 -1.8397  0.9326  0.3445
10039TIP3   OH251607   4.681   6.465  12.182  0.2297 -0.4377  0.0074
10039TIP3    H151608   4.721   6.537  12.231  0.8527 -0.8202  0.0813
10039TIP3    H251609   4.746   6.444  12.115 -1.1747  0.9793 -1.8986
10040TIP3   OH251610   0.054   3.596  13.307 -0.0813 -0.3680 -0.6146
10040TIP3    H151611   0.139   3.560  13.334 -0.6720 -1.8926 -0.6734
10040TIP3    H251612   0.075   3.659  13.239  1.0135 -0.7898 -0.6831
10041TIP3   OH251613   6.069   2.638   2.019  0.3397 -0.1830 -0.1682
10041TIP3    H151614   6.095   2.713   2.074  0.0021 -0.1846 -0.0044
10041TIP3    H251615   6.147   2.582   2.017 -0.1224 -0.9875  1.6414
10042TIP3   OH251616   5.230   5.522   2.881  0.2250 -0.5970  0.1287
10042TIP3    H151617   5.287   5.535   2.956  0.9975 -1.6226 -0.2586
10042TIP3    H251618   5.243   5.601   2.827  1.2919 -0.8146  0.0456
10043TIP3   OH251619   5.004   4.704  13.144 -0.6068  1.0762 -0.5083
10043TIP3    H151620   5.080   4.692  13.201  0.0561  1.9156 -1.2108
10043TIP3    H251621   5.031   4.671  13.059 -0.3146  3.1776 -1.2862
10044TIP3   OH251622   3.715   2.750   3.620  0.1590  0.3652 -0.4683
10044TIP3    H151623   3.619   2.747   3.621  0.1619  0.2636  0.2223
10044TIP3    H251624   3.737   2.786   3.534 -0.5372  1.9035 -0.0366
10045TIP3   OH251625   2.249   1.953   4.023  0.2417 -0.0807  0.1162
10045TIP3    H151626   2.342   1.939   4.039  0.1916  0.4620  0.9544
10045TIP3    H251627   2.227   1.890   3.955  1.1236 -0.5127  0.2112
10046TIP3   OH251628   1.313   6.790   1.157 -1.0956 -0.3823 -0.8220
10046TIP3    H151629   1.291   6.703   1.190 -0.0260 -0.1052  0.7182
10046TIP3    H251630   1.397   6.778   1.113  0.5774  0.3311  1.9460
10047TIP3   OH251631   1.805   1.395   5.850 -0.3505 -0.1092 -0.2082
10047TIP3    H151632   1.741   1.330   5.879 -0.0895  0.4526  1.7451
10047TIP3    H251633   1.890   1.360   5.879  0.2458 -0.6671 -2.4479
10048TIP3   OH251634   1.259   5.348  11.776 -0.2818  0.6125  0.0652
10048TIP3    H151635   1.249   5.422  11.835  0.2308  0.8603 -0.1566
10048TIP3    H251636   1.182   5.353  11.718 -1.0487  0.0856  0.9967
10049TIP3   OH251637   6.200   5.965   4.348 -0.3235 -0.0339 -0.1365
10049TIP3    H151638   6.277   5.912   4.366 -0.3406 -0.1490 -0.3972
10049TIP3    H251639   6.230   6.055   4.352 -0.3122 -0.0586  0.3970
10050TIP3   OH251640   5.736   5.577  13.877  0.0887 -0.0507 -0.0047
10050TIP3    H151641   5.805   5.627  13.920  0.1605  1.8013 -2.0818
10050TIP3    H251642   5.757   5.584  13.783 -1.5094 -1.6289 -0.5324
10051TIP3   OH251643   4.796   0.161   4.556  0.3420 -0.0599 -0.2784
10051TIP3    H151644   4.823   0.248   4.585 -1.5485  0.2662  0.6961
10051TIP3    H251645   4.750   0.177   4.473 -3.2314  0.5141  1.6098
10052TIP3   OH251646   0.526   6.313   5.208  0.4340  0.5134  0.2040
10052TIP3    H151647   0.534   6.387   5.148 -0.7952 -0.6737 -1.4948
10052TIP3    H251648   0.560   6.346   5.291  2.7429  2.0632 -1.2275
10053TIP3   OH251649   6.378   3.769  10.953 -0.5476  0.4025 -0.1155
10053TIP3    H151650   6.411   3.856  10.930 -1.6271  0.6901 -0.6689
10053TIP3    H251651   6.453   3.724  10.993 -0.0503  1.6699  0.4249
10054TIP3   OH251652   5.778   2.722   1.086  0.3227 -0.2740 -0.0965
10054TIP3    H151653   5.750   2.725   1.177 -0.8509 -1.7497 -0.3684
10054TIP3    H251654   5.792   2.813   1.062  0.8832  0.1302  1.6124
10055TIP3   OH251655   1.868   6.256   5.453 -0.1745 -0.0428  0.1612
10055TIP3    H151656   1.959   6.284   5.461 -0.3370  0.5462 -0.0230
10055TIP3    H251657   1.854   6.199   5.528 -0.1522  1.2224  1.1586
10056TIP3   OH251658   3.626   0.463   5.690 -0.0473 -0.4312  0.2163
10056TIP3    H151659   3.602   0.511   5.770 -1.2645 -0.4035 -0.1496
10056TIP3    H251660   3.633   0.530   5.622 -1.3469 -0.7019 -0.2058
10057TIP3   OH251661   1.185   3.476  15.484  0.5843 -0.0113 -0.2292
10057TIP3    H151662   1.195   3.545  15.550  0.3891  0.0559 -0.2683
10057TIP3    H251663   1.163   3.398  15.535 -1.4430  0.4400 -0.3210
10058TIP3   OH251664   0.791   0.396  13.564  0.3918 -0.0619 -0.0115
10058TIP3    H151665   0.855   0.451  13.610  0.1578  0.4128 -0.2508
10058TIP3    H251666   0.825   0.307  13.574  0.3846  0.0321  1.0254
10059TIP3   OH251667   5.433   0.446   2.989  0.0351  0.1036 -0.3072
10059TIP3    H151668   5.459   0.362   2.949  1.1575  0.4207 -0.2562
10059TIP3    H251669   5.456   0.512   2.923 -0.3781  0.4211 -0.1368
10060TIP3   OH251670   1.667   0.498   5.024 -0.0210  0.2494  0.4872
10060TIP3    H151671   1.636   0.559   4.957  1.0300 -0.8852 -1.1031
10060TIP3    H251672   1.591   0.445   5.045 -0.8104  1.7097  1.5050
10061TIP3   OH251673   2.329   4.636   4.900  0.2474  0.1239 -0.5047
10061TIP3    H151674   2.238   4.647   4.925  0.0624 -0.0853 -1.0702
10061TIP3    H251675   2.333   4.548   4.863  1.0080 -0.5035  0.9541
10062TIP3   OH251676   6.166   4.065   0.529  0.1576  0.3856 -0.0899
10062TIP3    H151677   6.147   3.992   0.471 -1.0181  1.8142 -1.5858
10062TIP3    H251678   6.121   4.044   0.611  0.0921 -0.6768 -0.3911
10063TIP3   OH251679   5.168   2.888   4.313 -0.5186 -0.5990  0.0424
10063TIP3    H151680   5.247   2.836   4.332  0.8051  1.0927 -0.5929
10063TIP3    H251681   5.160   2.947   4.388 -0.1921  0.3531 -0.6555
10064TIP3   OH251682   0.071   4.213   3.399  0.3837 -0.3496  0.3166
10064TIP3    H151683   0.117   4.271   3.338  0.5935  0.2476  1.0227
10064TIP3    H251684   0.117   4.225   3.483 -0.4714 -0.4418  0.8142
10065TIP3   OH251685   2.898   4.799   0.897  0.2387  0.0256 -0.3475
10065TIP3    H151686   2.822   4.751   0.929 -0.9082  0.9051 -1.6586
10065TIP3    H251687   2.933   4.745   0.827 -2.4156  1.9273 -3.4350
10066TIP3   OH251688   1.448   4.491   6.096 -0.6355  0.2591 -0.0147
10066TIP3    H151689   1.380   4.484   6.163  0.4188 -1.9241  0.9335
10066TIP3    H251690   1.453   4.403   6.058 -0.6226  1.2234 -2.4250
10067TIP3   OH251691   0.325   1.976   2.691  0.1741 -0.0273  0.0646
10067TIP3    H151692   0.250   1.991   2.748 -0.0690  0.3596 -0.3494
10067TIP3    H251693   0.320   1.883   2.670 -0.2605  0.0193 -0.0546
10068TIP3   OH251694   4.315   5.751   4.228 -0.5862 -0.3476 -0.0231
10068TIP3    H151695   4.323   5.778   4.136 -0.3779 -0.8576 -0.1644
10068TIP3    H251696   4.382   5.683   4.238 -1.4795 -1.2291  0.1421
10069TIP3   OH251697   6.267   3.222  15.301 -0.3558 -0.2417 -0.6159
10069TIP3    H151698   6.251   3.127  15.306 -0.1634 -0.2063  1.7600
10069TIP3    H251699   6.356   3.233  15.334 -0.3762  0.7729 -0.8871
10070TIP3   OH251700   3.475   2.278  13.519  0.1524  0.3969  0.5044
10070TIP3    H151701   3.399   2.300  13.573 -0.0843 -0.8501  0.7068
10070TIP3    H251702   3.547   2.268  13.582  0.5759  1.7809  0.2965
10071TIP3   OH251703   1.002   1.386   4.020  0.6932  0.9588  0.3191
10071TIP3    H151704   1.085   1.340   4.017  0.5552  0.7054  0.3512
10071TIP3    H251705   0.978   1.400   3.929  1.2493  1.9054  0.3092
10072TIP3   OH251706   0.471   4.577   3.147  0.0027 -0.2953 -0.0180
10072TIP3    H151707   0.551   4.580   3.199  0.4452 -0.4406 -0.6820
10072TIP3    H251708   0.412   4.640   3.189  1.1126  1.1703 -0.5979
10073TIP3   OH251709   5.901   4.151  16.125 -0.7157  0.0599 -0.1845
10073TIP3    H151710   5.858   4.235  16.107 -1.6378 -0.3025  0.2338
10073TIP3    H251711   5.859   4.119  16.205  0.5820 -0.1655  0.4339
10074TIP3   OH251712   1.198   4.350  15.064 -0.3573 -0.6915  0.6301
10074TIP3    H151713   1.168   4.260  15.052  2.9481 -2.2030  2.2213
10074TIP3    H251714   1.152   4.379  15.143 -1.9700 -0.6526 -0.2772
10075TIP3   OH251715   3.395   0.512  16.728 -0.5169  0.5398 -0.2130
10075TIP3    H151716   3.366   0.600  16.702 -0.3206  0.2905 -1.3514
10075TIP3    H251717   3.397   0.463  16.646 -1.8025 -0.8922  0.5769
10076TIP3   OH251718   4.798   0.490  11.764 -0.1175 -0.2829 -0.0547
10076TIP3    H151719   4.814   0.576  11.725 -1.1912 -0.3309 -0.6398
10076TIP3    H251720   4.870   0.435  11.733  1.7906  0.8961  2.0231
10077TIP3   OH251721   1.167   0.136   5.791 -0.1813 -0.4837  0.4098
10077TIP3    H151722   1.238   0.154   5.853 -0.6108  2.0651  0.2724
10077TIP3    H251723   1.202   0.068   5.734  1.4877 -0.5275  1.4027
10078TIP3   OH251724   4.921   1.340  15.099 -0.2072 -0.0263  0.0432
10078TIP3    H151725   4.995   1.349  15.039 -1.1217  2.1227 -0.8652
10078TIP3    H251726   4.863   1.278  15.056  0.3127 -0.4556 -0.0444
10079TIP3   OH251727   6.740   0.760  12.842  0.4030 -0.4888 -0.3080
10079TIP3    H151728   6.698   0.687  12.796  1.5765 -1.2548 -0.1968
10079TIP3    H251729   6.833   0.739  12.840  1.1591  2.4646 -2.8684
10080TIP3   OH251730   6.307   0.618   0.866  0.2097 -0.1129 -0.5281
10080TIP3    H151731   6.376   0.557   0.889 -2.5656 -3.5755 -0.4828
10080TIP3    H251732   6.290   0.602   0.773 -1.9319 -1.0889 -0.0442
10081TIP3   OH251733   4.477   6.324  16.443  0.2345 -0.6091 -0.0370
10081TIP3    H151734   4.431   6.360  16.368 -0.0438 -0.2509  0.3002
10081TIP3    H251735   4.564   6.302  16.410  0.5549  0.7434 -0.1595
10082TIP3   OH251736   2.508   0.212  13.093  0.2120  0.4357  0.6339
10082TIP3    H151737   2.583   0.266  13.069  0.1446 -0.1196 -0.9784
10082TIP3    H251738   2.434   0.253  13.048  0.2248 -1.1620 -0.9461
10083TIP3   OH251739   5.769   3.256   3.880  0.5403  0.6112  0.3946
10083TIP3    H151740   5.700   3.274   3.815  1.3083  0.7948 -0.3883
10083TIP3    H251741   5.721   3.230   3.959 -0.4919  1.9966  0.2777
10084TIP3   OH251742   3.085   4.360  15.514 -0.8283 -0.2568  0.6409
10084TIP3    H151743   3.021   4.430  15.504 -1.7097 -1.1045  0.1579
10084TIP3    H251744   3.157   4.385  15.456 -0.6496  0.7672  1.2840
10085TIP3   OH251745   4.381   3.044  15.793  0.0893 -0.3746 -0.5168
10085TIP3    H151746   4.306   2.993  15.823 -0.2318  0.6259  0.4960
10085TIP3    H251747   4.389   3.023  15.700 -0.2383 -1.9669 -0.2217
10086TIP3   OH251748   2.920   4.204  13.886 -0.0729  0.2507 -0.1768
10086TIP3    H151749   2.954   4.116  13.870 -1.6882 -0.4181 -0.0954
10086TIP3    H251750   2.839   4.208  13.835 -1.1894  0.8649  1.5688
10087TIP3   OH251751   6.779   6.663  11.291  0.0458  0.4730 -0.3489
10087TIP3    H151752   6.722   6.590  11.317  2.0113 -1.3879 -0.9396
10087TIP3    H251753   6.830   6.683  11.369  0.7679 -0.0478 -0.6768
10088TIP3   OH251754   2.665   0.084   3.177  0.3350 -0.0402  0.0654
10088TIP3    H151755   2.757   0.098   3.157  0.2295  0.4668 -0.0619
10088TIP3    H251756   2.625   0.170   3.172 -0.4962 -0.4895 -1.6051
10089TIP3   OH251757   5.212   5.981  11.349  0.4084  0.6751  0.2422
10089TIP3    H151758   5.137   5.934  11.383  0.4727  0.0248 -0.4851
10089TIP3    H251759   5.175   6.062  11.312  0.2052  0.8470  0.8177
10090TIP3   OH251760   5.597   6.791  16.949  0.1385  0.3435 -0.2753
10090TIP3    H151761   5.541   6.820  17.021 -1.3979 -0.3259 -1.1352
10090TIP3    H251762   5.584   6.857  16.881  1.2539  0.7470 -0.1146
10091TIP3   OH251763   1.310   0.543  10.794  0.4732  1.0912 -0.0911
10091TIP3    H151764   1.382   0.501  10.748 -0.4350  0.7109 -1.2148
10091TIP3    H251765   1.246   0.473  10.808 -0.2509  1.6933 -0.3173
10092TIP3   OH251766   5.955   6.041   4.754 -0.0080 -0.3095 -0.0112
10092TIP3    H151767   5.863   6.021   4.770  0.1108 -0.3008  0.7247
10092TIP3    H251768   5.997   5.956   4.743  0.1022 -0.3773  0.8651
10093TIP3   OH251769   5.495   5.917   0.692  0.2003 -0.3216 -0.3606
10093TIP3    H151770   5.537   5.910   0.778 -1.1267  0.2098  0.3515
10093TIP3    H251771   5.405   5.942   0.711 -0.3197 -0.9224 -1.8788
10094TIP3   OH251772   0.969   3.029   1.141 -0.3732  0.5256 -0.2032
10094TIP3    H151773   1.012   2.955   1.184 -1.3818 -1.1314 -1.8868
10094TIP3    H251774   0.964   3.097   1.209  0.4208 -0.9914  1.4592
10095TIP3   OH251775   5.009   6.122  11.866 -0.7696 -1.1210  0.0326
10095TIP3    H151776   4.988   6.193  11.927 -1.7345 -1.2017 -0.1884
10095TIP3    H251777   5.070   6.066  11.914  1.3992  0.7335 -0.3747
10096TIP3   OH251778   1.801   6.504   1.040  0.3256 -0.2226  0.3192
10096TIP3    H151779   1.782   6.462   1.124 -1.7753 -0.6116 -0.2850
10096TIP3    H251780   1.761   6.446   0.975 -0.4527  1.4128 -0.7403
10097TIP3   OH251781   4.603   3.427  16.030  0.2498 -0.5104  0.2761
10097TIP3    H151782   4.566   3.432  15.941  0.8719 -2.6475 -0.1499
10097TIP3    H251783   4.527   3.416  16.086 -0.1505  0.8358  0.0534
10098TIP3   OH251784   1.875   2.204  11.459 -0.0224  0.1239  0.1346
10098TIP3    H151785   1.803   2.267  11.464  0.0053  0.0436  1.8876
10098TIP3    H251786   1.883   2.185  11.365  0.4570  3.2776 -0.5731
10099TIP3   OH251787   0.233   1.680   1.245  0.4774 -0.2887  0.0965
10099TIP3    H151788   0.207   1.606   1.299  0.2556 -0.2369  0.0611
10099TIP3    H251789   0.194   1.663   1.160 -1.6703  1.0609  0.7370
10100TIP3   OH251790   2.879   6.255  11.727 -0.1969  0.7655 -0.0872
10100TIP3    H151791   2.889   6.249  11.631 -0.2732  0.1160 -0.0612
10100TIP3    H251792   2.878   6.349  11.745 -0.9125  0.9101 -0.7993
10101TIP3   OH251793   1.037   5.722   4.152  0.4479  0.3633 -0.1156
10101TIP3    H151794   0.986   5.641   4.145  2.4604 -0.9264 -1.1260
10101TIP3    H251795   1.059   5.728   4.245 -0.3440  0.1759  0.0944
10102TIP3   OH251796   2.652   4.748   1.047 -0.0497 -0.3913 -0.4999
10102TIP3    H151797   2.558   4.739   1.031  0.1724 -0.3122 -2.0128
10102TIP3    H251798   2.675   4.832   1.005  0.7467 -0.5485 -0.3957
10103TIP3   OH251799   5.681   3.508   2.707 -0.6382  0.0950 -0.4381
10103TIP3    H151800   5.631   3.580   2.745 -2.0286 -0.0003 -1.9701
10103TIP3    H251801   5.616   3.457   2.659  0.5550 -1.4191 -0.5106
10104TIP3   OH251802   4.538   5.896  11.307 -0.2897  0.4004  0.1362
10104TIP3    H151803   4.613   5.904  11.366  0.9224  0.0547 -1.2878
10104TIP3    H251804   4.477   5.839  11.354  1.0985 -0.7568  0.6273
10105TIP3   OH251805   2.841   1.844  12.907 -0.2668 -0.5571 -0.1769
10105TIP3    H151806   2.767   1.886  12.950  1.4489  1.0767  1.3675
10105TIP3    H251807   2.826   1.858  12.814 -1.1177  1.1606  0.1877
10106TIP3   OH251808   2.913   0.393   4.342 -0.2351  0.2491 -0.0698
10106TIP3    H151809   2.942   0.458   4.278 -0.0905  0.5449  0.2954
10106TIP3    H251810   2.993   0.353   4.375 -0.2644  0.6049  0.4542
10107TIP3   OH251811   4.646   6.315  13.032 -0.2751 -0.2090  0.5732
10107TIP3    H151812   4.706   6.388  13.017 -0.6913  0.1690  0.7220
10107TIP3    H251813   4.632   6.277  12.945  0.3430 -0.4301  0.5697
10108TIP3   OH251814   2.002   2.622   0.310  0.0707 -0.6538 -0.4661
10108TIP3    H151815   2.013   2.604   0.217  0.3823  0.2818 -0.6163
10108TIP3    H251816   1.908   2.614   0.326 -0.1231  0.2967 -1.0992
10109TIP3   OH251817   5.904   6.640  13.933  0.0432  0.2308  0.0886
10109TIP3    H151818   5.888   6.735  13.936  1.3462  0.4865 -0.3186
10109TIP3    H251819   5.823   6.604  13.899 -0.3546  1.2495 -0.0923
10110TIP3   OH251820   5.614   0.979  11.948  0.0944  0.1238 -0.1879
10110TIP3    H151821   5.703   0.952  11.929  0.3795  0.7602  0.2049
10110TIP3    H251822   5.604   0.967  12.043 -0.0903  0.4550 -0.1616
10111TIP3   OH251823   2.116   2.496  13.043  0.0478 -0.2298  0.2402
10111TIP3    H151824   2.117   2.485  12.948 -0.9862 -2.0828  0.4001
10111TIP3    H251825   2.068   2.578  13.057  0.9638  0.5175 -0.8388
10112TIP3   OH251826   6.032   5.766   4.220  0.9088 -0.2159 -0.5185
10112TIP3    H151827   5.992   5.693   4.267 -0.3371  0.1998 -0.9029
10112TIP3    H251828   6.074   5.819   4.288  0.1945 -0.2879 -0.0142
10113TIP3   OH251829   6.644   6.534  13.474  0.2600  0.5879  0.5690
10113TIP3    H151830   6.738   6.546  13.465  0.2620  0.3806  0.3018
10113TIP3    H251831   6.619   6.590  13.547  0.5571  0.7979  0.5080
10114TIP3   OH251832   0.146   4.210  16.372  0.7864 -0.0226 -0.6325
10114TIP3    H151833   0.182   4.150  16.306 -0.0867 -1.0067 -0.2526
10114TIP3    H251834   0.150   4.296  16.332  3.0041 -0.1756 -0.8174
10115TIP3   OH251835   5.571   3.171   1.063 -0.3721 -0.1064  0.6631
10115TIP3    H151836   5.660   3.140   1.049 -0.5193  0.2041 -1.3581
10115TIP3    H251837   5.579   3.246   1.121  0.8417  0.6018 -0.3645
10116TIP3   OH251838   4.307   2.381   0.850 -0.1435  0.0383  0.0628
10116TIP3    H151839   4.368   2.406   0.920 -1.1222 -0.7410  1.2382
10116TIP3    H251840   4.286   2.464   0.807 -0.7264  0.7962  1.7157
10117TIP3   OH251841   6.540   6.014   4.126  0.1462  0.3725  0.2007
10117TIP3    H151842   6.453   5.984   4.098  0.1952  0.1354  0.2949
10117TIP3    H251843   6.523   6.067   4.204 -0.2002  2.8402 -1.4578
10118TIP3   OH251844   2.885   4.133  12.927 -0.2666  0.4323  0.3339
10118TIP3    H151845   2.924   4.202  12.873 -1.2049  0.6143 -0.1329
10118TIP3    H251846   2.841   4.076  12.864  0.1973 -0.4067  0.7494
10119TIP3   OH251847   4.286   1.832   1.869 -0.0312  0.1141 -0.3532
10119TIP3    H151848   4.359   1.777   1.840 -0.4741  0.3686 -2.0747
10119TIP3    H251849   4.236   1.776   1.928  1.4478 -0.1096  0.7605
10120TIP3   OH251850   2.072   4.015   3.270  0.2052 -0.9297  0.1317
10120TIP3    H151851   1.999   4.075   3.255  0.3120 -0.0896  2.4468
10120TIP3    H251852   2.090   3.976   3.185 -1.0816  0.9601 -1.0783
10121TIP3   OH251853   4.082   2.140  12.006 -0.0980  0.1579  0.2685
10121TIP3    H151854   4.058   2.088  12.083  0.5930  1.0435  1.1078
10121TIP3    H251855   4.001   2.186  11.982  0.2437  1.8114  2.0354
10122TIP3   OH251856   4.041   2.290  16.852  0.1474 -0.3109  0.1611
10122TIP3    H151857   4.029   2.303  16.758  0.2051  0.8055  0.3066
10122TIP3    H251858   4.135   2.291  16.865  0.1026  1.0017  0.4297
10123TIP3   OH251859   5.608   5.532   4.187  0.8031 -0.0428 -0.2730
10123TIP3    H151860   5.700   5.505   4.179  0.3016 -1.4766 -1.5531
10123TIP3    H251861   5.559   5.450   4.191 -0.6335  0.6210 -2.4306
10124TIP3   OH251862   0.660   1.464   5.534 -0.7301 -0.5221  0.1564
10124TIP3    H151863   0.722   1.520   5.488 -1.0732  0.3453  0.7191
10124TIP3    H251864   0.637   1.513   5.614 -0.7890 -1.6065  0.8318
10125TIP3   OH251865   0.584   1.191   4.017 -0.0374 -0.2089 -0.0635
10125TIP3    H151866   0.622   1.255   3.958 -0.4805 -0.1224 -0.2525
10125TIP3    H251867   0.657   1.166   4.075  0.5584 -0.7253 -1.0010
10126TIP3   OH251868   3.184   6.766   1.637  0.6969  0.5259  0.1932
10126TIP3    H151869   3.112   6.704   1.647 -0.7994  2.1040 -0.2226
10126TIP3    H251870   3.188   6.784   1.543  0.8030  1.3704  0.3458
10127TIP3   OH251871   0.668   1.409   0.044  0.7864  0.0078 -0.5774
10127TIP3    H151872   0.740   1.346   0.036  2.0970  1.3134  0.4128
10127TIP3    H251873   0.701   1.487  -0.001  1.2507  1.6183  2.3296
10128TIP3   OH251874   4.459   1.603   1.124 -0.2282 -0.1815  0.7093
10128TIP3    H151875   4.516   1.680   1.122  0.5101 -0.7188 -1.1162
10128TIP3    H251876   4.507   1.537   1.073 -1.9628 -1.0453  0.1348
10129TIP3   OH251877   5.004   1.944   3.808  0.1993 -0.0275  0.7382
10129TIP3    H151878   5.045   1.869   3.765  0.0893  0.8637 -0.9862
10129TIP3    H251879   4.938   1.905   3.866 -0.4152 -1.2501 -0.7266
10130TIP3   OH251880   1.559   0.068  11.044  0.5762  0.2837 -0.3149
10130TIP3    H151881   1.613   0.147  11.052  0.6281  0.4591 -1.9914
10130TIP3    H251882   1.517   0.059  11.129  1.0224  1.7854  0.0971
10131TIP3   OH251883   2.734   1.113  13.908  0.1821  0.3721 -0.8397
10131TIP3    H151884   2.792   1.183  13.937  0.2814 -0.9056  2.4294
10131TIP3    H251885   2.677   1.096  13.983 -0.5943 -2.2937 -1.9101
10132TIP3   OH251886   2.191   6.834  13.841  0.4374 -0.2136 -0.3404
10132TIP3    H151887   2.176   6.863  13.931  1.2830  0.6851 -0.4636
10132TIP3    H251888   2.282   6.859  13.823  0.8453 -1.9344 -0.8774
10133TIP3   OH251889   1.554   3.409  16.416  0.4118  0.0953  0.0851
10133TIP3    H151890   1.514   3.464  16.483 -1.1249 -0.8798  0.0194
10133TIP3    H251891   1.595   3.338  16.466  1.4551  0.6866  0.1048
10134TIP3   OH251892   5.703   5.467  12.521 -0.3628 -0.1822 -0.0727
10134TIP3    H151893   5.787   5.440  12.559 -0.5318 -0.1277  0.3467
10134TIP3    H251894   5.647   5.486  12.597 -0.2904  1.2296 -0.3406
10135TIP3   OH251895   1.832   1.961  13.955 -0.3921 -0.4498 -0.5172
10135TIP3    H151896   1.890   1.887  13.972 -0.4797 -0.2250  0.8756
10135TIP3    H251897   1.881   2.038  13.983  0.7787  0.4357 -4.3590
10136TIP3   OH251898   0.864   2.706  13.368  0.0451  0.7299  0.3016
10136TIP3    H151899   0.917   2.777  13.333 -0.5706  0.7223 -0.6711
10136TIP3    H251900   0.868   2.637  13.302  0.4307 -0.0486  1.1172
10137TIP3   OH251901   0.987   3.881   5.896  0.2570 -0.5636  0.1898
10137TIP3    H151902   0.921   3.846   5.956  1.1879 -1.8537  0.5023
10137TIP3    H251903   1.067   3.887   5.948 -0.0990  3.5230  0.6089
10138TIP3   OH251904   5.226   1.757  12.473  0.0594  0.3230  0.1192
10138TIP3    H151905   5.244   1.851  12.468  0.9691  0.0899 -2.2208
10138TIP3    H251906   5.311   1.717  12.489  0.4328 -0.2876 -2.8792
10139TIP3   OH251907   4.269   0.780   0.594  0.5613  0.2513  0.1504
10139TIP3    H151908   4.228   0.803   0.510 -1.2520 -2.0491  0.2996
10139TIP3    H251909   4.202   0.800   0.659  0.7810 -0.7659  0.7095
10140TIP3   OH251910   6.051   5.897   0.787 -0.2378 -0.2860  0.4325
10140TIP3    H151911   6.007   5.944   0.716  0.8632  2.7507  1.5913
10140TIP3    H251912   6.142   5.890   0.759  0.0929  0.4490  1.2509
10141TIP3   OH251913   0.744   6.439   1.306 -0.2696 -0.1227  0.5281
10141TIP3    H151914   0.659   6.483   1.311 -0.9491 -1.1577 -1.1728
10141TIP3    H251915   0.791   6.484   1.236 -0.4752 -1.2240 -0.3470
10142TIP3   OH251916   5.803   0.703   4.900 -0.1890  0.0700 -0.4134
10142TIP3    H151917   5.821   0.688   4.807  1.2629 -2.3977  0.1665
10142TIP3    H251918   5.725   0.758   4.902 -0.7514 -0.5293 -3.0754
10143TIP3   OH251919   4.803   5.109  10.987 -0.2408  0.1136 -0.3541
10143TIP3    H151920   4.750   5.056  10.928  1.8011 -1.8469 -0.5741
10143TIP3    H251921   4.884   5.126  10.938  1.0889 -0.6960  1.4195
10144TIP3   OH251922   2.122   3.602   2.446 -0.4158  0.1949 -0.2013
10144TIP3    H151923   2.079   3.541   2.507  0.4279  0.0638  0.2868
10144TIP3    H251924   2.051   3.644   2.399 -1.1420  0.7596  1.3279
10145TIP3   OH251925   1.771   6.113  15.946  0.1490  0.5269 -0.0742
10145TIP3    H151926   1.720   6.035  15.971 -0.5234  0.4027 -1.6888
10145TIP3    H251927   1.761   6.173  16.020 -1.1795 -0.0757  0.2697
10146TIP3   OH251928   2.284   0.195  14.285  0.2580  0.3013 -0.2374
10146TIP3    H151929   2.226   0.258  14.327  0.0729 -1.0153  1.6233
10146TIP3    H251930   2.356   0.248  14.250 -1.7448  1.9189 -2.1883
10147TIP3   OH251931   2.218   5.613  14.809 -0.2712 -0.4232 -0.0059
10147TIP3    H151932   2.222   5.547  14.740  0.0007 -0.1315 -0.2747
10147TIP3    H251933   2.310   5.631  14.830 -0.3443 -0.1790  0.1111
10148TIP3   OH251934   2.206   0.532   5.759  0.2962  0.6716  0.3041
10148TIP3    H151935   2.256   0.589   5.816 -1.2919  1.1267  1.3268
10148TIP3    H251936   2.118   0.570   5.758 -0.6747 -1.3965  0.5613
10149TIP3   OH251937   0.864   0.911  13.870  0.1532  0.1814 -0.0109
10149TIP3    H151938   0.810   0.854  13.815  0.9033 -0.7435  0.1669
10149TIP3    H251939   0.819   0.913  13.954 -0.7399  1.2006 -0.4939
10150TIP3   OH251940   3.836   5.693  12.158  0.3098  0.2010 -0.2336
10150TIP3    H151941   3.851   5.778  12.200  1.0010  0.2740 -0.6098
10150TIP3    H251942   3.756   5.705  12.107 -0.6268  0.0735  1.1472
10151TIP3   OH251943   5.289   0.393   3.954  1.1723 -0.1648  0.2806
10151TIP3    H151944   5.331   0.466   3.998 -0.2704  2.2459 -2.0606
10151TIP3    H251945   5.338   0.383   3.872  0.9967 -1.4842  0.3069
10152TIP3   OH251946   2.223   2.157   0.275  0.0827  0.1763 -0.4352
10152TIP3    H151947   2.251   2.067   0.259  0.9290 -0.0778  2.0595
10152TIP3    H251948   2.206   2.161   0.369  0.5587  2.7599 -0.3770
10153TIP3   OH251949   4.513   5.305   3.919  0.0273 -0.7320  0.0536
10153TIP3    H151950   4.532   5.316   3.826  0.2620 -1.7974 -0.0352
10153TIP3    H251951   4.443   5.369   3.936  1.4557  1.0221 -0.3279
10154TIP3   OH251952   6.145   4.729   5.578 -0.6022 -0.3870 -0.3021
10154TIP3    H151953   6.057   4.743   5.613 -0.8405 -0.2943 -0.9111
10154TIP3    H251954   6.136   4.651   5.523  0.5023 -2.5325  2.3752
10155TIP3   OH251955   2.500   4.013  12.716  0.5189 -0.3578 -0.3980
10155TIP3    H151956   2.477   4.060  12.796  1.0945 -1.4922  0.4645
10155TIP3    H251957   2.498   4.079  12.648 -0.1244  0.6106  0.5293
10156TIP3   OH251958   0.197   6.436   2.470  0.6316 -0.2136  0.6506
10156TIP3    H151959   0.286   6.470   2.476  0.5542 -0.0531  0.8955
10156TIP3    H251960   0.206   6.357   2.416  0.3515  1.7453 -2.5186
10157TIP3   OH251961   1.477   6.805  15.084  0.1881  0.6076 -0.6793
10157TIP3    H151962   1.475   6.763  15.170  0.3726 -0.3943 -1.1550
10157TIP3    H251963   1.561   6.778  15.047 -0.3960  0.0739 -1.6453
10158TIP3   OH251964   4.150   2.915  11.732  0.3848 -0.0060 -0.4037
10158TIP3    H151965   4.080   2.978  11.745  1.0503  0.5798  0.4299
10158TIP3    H251966   4.183   2.933  11.644 -0.5446 -0.3246 -0.8189
10159TIP3   OH251967   6.736   4.053   3.544 -0.0924 -0.1478 -0.3087
10159TIP3    H151968   6.780   4.106   3.478  1.9049 -1.5287 -0.1706
10159TIP3    H251969   6.789   4.064   3.623 -1.2446 -0.1805  0.4910
10160TIP3   OH251970   3.426   0.737   2.199  0.2858  0.1838  0.3104
10160TIP3    H151971   3.380   0.820   2.210  2.6362  1.8999 -1.4713
10160TIP3    H251972   3.397   0.705   2.114  0.0396 -0.3936  0.6060
10161TIP3   OH251973   1.214   1.906   1.548  0.0790 -0.2138 -0.1306
10161TIP3    H151974   1.213   1.972   1.480 -0.5532 -0.4224 -0.3303
10161TIP3    H251975   1.279   1.842   1.519 -0.8968 -0.8252 -1.0615
10162TIP3   OH251976   6.135   0.484  12.700  0.5334  0.1650  0.3994
10162TIP3    H151977   6.134   0.577  12.675 -0.4416 -0.2749 -1.4163
10162TIP3    H251978   6.049   0.451  12.672  1.3833 -1.5807 -0.2766
10163TIP3   OH251979   5.956   3.629   2.357 -0.4145 -0.3777 -0.0197
10163TIP3    H151980   5.865   3.657   2.342 -0.0313  0.7397 -0.3140
10163TIP3    H251981   5.973   3.565   2.287 -0.2542  1.1071 -1.3965
10164TIP3   OH251982   3.920   5.738  14.572  0.3005  0.7769 -0.2545
10164TIP3    H151983   3.882   5.725  14.659  2.1012  2.1592  0.8125
10164TIP3    H251984   3.851   5.783  14.523 -1.8789 -2.6189 -0.6147
10165TIP3   OH251985   3.264   6.339  14.244  0.0752  0.3074  0.9414
10165TIP3    H151986   3.232   6.289  14.168  1.2950  0.2756  0.4262
10165TIP3    H251987   3.199   6.322  14.312 -1.4738  0.9611 -0.2997
10166TIP3   OH251988   5.489   1.566   1.224  0.4641 -0.0885  0.0160
10166TIP3    H151989   5.474   1.518   1.306 -0.4699  0.2277  0.0394
10166TIP3    H251990   5.585   1.567   1.214  0.5561 -0.7236  0.7445
10167TIP3   OH251991   3.872   2.747   4.643 -1.1857  0.1616 -0.2885
10167TIP3    H151992   3.957   2.725   4.605 -0.7355 -0.2229  0.9028
10167TIP3    H251993   3.860   2.684   4.714 -1.0458  2.1025  1.5553
10168TIP3   OH251994   3.785   3.437   0.981  0.3573  0.2059  0.6231
10168TIP3    H151995   3.843   3.498   0.936  0.7099  0.1221  0.9623
10168TIP3    H251996   3.830   3.353   0.978  0.0956  0.0649  0.5832
10169TIP3   OH251997   5.235   2.141  14.071  0.0044  0.1124 -0.3221
10169TIP3    H151998   5.263   2.078  14.005  1.4334 -0.7970  1.0836
10169TIP3    H251999   5.206   2.088  14.145  1.7590  1.0185  1.1138
10170TIP3   OH252000   6.738   6.244   3.698 -0.4983  0.3452  0.2643
10170TIP3    H152001   6.734   6.336   3.724 -1.0016  0.6803 -0.9296
10170TIP3    H252002   6.730   6.195   3.780 -1.7621  1.3485  0.7694
10171TIP3   OH252003   6.135   1.081   4.376 -0.2085 -0.1459 -0.1002
10171TIP3    H152004   6.052   1.039   4.398  0.8629 -1.1191  2.4309
10171TIP3    H252005   6.157   1.047   4.289 -1.4596 -1.4359  0.0511
10172TIP3   OH252006   3.836   3.232   3.192  0.4145 -0.7646  0.7284
10172TIP3    H152007   3.758   3.230   3.249  0.0369 -1.5277  0.1926
10172TIP3    H252008   3.802   3.213   3.105  1.0538  0.0064  0.3057
10173TIP3   OH252009   6.319   6.645  10.560 -0.3395 -0.0156 -0.0180
10173TIP3    H152010   6.340   6.630  10.652 -0.1515  1.3850  0.1852
10173TIP3    H252011   6.224   6.646  10.556 -0.4205  3.2003  0.7883
10174TIP3   OH252012   2.435   2.888   4.688 -0.1636  0.7375  0.2819
10174TIP3    H152013   2.449   2.979   4.714  0.9415  0.2796  1.4119
10174TIP3    H252014   2.369   2.856   4.749  0.5001  0.3999  0.8396
10175TIP3   OH252015   6.681   4.472  14.655 -0.3035  0.2169  0.6082
10175TIP3    H152016   6.605   4.452  14.710 -0.4355  0.8129  0.6405
10175TIP3    H252017   6.694   4.392  14.603 -2.4504  0.9290 -1.1832
10176TIP3   OH252018   2.631   0.751   1.012 -0.0732  0.2363 -0.2581
10176TIP3    H152019   2.657   0.776   1.100  1.5676  1.6936 -1.0998
10176TIP3    H252020   2.588   0.666   1.023  0.5539  0.1370  1.8532
10177TIP3   OH252021   5.597   2.206  15.123 -0.0161  0.4991 -0.1348
10177TIP3    H152022   5.668   2.240  15.069  1.2605  0.8149  1.6517
10177TIP3    H252023   5.536   2.279  15.132  0.2902  0.7708 -0.2738
10178TIP3   OH252024   3.939   2.672   6.197 -0.1545  0.3965  0.0085
10178TIP3    H152025   3.882   2.694   6.271 -2.2144 -0.0854 -1.3562
10178TIP3    H252026   3.943   2.577   6.198  0.4597  0.4185 -0.0582
10179TIP3   OH252027   6.033   1.281   3.474 -0.7252 -0.2548 -0.0798
10179TIP3    H152028   5.955   1.319   3.513 -0.9610 -0.3982 -0.4022
10179TIP3    H252029   6.093   1.266   3.547 -0.9351  0.0077  0.1453
10180TIP3   OH252030   5.499   4.974  14.549 -0.1759  0.8986 -0.0685
10180TIP3    H152031   5.452   4.895  14.573  0.7994 -0.2118 -1.6035
10180TIP3    H252032   5.549   4.998  14.627 -1.7202  0.9754  0.9334
10181TIP3   OH252033   3.799   4.474  16.528 -0.4139  0.1833  0.0452
10181TIP3    H152034   3.846   4.443  16.606 -0.1789  1.2719  0.3454
10181TIP3    H252035   3.836   4.423  16.456  0.9435  0.7212  0.3323
10182TIP3   OH252036   1.819   6.684  14.302 -0.7842 -0.4477 -0.2228
10182TIP3    H152037   1.779   6.641  14.377  0.5128  2.2306  2.1948
10182TIP3    H252038   1.882   6.619  14.268 -1.6814 -1.8576  0.7187
10183TIP3   OH252039   1.536   4.400  14.438 -0.0256 -0.2055  0.2153
10183TIP3    H152040   1.468   4.333  14.443  0.4743 -0.6321  3.2465
10183TIP3    H252041   1.488   4.483  14.435 -0.6876 -0.5563  0.9143
10184TIP3   OH252042   2.050   0.245  16.285 -0.4891 -0.1383  0.4983
10184TIP3    H152043   2.065   0.282  16.372  2.3627  0.0629  0.0181
10184TIP3    H252044   2.127   0.191  16.268 -0.4287  0.6769 -2.3119
10185TIP3   OH252045   1.592   2.909   2.538  0.4340  0.8737  0.2795
10185TIP3    H152046   1.508   2.878   2.503  2.1739 -0.2168 -3.4882
10185TIP3    H252047   1.625   2.835   2.589 -0.6650  1.1659  1.4544
10186TIP3   OH252048   2.604   0.032   4.855  0.7585  0.7607  0.4244
10186TIP3    H152049   2.612   0.110   4.909  0.7186  0.7954  0.3792
10186TIP3    H252050   2.654  -0.035   4.902 -1.1090  0.1600  1.6632
10187TIP3   OH252051   1.010   2.281  15.273  0.2679 -0.0285 -0.1881
10187TIP3    H152052   1.000   2.319  15.185  0.8528 -0.1765 -0.3222
10187TIP3    H252053   0.957   2.201  15.271  0.1349  0.0639 -0.3489
10188TIP3   OH252054   3.889   1.222  14.630  0.0966 -0.2453 -0.1470
10188TIP3    H152055   3.875   1.171  14.710 -0.9558  0.6677  0.2715
10188TIP3    H252056   3.840   1.175  14.562  0.8932 -0.9540 -0.2512
10189TIP3   OH252057   5.283   5.364  11.969 -0.6058  0.0817  0.3415
10189TIP3    H152058   5.280   5.310  11.891  0.9767 -1.7977  1.4839
10189TIP3    H252059   5.275   5.302  12.042  0.8045  1.3943  1.7064
10190TIP3   OH252060   2.553   1.605  12.944  0.2871  0.5620 -0.1582
10190TIP3    H152061   2.630   1.549  12.942  0.3588  0.6691 -1.4036
10190TIP3    H252062   2.544   1.632  13.035 -0.4542 -2.4307  0.7467
10191TIP3   OH252063   3.332   4.083   0.310  0.2280  0.4601  0.1938
10191TIP3    H152064   3.376   4.014   0.359 -0.0573 -1.0799 -1.6133
10191TIP3    H252065   3.400   4.118   0.251 -0.1015  0.4586 -0.1874
10192TIP3   OH252066   0.606   2.116  15.418  0.0280 -0.2952 -0.1231
10192TIP3    H152067   0.614   2.177  15.345 -1.6759 -0.1747 -0.2528
10192TIP3    H252068   0.622   2.030  15.380  2.2506 -0.0083  0.0199
10193TIP3   OH252069   6.360   3.913  15.589 -0.5744 -0.1227  0.3551
10193TIP3    H152070   6.318   3.837  15.629 -1.3923 -0.3168 -0.8229
10193TIP3    H252071   6.452   3.904  15.613 -0.9189 -0.5513  1.6507
10194TIP3   OH252072   5.043   5.662  13.638  0.1366  0.4017 -0.0786
10194TIP3    H152073   5.055   5.674  13.544 -1.8552  0.0898 -0.4179
10194TIP3    H252074   4.991   5.582  13.646  2.1266 -0.8342  1.4414
10195TIP3   OH252075   1.269   5.569  13.788  0.5902 -0.3405  0.2361
10195TIP3    H152076   1.225   5.600  13.868  0.6409 -0.6814  0.3986
10195TIP3    H252077   1.201   5.574  13.721  0.8363  0.9751  0.0467
10196TIP3   OH252078   4.405   2.870   6.005 -0.2678  0.2853 -0.3339
10196TIP3    H152079   4.382   2.790   6.051 -0.6038  1.1006  0.9880
10196TIP3    H252080   4.402   2.938   6.073  0.2469  1.3727 -1.3613
10197TIP3   OH252081   4.249   0.059   0.704  0.2005 -0.1418 -0.5477
10197TIP3    H152082   4.261   0.016   0.620  1.6586  0.9850 -0.9642
10197TIP3    H252083   4.177   0.120   0.690 -0.3112 -0.7675 -0.6406
10198TIP3   OH252084   2.437   1.555   3.335  0.3104  0.6249 -0.0019
10198TIP3    H152085   2.384   1.489   3.291 -0.0279  0.2314  0.9704
10198TIP3    H252086   2.509   1.506   3.374  2.0346  1.2677 -2.1553
10199TIP3   OH252087   3.581   1.321  12.789  0.1069 -0.1986  0.3873
10199TIP3    H152088   3.612   1.407  12.759 -0.5046 -0.1923 -0.2477
10199TIP3    H252089   3.569   1.332  12.883  0.1424  0.3840  0.3295
10200TIP3   OH252090   1.870   5.404  14.410 -0.0426  0.1861  0.9301
10200TIP3    H152091   1.937   5.465  14.380 -0.4776  0.8457  1.2902
10200TIP3    H252092   1.883   5.399  14.505  0.3631 -0.7349  0.8410
10201TIP3   OH252093   0.140   5.432  16.393 -0.7884  0.1465 -0.1045
10201TIP3    H152094   0.057   5.479  16.400 -0.2063  1.0830  0.7912
10201TIP3    H252095   0.143   5.402  16.302 -2.1270  0.0399 -0.1305
10202TIP3   OH252096   0.179   2.703  12.701 -0.6660  0.4492 -0.4591
10202TIP3    H152097   0.226   2.637  12.650 -1.2238  0.5598 -1.1311
10202TIP3    H252098   0.111   2.735  12.642  0.6651  2.8952 -0.8299
10203TIP3   OH252099   3.730   6.401   3.908  0.2874  0.4317 -0.5275
10203TIP3    H152100   3.635   6.399   3.910  0.2444 -3.1645  0.9131
10203TIP3    H252101   3.756   6.419   3.999  0.9647  0.2358 -0.6748
10204TIP3   OH252102   2.484   6.252  11.211 -0.5591 -0.2654 -0.0213
10204TIP3    H152103   2.533   6.293  11.140 -0.5680 -0.0860  0.0744
10204TIP3    H252104   2.414   6.204  11.167 -1.6633  1.3100 -0.0644
10205TIP3   OH252105   5.767   5.808   2.987 -0.2039  0.6322 -0.2771
10205TIP3    H152106   5.696   5.848   3.037  0.3074  1.4950 -0.2437
10205TIP3    H252107   5.734   5.720   2.968 -2.4144  1.8030 -2.4837
10206TIP3   OH252108   5.918   2.631   4.655 -0.2285  0.4585  0.0767
10206TIP3    H152109   5.979   2.636   4.729 -0.4817  1.6752  0.2222
10206TIP3    H252110   5.891   2.721   4.640 -0.0174  0.2599 -1.6629
10207TIP3   OH252111   4.588   3.158  13.868  0.3480 -0.1414 -0.2679
10207TIP3    H152112   4.507   3.150  13.918  0.4991 -0.0736 -0.0106
10207TIP3    H252113   4.599   3.253  13.856  0.2396 -0.1614 -0.5536
10208TIP3   OH252114   3.436   4.346   2.316 -0.1968 -0.0271 -0.2644
10208TIP3    H152115   3.519   4.394   2.314  0.3129 -0.8763 -0.0238
10208TIP3    H252116   3.458   4.258   2.286 -0.6703 -0.7315  1.3190
10209TIP3   OH252117   1.613   2.697   5.355 -0.0851 -0.2878 -0.0660
10209TIP3    H152118   1.593   2.775   5.407 -0.8415 -0.8603  0.5228
10209TIP3    H252119   1.544   2.694   5.289  0.3418 -0.0782 -0.5228
10210TIP3   OH252120   1.907   2.012  16.390  0.0009  0.1360 -0.0077
10210TIP3    H152121   1.941   2.090  16.346  0.1111 -0.3914 -0.8856
10210TIP3    H252122   1.812   2.017  16.377 -0.0476  0.4267  0.4499
10211TIP3   OH252123   1.837   1.620   5.113 -0.3841  0.5113 -0.1463
10211TIP3    H152124   1.774   1.548   5.111 -1.1357  1.1520  0.0090
10211TIP3    H252125   1.905   1.590   5.174 -0.5717 -0.1578 -0.2556
10212TIP3   OH252126   5.968   0.069  12.749 -0.0185 -0.4752  0.2340
10212TIP3    H152127   6.007   0.094  12.666 -0.9259  1.5725  0.3628
10212TIP3    H252128   5.899   0.007  12.726 -0.3948  0.2259 -0.5716
10213TIP3   OH252129   2.779   3.564   3.013  0.0571 -0.3619 -0.1642
10213TIP3    H152130   2.852   3.550   2.952 -1.0226 -2.6503 -1.0611
10213TIP3    H252131   2.703   3.578   2.956 -0.4453  0.6884  0.7422
10214TIP3   OH252132   2.349   3.760  14.534  0.2519 -0.2648 -0.3152
10214TIP3    H152133   2.417   3.826  14.546  0.4379 -0.4224 -0.4939
10214TIP3    H252134   2.363   3.727  14.445  0.6874 -1.1477  0.0764
10215TIP3   OH252135   3.711   3.999   0.661  0.0739  0.3229  0.4045
10215TIP3    H152136   3.771   3.968   0.728  0.7420 -0.0207 -0.3300
10215TIP3    H252137   3.764   4.003   0.581 -1.3087 -1.8726 -0.7226
10216TIP3   OH252138   2.442   2.360   5.169  0.9876  0.2488 -0.2928
10216TIP3    H152139   2.380   2.409   5.115  0.3122 -0.0437  0.2107
10216TIP3    H252140   2.410   2.270   5.167  0.8096  0.2723  0.7819
10217TIP3   OH252141   4.096   3.303   4.936 -0.0372 -0.0683 -0.2918
10217TIP3    H152142   4.176   3.277   4.980  0.5191  1.0117 -0.6337
10217TIP3    H252143   4.067   3.224   4.890 -0.4495 -1.1160  1.6763
10218TIP3   OH252144   3.248   5.966  12.013  0.3486 -0.0734 -0.0298
10218TIP3    H152145   3.195   5.948  12.090  0.4948  1.4021  0.4433
10218TIP3    H252146   3.213   6.047  11.977  0.6208 -0.4618 -1.2199
10219TIP3   OH252147   2.900   5.773   3.931 -0.0920 -0.5161 -0.1593
10219TIP3    H152148   2.882   5.731   4.015 -1.1889 -1.0869 -0.6626
10219TIP3    H252149   2.912   5.865   3.953 -0.5830 -0.6227  0.6064
10220TIP3   OH252150   2.017   6.378  12.492 -0.5295 -0.4323  0.4031
10220TIP3    H152151   2.044   6.293  12.456 -1.1865 -0.7890  0.7279
10220TIP3    H252152   2.022   6.438  12.417  0.9624 -0.5122  0.4166
10221TIP3   OH252153   0.579   6.375   0.843 -0.1227  0.3354  0.2682
10221TIP3    H152154   0.590   6.340   0.932 -1.1769  1.4358  0.8555
10221TIP3    H252155   0.518   6.314   0.801 -0.5740  0.4846  0.7046
10222TIP3   OH252156   3.620   5.341   5.350 -0.0311 -0.0237 -1.0621
10222TIP3    H152157   3.647   5.402   5.419  0.9312  0.6592 -1.9986
10222TIP3    H252158   3.695   5.283   5.339 -0.0857  0.0219 -1.6911
10223TIP3   OH252159   1.027   5.088  11.428 -0.3522 -0.2101 -0.2287
10223TIP3    H152160   0.964   5.045  11.486 -0.8245 -0.2223 -0.7490
10223TIP3    H252161   1.089   5.018  11.404  0.5012  0.0401  1.1325
10224TIP3   OH252162   3.511   0.459  10.628 -0.4140  0.4196  0.0006
10224TIP3    H152163   3.455   0.523  10.673 -0.9774  1.0843 -1.5352
10224TIP3    H252164   3.591   0.507  10.608  0.0731 -0.0480  0.7836
10225TIP3   OH252165   0.434   2.065   2.366 -0.3885  0.2935  0.3279
10225TIP3    H152166   0.407   1.991   2.420  1.2629 -1.2412 -0.8286
10225TIP3    H252167   0.364   2.073   2.300 -0.8234  0.1119  0.7605
10226TIP3   OH252168   1.814   3.630  11.373  0.1844 -0.8379 -0.0670
10226TIP3    H152169   1.734   3.671  11.340  0.4433 -1.0329 -0.9494
10226TIP3    H252170   1.868   3.704  11.403  0.9635 -0.4039 -2.3370
10227TIP3   OH252171   3.662   1.998  15.305  0.0222 -0.2562 -0.2260
10227TIP3    H152172   3.596   2.034  15.365  0.9459 -0.4155  0.9274
10227TIP3    H252173   3.623   1.917  15.273 -0.6567  0.0390 -0.1709
10228TIP3   OH252174   1.300   4.836   4.505 -0.4442 -0.0948 -0.2359
10228TIP3    H152175   1.330   4.772   4.569 -0.5657 -1.6021 -1.6251
10228TIP3    H252176   1.378   4.889   4.486 -0.3518  0.2199  0.9559
10229TIP3   OH252177   5.491   0.367  16.777 -0.3363 -0.3232 -0.5619
10229TIP3    H152178   5.499   0.364  16.682  3.6508 -1.4726 -0.3967
10229TIP3    H252179   5.541   0.444  16.803  3.0799 -2.6403  0.5971
10230TIP3   OH252180   0.332   4.394   0.186 -0.1903  0.0673 -0.1942
10230TIP3    H152181   0.254   4.390   0.132 -1.1981 -0.9853  1.2534
10230TIP3    H252182   0.377   4.311   0.170  0.4638  0.5106 -0.7377
10231TIP3   OH252183   2.992   0.809  12.800  0.1035  0.0744 -0.0635
10231TIP3    H152184   2.958   0.739  12.744 -0.4180 -0.1618  0.5339
10231TIP3    H252185   2.957   0.789  12.886  0.4814  0.7214  0.2444
10232TIP3   OH252186   6.790   6.289  11.552 -0.4633  0.3238 -0.2504
10232TIP3    H152187   6.721   6.295  11.619  0.5957 -0.9302  1.0228
10232TIP3    H252188   6.825   6.201  11.563  0.7588  0.6375 -1.4710
10233TIP3   OH252189   1.922   0.394  13.354 -0.0363  0.1901  0.7949
10233TIP3    H152190   1.947   0.395  13.447 -0.1591 -4.4914  1.1388
10233TIP3    H252191   1.846   0.336  13.351  0.5952 -0.6255 -2.3116
10234TIP3   OH252192   2.235   1.537  13.135  0.4700  0.1831 -0.1118
10234TIP3    H152193   2.304   1.496  13.083  0.6030 -0.0671  0.2597
10234TIP3    H252194   2.197   1.465  13.185 -0.6256  0.1623 -0.9430
10235TIP3   OH252195   1.833   1.842  15.578  0.3501  0.0563 -0.4412
10235TIP3    H152196   1.841   1.754  15.615 -1.2775  0.2817  0.5490
10235TIP3    H252197   1.749   1.841  15.533 -0.8401  1.7329  1.5576
10236TIP3   OH252198   5.666   6.464   3.311  0.1818 -0.4665 -0.1343
10236TIP3    H152199   5.737   6.491   3.369 -0.7278 -1.0330  1.2829
10236TIP3    H252200   5.677   6.369   3.303  0.3777 -0.3766 -1.0219
10237TIP3   OH252201   1.315   0.147  16.605 -0.1622  0.0305 -0.1946
10237TIP3    H152202   1.386   0.145  16.541  0.4878 -1.6111  0.5199
10237TIP3    H252203   1.328   0.228  16.654  0.7868  0.0918 -0.5445
10238TIP3   OH252204   2.581   2.798  14.655  0.3636  0.0767 -0.2817
10238TIP3    H152205   2.495   2.790  14.697  0.8096  1.7988  1.0951
10238TIP3    H252206   2.570   2.757  14.569 -1.1839 -1.7317  0.7014
10239TIP3   OH252207   3.092   5.227  10.759  0.8087  0.4894  0.2983
10239TIP3    H152208   3.002   5.260  10.747 -0.2121 -1.6774  1.4427
10239TIP3    H252209   3.136   5.249  10.677 -2.0787 -2.3318 -2.2803
10240TIP3   OH252210   5.455   5.578  12.665 -0.4308  0.1025  0.4563
10240TIP3    H152211   5.453   5.618  12.752 -0.9776 -0.2560  0.6178
10240TIP3    H252212   5.408   5.495  12.677 -0.5845  0.0966 -0.2029
10241TIP3   OH252213   5.891   1.737   0.547  0.6083 -0.8726  0.5644
10241TIP3    H152214   5.902   1.673   0.617 -0.5610 -2.7748 -0.8804
10241TIP3    H252215   5.942   1.702   0.474  1.5555  0.9044  0.3320
10242TIP3   OH252216   6.682   6.746   3.864 -0.2081 -0.7775  0.2774
10242TIP3    H152217   6.668   6.822   3.808  0.1807  0.3722  1.6990
10242TIP3    H252218   6.660   6.776   3.952 -0.6740 -2.5075  0.7870
10243TIP3   OH252219   0.079   2.456   3.346  0.8649 -0.5946  0.6276
10243TIP3    H152220   0.155   2.473   3.290 -0.7640 -0.1951 -1.5918
10243TIP3    H252221   0.043   2.374   3.313  0.6330 -1.0863  2.0398
10244TIP3   OH252222   0.172   2.386  16.103 -0.4321 -0.0713  0.1246
10244TIP3    H152223   0.168   2.291  16.112  0.8891 -0.2461 -0.8652
10244TIP3    H252224   0.080   2.413  16.091 -0.5966 -1.6264 -3.0116
10245TIP3   OH252225   1.556   1.318   5.270  0.0305 -0.3873 -1.2040
10245TIP3    H152226   1.569   1.360   5.184  1.1662  2.5951  0.2690
10245TIP3    H252227   1.482   1.364   5.308 -0.4161 -1.6389 -0.5064
10246TIP3   OH252228   1.688   2.544  17.085 -0.2177  0.5942 -0.5555
10246TIP3    H152229   1.733   2.493  17.018 -2.4543  1.6029 -3.0006
10246TIP3    H252230   1.727   2.631  17.080  1.5775  0.0040  1.5783
10247TIP3   OH252231   6.022   6.053   3.661 -0.5442  0.3043 -0.1277
10247TIP3    H152232   5.999   5.991   3.592  1.6839  0.3114 -0.9662
10247TIP3    H252233   5.996   6.009   3.742  1.4341 -2.0343 -0.6448
10248TIP3   OH252234   6.645   3.449  13.611  0.3346 -0.0749 -0.1700
10248TIP3    H152235   6.729   3.421  13.576  0.4725  0.5463 -0.3647
10248TIP3    H252236   6.592   3.370  13.614  1.3358 -0.7158  1.1778
10249TIP3   OH252237   0.138   2.703  15.267  0.1520  0.4584  0.0997
10249TIP3    H152238   0.200   2.631  15.276  1.1026  1.3619  1.0564
10249TIP3    H252239   0.175   2.774  15.319 -0.9004  1.5562 -0.5757
10250TIP3   OH252240   6.836   4.194   1.473  0.5953  0.1074 -0.1245
10250TIP3    H152241   6.893   4.177   1.398  0.8545 -0.0288  0.1035
10250TIP3    H252242   6.853   4.286   1.496  0.0975  0.3185 -0.5872
10251TIP3   OH252243   3.202   2.247  12.915  0.5664 -0.1480 -0.0093
10251TIP3    H152244   3.133   2.193  12.878  1.5061 -1.1177 -0.4155
10251TIP3    H252245   3.156   2.316  12.963 -0.7142 -1.9238  1.4609
10252TIP3   OH252246   3.092   6.795  15.431  0.4307 -0.1889  0.8047
10252TIP3    H152247   3.100   6.701  15.414  1.5891 -0.3729  2.1911
10252TIP3    H252248   3.169   6.817  15.483  0.0966  1.5100  0.6517
10253TIP3   OH252249   2.291   6.602  16.667  0.5465  0.3476 -0.4117
10253TIP3    H152250   2.343   6.557  16.733  1.6117 -0.0523 -1.4848
10253TIP3    H252251   2.234   6.661  16.717 -0.3746 -1.6119  0.9974
10254TIP3   OH252252   5.192   5.489  15.832  0.2106 -0.7524 -0.3043
10254TIP3    H152253   5.101   5.461  15.822  0.4436 -1.8494  0.4386
10254TIP3    H252254   5.207   5.549  15.758 -1.6000  0.8073  0.5100
10255TIP3   OH252255   4.907   2.440   0.220 -0.9803 -0.4558 -0.1639
10255TIP3    H152256   4.986   2.474   0.263 -0.6288 -1.3819 -0.0662
10255TIP3    H252257   4.936   2.415   0.132 -1.3244 -0.1649 -0.3646
10256TIP3   OH252258   2.632   5.377  14.794 -0.0131 -0.1998 -0.4311
10256TIP3    H152259   2.540   5.385  14.820 -0.0619 -0.5589 -0.4884
10256TIP3    H252260   2.631   5.384  14.699 -0.0761 -1.0200 -0.4970
10257TIP3   OH252261   2.037   6.602   1.940 -0.5137  0.2813 -0.0096
10257TIP3    H152262   2.132   6.597   1.950 -0.7172 -1.4326  1.9539
10257TIP3    H252263   2.023   6.634   1.851  1.9072 -1.2376 -1.0442
10258TIP3   OH252264   4.371   3.765   1.363  0.3874  0.6076  0.1005
10258TIP3    H152265   4.330   3.840   1.406 -0.4752  2.3149 -3.3182
10258TIP3    H252266   4.456   3.798   1.334  0.6585 -0.2575 -0.1061
10259TIP3   OH252267   5.623   2.308   1.034 -0.3331 -0.4076  0.3821
10259TIP3    H152268   5.701   2.340   1.078 -0.2285  0.7465 -0.6043
10259TIP3    H252269   5.642   2.217   1.014  0.3598 -0.4130  1.0300
10260TIP3   OH252270   5.824   5.068   1.173 -0.5268  0.6015 -0.3734
10260TIP3    H152271   5.917   5.048   1.187 -0.3762  0.1910 -1.7766
10260TIP3    H252272   5.819   5.163   1.175 -0.2444  0.6012  0.6568
10261TIP3   OH252273   2.726   0.511   4.611 -0.4064  0.1004 -0.1129
10261TIP3    H152274   2.757   0.588   4.562 -0.8039  0.4824  0.2233
10261TIP3    H252275   2.693   0.452   4.544  0.8401 -0.2253 -0.4608
10262TIP3   OH252276   2.517   2.177  11.692  1.0941 -0.2951 -0.2942
10262TIP3    H152277   2.580   2.248  11.684  0.5063  0.4116  1.0531
10262TIP3    H252278   2.467   2.198  11.770  0.4133 -1.8153 -0.2838
10263TIP3   OH252279   6.291   3.308  13.230 -0.3653  0.6573  0.4705
10263TIP3    H152280   6.243   3.227  13.212 -1.1281  1.4230 -1.0776
10263TIP3    H252281   6.307   3.305  13.325  0.6383 -1.8339  0.3007
10264TIP3   OH252282   1.161   0.387  14.131 -0.1956 -0.1479  0.4507
10264TIP3    H152283   1.142   0.353  14.219  0.6667  0.2796  0.8166
10264TIP3    H252284   1.124   0.475  14.131  0.2979  0.0608  0.5830
10265TIP3   OH252285   5.831   0.066   1.269  0.2329 -0.3612  0.0433
10265TIP3    H152286   5.817   0.133   1.335  1.0718  0.8907 -0.9992
10265TIP3    H252287   5.762   0.080   1.205  0.3241 -0.5922 -0.1058
10266TIP3   OH252288   6.516   3.391   3.312 -0.6516  0.0127  0.4704
10266TIP3    H152289   6.516   3.477   3.270 -2.4365  0.0637  0.4935
10266TIP3    H252290   6.527   3.329   3.240 -1.0569  0.2067  0.2357
10267TIP3   OH252291   5.557   6.301   0.871  0.1871 -0.2303 -0.2280
10267TIP3    H152292   5.540   6.350   0.951  0.1373 -0.4531 -0.1014
10267TIP3    H252293   5.630   6.243   0.893 -0.9823 -1.6079  0.2253
10268TIP3   OH252294   6.143   5.155   5.180 -0.1368  0.0840 -0.0648
10268TIP3    H152295   6.126   5.242   5.146  2.2144  0.3117 -0.8480
10268TIP3    H252296   6.167   5.103   5.103 -0.2347 -0.9039  0.5453
10269TIP3   OH252297   1.934   6.684   5.213 -0.1657 -0.0191 -0.5772
10269TIP3    H152298   1.985   6.745   5.160  0.9788  0.0206  0.5413
10269TIP3    H252299   1.993   6.610   5.228 -0.6074 -0.2003  0.3271
10270TIP3   OH252300   6.181   0.524  11.919 -0.4280  0.3072  0.2940
10270TIP3    H152301   6.250   0.497  11.858  0.4282  1.1689  0.8548
10270TIP3    H252302   6.207   0.610  11.949  0.5599 -1.0282  3.7693
10271TIP3   OH252303   5.590   4.593  15.136 -0.2632 -0.2791  0.7064
10271TIP3    H152304   5.579   4.633  15.222  0.8959 -0.9976  1.2103
10271TIP3    H252305   5.683   4.574  15.130 -0.8340 -3.5766  0.8155
10272TIP3   OH252306   2.986   2.663  11.031 -0.2890 -0.4663  0.2177
10272TIP3    H152307   2.952   2.574  11.028 -1.1370 -0.1276 -0.9414
10272TIP3    H252308   3.081   2.652  11.025 -0.3909 -1.2792 -0.0501
10273TIP3   OH252309   5.503   4.915  11.619  0.4354 -0.0865 -0.0942
10273TIP3    H152310   5.492   4.828  11.659  1.3395 -0.8052 -1.3208
10273TIP3    H252311   5.597   4.924  11.609  0.2585 -0.0250 -2.1635
10274TIP3   OH252312   2.908   4.359   3.881 -0.2296 -0.3421 -0.1157
10274TIP3    H152313   2.932   4.306   3.805 -0.5460 -0.5590 -0.0697
10274TIP3    H252314   2.967   4.330   3.950  1.6608  1.4834 -0.8625
10275TIP3   OH252315   4.741   5.837  16.268 -0.1410  0.0606 -0.0832
10275TIP3    H152316   4.724   5.902  16.200  0.0449  0.1646 -0.0331
10275TIP3    H252317   4.817   5.872  16.315 -0.4231  0.1148  0.3336
10276TIP3   OH252318   5.283   4.587   2.263 -0.4436 -0.4542  0.3183
10276TIP3    H152319   5.222   4.513   2.273 -0.4343 -0.3298  1.4140
10276TIP3    H252320   5.227   4.661   2.242 -0.8273 -0.1090  2.3846
10277TIP3   OH252321   2.028   1.246  11.784  0.4513  0.0630  0.2045
10277TIP3    H152322   2.075   1.296  11.717  0.4085  0.5998  0.5674
10277TIP3    H252323   1.944   1.292  11.793  0.0311 -0.6323 -0.1300
10278TIP3   OH252324   2.235   0.734  12.714  0.4359  0.5590  0.1775
10278TIP3    H152325   2.324   0.699  12.706  0.0837 -0.6610  1.2514
10278TIP3    H252326   2.199   0.692  12.792 -1.4674  0.1361 -0.8473
10279TIP3   OH252327   6.518   0.744  16.098 -0.0190  0.3801  0.7963
10279TIP3    H152328   6.591   0.757  16.159 -0.0582  0.9954  0.7109
10279TIP3    H252329   6.482   0.831  16.084 -0.4455  0.1481  0.4275
10280TIP3   OH252330   3.068   4.486  14.739  0.2436 -0.5969  0.3354
10280TIP3    H152331   3.092   4.562  14.686  0.9258 -0.8665  0.2537
10280TIP3    H252332   3.038   4.523  14.821 -1.0920 -0.1585 -0.3177
10281TIP3   OH252333   2.743   1.748   5.887 -0.2174 -0.0204  0.2160
10281TIP3    H152334   2.714   1.750   5.979 -1.5935 -0.7987 -0.1734
10281TIP3    H252335   2.725   1.658   5.858  0.3481  0.1744 -0.7765
10282TIP3   OH252336   5.724   3.161  13.146  0.3397  0.1745 -0.4320
10282TIP3    H152337   5.785   3.212  13.199  0.2747 -0.1802  0.0005
10282TIP3    H252338   5.643   3.161  13.197  0.7440 -1.5275  0.2922
10283TIP3   OH252339   6.304   4.641  14.837 -0.2279 -0.0264 -0.1761
10283TIP3    H152340   6.218   4.604  14.819 -0.3807  0.5762 -0.7474
10283TIP3    H252341   6.364   4.588  14.784 -0.6706  1.7004 -2.5774
10284TIP3   OH252342   3.652   0.887   3.110  0.8026  0.0214 -0.1842
10284TIP3    H152343   3.727   0.888   3.170  0.0244  2.5921  0.8908
10284TIP3    H252344   3.659   0.969   3.062 -0.6938 -0.2567 -0.9307
10285TIP3   OH252345   1.111   3.549   5.925 -0.1401 -1.0838 -0.0314
10285TIP3    H152346   1.169   3.473   5.922  2.1274  0.5599  0.0430
10285TIP3    H252347   1.144   3.602   5.998 -2.1466 -0.3614  0.4179
10286TIP3   OH252348   5.633   3.269  13.565 -0.2617  0.4407  0.2471
10286TIP3    H152349   5.582   3.336  13.612  0.1008  1.1702 -0.3781
10286TIP3    H252350   5.641   3.303  13.476  0.0729 -0.3686 -0.0401
10287TIP3   OH252351   6.495   1.726  16.798  0.2544 -0.0014 -0.1109
10287TIP3    H152352   6.503   1.821  16.786  0.3668 -0.0471 -0.4040
10287TIP3    H252353   6.578   1.701  16.838 -0.4240  0.2694  1.5692
10288TIP3   OH252354   5.645   1.554   2.557 -0.1176  0.0603  0.0391
10288TIP3    H152355   5.685   1.633   2.521 -0.9705  1.0365  1.1913
10288TIP3    H252356   5.711   1.520   2.618  0.2365 -0.1072 -0.4324
10289TIP3   OH252357   0.610   2.212   4.422 -0.5487  0.2231 -0.3078
10289TIP3    H152358   0.566   2.215   4.506  1.8285  3.2022  1.0332
10289TIP3    H252359   0.607   2.303   4.390  1.3631 -0.1782 -1.8473
10290TIP3   OH252360   4.832   6.039  11.385  0.5058 -0.2309  0.1812
10290TIP3    H152361   4.886   6.083  11.451 -0.0521 -0.9901  1.1517
10290TIP3    H252362   4.827   5.948  11.414  0.6531 -0.6926 -1.1696
10291TIP3   OH252363   2.728   4.737  13.599 -0.4163 -0.6515 -0.3533
10291TIP3    H152364   2.801   4.676  13.610 -1.3040 -2.2252 -2.4678
10291TIP3    H252365   2.750   4.787  13.520 -1.8576 -1.5973 -1.3951
10292TIP3   OH252366   3.679   3.581   1.985  0.3121  0.3348 -0.1847
10292TIP3    H152367   3.588   3.551   1.989  0.4524  0.0099  2.4826
10292TIP3    H252368   3.674   3.667   1.942 -1.5418  1.0747  1.3500
10293TIP3   OH252369   6.538   3.237  10.709 -0.3511 -0.6097  0.0322
10293TIP3    H152370   6.591   3.261  10.785 -0.4745 -0.8006  0.1781
10293TIP3    H252371   6.588   3.271  10.634 -0.3627 -0.1836  0.2146
10294TIP3   OH252372   5.962   2.364   6.207  0.6381 -0.6331  0.2250
10294TIP3    H152373   5.925   2.400   6.288  0.5532 -0.5169  0.1333
10294TIP3    H252374   6.056   2.361   6.224  0.6397 -0.4294  0.2582
10295TIP3   OH252375   0.520   0.490   5.456 -0.5233 -0.6558 -0.4066
10295TIP3    H152376   0.539   0.580   5.480 -1.1620 -0.1897 -1.5619
10295TIP3    H252377   0.606   0.449   5.445 -0.2274 -0.4009  0.7901
10296TIP3   OH252378   2.701   0.636  15.198  0.1059  0.1372 -0.3064
10296TIP3    H152379   2.735   0.670  15.281 -1.2683  0.8565  0.0044
10296TIP3    H252380   2.768   0.658  15.134  0.7604  0.4377  0.4572
10297TIP3   OH252381   0.345   1.435   1.534 -0.5380  0.0510  0.5370
10297TIP3    H152382   0.326   1.361   1.592  0.9891 -0.7504  0.0631
10297TIP3    H252383   0.341   1.512   1.591  0.5812 -0.6861  1.6598
10298TIP3   OH252384   1.383   1.972   0.118  0.2467  0.0729 -0.0116
10298TIP3    H152385   1.313   1.957   0.181  0.5295 -1.0827  0.0406
10298TIP3    H252386   1.444   2.031   0.163 -1.5209  2.6131 -0.6965
10299TIP3   OH252387   6.751   5.206  11.489  0.3720 -0.0078  0.2417
10299TIP3    H152388   6.829   5.151  11.489 -0.0997 -0.7050 -0.6894
10299TIP3    H252389   6.682   5.149  11.455 -0.0673  1.2342 -1.0029
10300TIP3   OH252390   0.899   3.913   4.529 -0.1130 -0.1883 -0.4011
10300TIP3    H152391   0.973   3.946   4.479  0.5196 -1.6295 -0.4595
10300TIP3    H252392   0.918   3.937   4.620  1.6128 -2.4781 -0.0715
10301TIP3   OH252393   0.338   4.148   0.416  0.2271 -0.3373  0.3676
10301TIP3    H152394   0.320   4.242   0.411 -2.7127 -0.8188 -0.1119
10301TIP3    H252395   0.387   4.137   0.497  2.5033  1.7775 -0.5751
10302TIP3   OH252396   4.641   4.774   5.272 -0.3374  0.3781 -0.9198
10302TIP3    H152397   4.572   4.841   5.274 -1.1143 -0.4159 -0.7495
10302TIP3    H252398   4.609   4.704   5.328  0.3753 -0.2391 -1.2647
10303TIP3   OH252399   3.046   0.610   5.257 -0.3121  0.1592 -0.5584
10303TIP3    H152400   3.103   0.589   5.184  2.2126 -0.6251  1.4835
10303TIP3    H252401   3.090   0.573   5.333 -2.1186  2.0499  1.5626
10304TIP3   OH252402   2.863   3.288   4.661  0.2501 -0.2051 -0.7592
10304TIP3    H152403   2.852   3.193   4.654  0.4318 -0.2399 -0.5859
10304TIP3    H252404   2.835   3.310   4.749  1.8488 -0.3514 -0.1760
10305TIP3   OH252405   2.706   4.518  13.169  0.4342 -0.4646  0.4993
10305TIP3    H152406   2.751   4.504  13.085 -0.7534 -0.5149 -0.1484
10305TIP3    H252407   2.750   4.459  13.230  1.6568 -0.0475  0.0522
10306TIP3   OH252408   0.010   1.233  12.828  0.2903  0.2440  0.1477
10306TIP3    H152409  -0.062   1.173  12.846 -0.5597  0.4761 -2.1666
10306TIP3    H252410  -0.032   1.319  12.821  0.6857  0.3184 -1.6309
10307TIP3   OH252411   2.332   4.880   5.307 -0.1015 -0.2312 -0.2005
10307TIP3    H152412   2.404   4.817   5.299  0.5177  0.2945  0.9688
10307TIP3    H252413   2.257   4.826   5.334  0.0682 -0.6568 -0.5575
10308TIP3   OH252414   3.549   2.692   6.137  0.0513  0.5026  0.5146
10308TIP3    H152415   3.454   2.706   6.142 -0.1451  1.7870 -3.5504
10308TIP3    H252416   3.558   2.604   6.100  0.4761  0.3977  0.8581
10309TIP3   OH252417   5.491   4.322   0.530 -0.1442 -0.7344  0.1574
10309TIP3    H152418   5.448   4.380   0.467 -0.2678 -0.6469  0.3193
10309TIP3    H252419   5.485   4.370   0.613  1.1636 -0.2684  0.0011
10310TIP3   OH252420   6.324   3.048  16.967 -0.1233  0.1773 -0.1370
10310TIP3    H152421   6.240   3.092  16.956  0.1836  0.7791 -0.1092
10310TIP3    H252422   6.382   3.116  17.000 -0.4484 -0.9896  3.2244
10311TIP3   OH252423   2.154   0.205  16.832 -0.4052 -0.1194 -1.0267
10311TIP3    H152424   2.123   0.270  16.896 -1.8807 -2.7120  1.0745
10311TIP3    H252425   2.248   0.201  16.846 -0.6446 -0.3332  0.7479
10312TIP3   OH252426   1.019   1.938  16.455 -0.2158  0.0233  0.2467
10312TIP3    H152427   1.058   2.017  16.419  0.4643  0.3282  1.5692
10312TIP3    H252428   0.941   1.923  16.402 -0.4586  1.6908  0.0743
10313TIP3   OH252429   3.031   2.571  14.138  0.4275 -0.0777  0.4366
10313TIP3    H152430   3.087   2.571  14.060 -0.5709  0.6360 -0.2984
10313TIP3    H252431   2.944   2.591  14.105  0.1167  0.9978  1.8410
10314TIP3   OH252432   6.461   2.818   3.455 -0.0555  0.4760 -0.5460
10314TIP3    H152433   6.486   2.899   3.410 -1.2224  0.5264 -1.1716
10314TIP3    H252434   6.517   2.814   3.532 -0.7844  2.5144  0.1535
10315TIP3   OH252435   6.247   2.419  15.901 -0.0568 -0.6481 -0.3989
10315TIP3    H152436   6.292   2.354  15.956  1.5705  1.2233  0.6179
10315TIP3    H252437   6.166   2.437  15.947  0.2233 -0.7971  0.1701
10316TIP3   OH252438   0.985   3.979   2.986  0.1062  0.5486 -0.2600
10316TIP3    H152439   1.000   3.960   3.078 -1.4336  2.1291  0.3594
10316TIP3    H252440   1.038   4.057   2.968  0.3792  0.2669 -0.7395
10317TIP3   OH252441   1.832   6.825  11.549  0.0422  0.0979  0.0929
10317TIP3    H152442   1.904   6.775  11.587 -0.9421 -0.9148  0.6998
10317TIP3    H252443   1.774   6.844  11.622  0.0066  1.4956 -0.2675
10318TIP3   OH252444   6.099   4.858   3.521  0.3064 -0.1744  0.2025
10318TIP3    H152445   6.024   4.845   3.463  1.0686 -0.1397 -0.8082
10318TIP3    H252446   6.060   4.888   3.603 -0.6843  2.2078 -1.0328
10319TIP3   OH252447   0.731   2.684   2.390  0.5206  0.6960 -0.2576
10319TIP3    H152448   0.695   2.642   2.468  1.3238  2.6984  1.2666
10319TIP3    H252449   0.668   2.664   2.320 -1.1788  0.3592  1.3138
10320TIP3   OH252450   2.493   3.820  12.534 -0.2267 -0.2374  0.3776
10320TIP3    H152451   2.519   3.870  12.457  2.1647 -1.7269  0.1009
10320TIP3    H252452   2.510   3.879  12.607  2.1018 -0.3891  0.0298
10321TIP3   OH252453   2.621   5.669  11.244 -0.1515  0.2044  0.1709
10321TIP3    H152454   2.605   5.625  11.327 -0.4418  1.3550  0.7460
10321TIP3    H252455   2.651   5.600  11.185 -1.4974 -0.9307  0.7682
10322TIP3   OH252456   3.325   3.877   6.072  0.0708 -0.3480 -0.2711
10322TIP3    H152457   3.382   3.861   6.148 -1.3203 -1.1579  0.6496
10322TIP3    H252458   3.241   3.901   6.110 -0.2132  0.8533 -1.6070
10323TIP3   OH252459   2.672   5.950  11.222 -0.7445 -0.0241  0.2992
10323TIP3    H152460   2.657   5.856  11.233  2.5946 -0.8420 -0.8887
10323TIP3    H252461   2.610   5.976  11.153 -0.4087 -1.8505 -0.7730
10324TIP3   OH252462   4.709   1.734  15.109  0.4535 -0.4249  0.2323
10324TIP3    H152463   4.723   1.641  15.090  1.2167 -0.0990 -0.8895
10324TIP3    H252464   4.715   1.740  15.204 -0.0007 -1.5817  0.3553
10325TIP3   OH252465   6.054   1.085  13.640 -0.6814  0.6482  0.0262
10325TIP3    H152466   6.054   1.177  13.668 -0.8976  0.8711 -0.6831
10325TIP3    H252467   6.047   1.089  13.544 -0.4014 -0.1036 -0.0317
10326TIP3   OH252468   4.795   1.020   4.936  0.1258  0.7029  0.3190
10326TIP3    H152469   4.876   0.970   4.933  0.2149  0.8755 -0.3831
10326TIP3    H252470   4.770   1.030   4.844 -0.1334  1.5378  0.4737
10327TIP3   OH252471   2.490   5.373   1.890 -0.0097  0.0979  0.2096
10327TIP3    H152472   2.404   5.416   1.898 -0.0630  0.4400 -1.8195
10327TIP3    H252473   2.524   5.373   1.980 -0.2293  3.9335  0.4498
10328TIP3   OH252474   1.804   0.057  15.101 -0.1934 -0.1484  0.1425
10328TIP3    H152475   1.767  -0.021  15.062 -1.0267  0.2965  0.0149
10328TIP3    H252476   1.796   0.043  15.196  1.3197 -0.9849  0.1783
10329TIP3   OH252477   6.736   5.753  12.142  0.1086 -0.2862  0.1837
10329TIP3    H152478   6.819   5.752  12.190  1.7831 -0.3469 -2.5316
10329TIP3    H252479   6.704   5.663  12.148 -0.3012 -0.0509  2.0356
10330TIP3   OH252480   5.478   2.806  11.302 -0.1607 -0.4229 -0.6609
10330TIP3    H152481   5.516   2.752  11.371  0.9670 -0.4277 -1.2641
10330TIP3    H252482   5.407   2.753  11.266 -2.0277  0.2983  1.6793
10331TIP3   OH252483   3.430   4.105   0.877 -0.2187  0.6374 -0.2928
10331TIP3    H152484   3.358   4.069   0.928 -0.7249  0.4270 -1.1260
10331TIP3    H252485   3.434   4.049   0.799  2.5494 -1.0200  0.8846
10332TIP3   OH252486   3.858   2.512  11.730 -0.4406 -0.1100 -0.1507
10332TIP3    H152487   3.862   2.602  11.697  0.5858 -0.5295 -1.2923
10332TIP3    H252488   3.810   2.464  11.663 -0.1906 -0.5824  0.0021
10333TIP3   OH252489   1.954   2.617  10.669  0.1240  0.6984 -0.5939
10333TIP3    H152490   1.986   2.677  10.602  0.7130  0.1194 -0.8482
10333TIP3    H252491   2.008   2.637  10.746  1.6751 -0.7541 -1.2251
10334TIP3   OH252492   0.901   5.288   1.797 -0.3627 -0.5138  0.4701
10334TIP3    H152493   0.893   5.220   1.730  0.6245  1.5016 -1.8566
10334TIP3    H252494   0.813   5.325   1.805 -0.1933  0.3299 -1.0638
10335TIP3   OH252495   0.215   4.772  12.521 -0.6349  0.2145  0.3042
10335TIP3    H152496   0.204   4.678  12.529  0.2711  0.1803  1.3406
10335TIP3    H252497   0.267   4.784  12.442  1.0866 -0.3253  1.3050
10336TIP3   OH252498   6.691   1.916   2.354  0.6512  0.6708 -0.4103
10336TIP3    H152499   6.768   1.927   2.411  1.0117 -0.7492 -0.5965
10336TIP3    H252500   6.707   1.835   2.307 -1.2737 -0.0265  0.0423
10337TIP3   OH252501   5.579   4.916  16.495 -0.0665  0.3949  0.1214
10337TIP3    H152502   5.670   4.896  16.475  0.4223  3.3588 -1.1360
10337TIP3    H252503   5.549   4.969  16.421 -1.7014  2.4323  2.1035
10338TIP3   OH252504   5.928   6.539   3.449 -0.1392  0.0363  0.3121
10338TIP3    H152505   5.999   6.558   3.387 -0.0219 -1.0863  0.0776
10338TIP3    H252506   5.968   6.481   3.514 -0.8400 -0.6339  0.1588
10339TIP3   OH252507   1.570   4.748  14.317 -0.1425 -0.0695  0.2246
10339TIP3    H152508   1.633   4.772  14.385  0.0261  3.1542 -0.8828
10339TIP3    H252509   1.499   4.704  14.363  0.2727  1.4089  2.3986
10340TIP3   OH252510   3.812   5.227   1.343  0.3235  0.5503 -0.1619
10340TIP3    H152511   3.816   5.263   1.431  0.7051 -0.8313  0.4030
10340TIP3    H252512   3.896   5.185   1.330  0.0493  0.2225 -0.9619
10341TIP3   OH252513   0.688   0.139   0.913  0.4766 -0.5016 -0.1502
10341TIP3    H152514   0.722   0.145   0.824  1.7734  1.8988  0.4117
10341TIP3    H252515   0.657   0.228   0.933 -2.8283 -1.6932  0.7115
10342TIP3   OH252516   0.401   6.721   4.086  0.6220 -0.7222  0.0339
10342TIP3    H152517   0.476   6.778   4.102  0.1493 -0.3301  0.9383
10342TIP3    H252518   0.334   6.753   4.146 -0.0948 -1.4035 -0.3870
10343TIP3   OH252519   4.120   6.642   2.207  0.0262  0.1206  0.1299
10343TIP3    H152520   4.137   6.715   2.146 -2.1495  0.4805 -0.1470
10343TIP3    H252521   4.169   6.665   2.286 -0.6888  1.9955  0.0975
10344TIP3   OH252522   6.592   2.149   5.842 -0.6415  0.1543  0.0454
10344TIP3    H152523   6.555   2.228   5.802 -0.2534 -0.2608 -1.1797
10344TIP3    H252524   6.616   2.176   5.931 -1.5484  1.1034  0.0203
10345TIP3   OH252525   4.003   4.061  16.784  0.2124  0.2695  0.2869
10345TIP3    H152526   4.089   4.082  16.750 -0.8954  0.7889 -2.4477
10345TIP3    H252527   4.013   3.977  16.827  2.5946  1.5320  2.4567
10346TIP3   OH252528   2.971   4.805   3.790  0.0845  0.0061 -0.4759
10346TIP3    H152529   2.998   4.760   3.870 -2.6732 -0.2819  0.4097
10346TIP3    H252530   2.890   4.760   3.764 -1.6491  3.0439 -0.7605
10347TIP3   OH252531   2.390   1.417  16.510  0.2651 -0.0566  0.1053
10347TIP3    H152532   2.361   1.466  16.587 -3.1585 -1.9239  0.2079
10347TIP3    H252533   2.462   1.363  16.542  1.0266  1.4636  1.1227
10348TIP3   OH252534   6.815   1.403  16.302 -0.0711 -0.2280 -0.0478
10348TIP3    H152535   6.892   1.422  16.356  0.8884  0.0101 -1.4480
10348TIP3    H252536   6.847   1.346  16.232 -1.2910 -0.5855 -0.3491
10349TIP3   OH252537   4.723   5.242  11.921  0.0990  0.4962 -0.4297
10349TIP3    H152538   4.695   5.156  11.952 -0.1439  0.4993 -0.6387
10349TIP3    H252539   4.691   5.248  11.831 -1.6239  1.5709  0.2020
10350TIP3   OH252540   5.453   6.711  13.479  0.2012 -0.0467  0.9234
10350TIP3    H152541   5.391   6.645  13.448 -1.8511  1.5495  1.4487
10350TIP3    H252542   5.513   6.723  13.406 -1.3578 -0.1468 -0.4376
10351TIP3   OH252543   5.590   0.379  11.717 -0.2843  0.0259  0.0984
10351TIP3    H152544   5.629   0.320  11.782 -1.2113  0.4021  1.0261
10351TIP3    H252545   5.665   0.414  11.669  0.3176 -1.4839 -0.1137
10352TIP3   OH252546   4.933   3.283   3.311  0.1275  0.1108 -0.1573
10352TIP3    H152547   4.926   3.343   3.237 -0.4410  0.6386  0.3146
10352TIP3    H252548   4.936   3.196   3.271  1.7502  0.4719 -0.8899
10353TIP3   OH252549   6.643   3.578   1.764  0.1975 -0.4778 -0.5025
10353TIP3    H152550   6.612   3.630   1.690 -1.7295 -0.1849  0.4623
10353TIP3    H252551   6.610   3.490   1.747 -0.0847 -0.4531 -0.0879
10354TIP3   OH252552   3.334   1.126   1.631  0.2613  0.1257 -0.1915
10354TIP3    H152553   3.359   1.159   1.544  1.6045 -2.8126 -1.0621
10354TIP3    H252554   3.278   1.051   1.613  1.1248 -0.9744  1.4175
10355TIP3   OH252555   4.841   0.071  12.971 -0.0384 -0.0022 -0.7963
10355TIP3    H152556   4.818   0.125  13.046 -0.6721 -0.0574 -0.9394
10355TIP3    H252557   4.820  -0.018  12.999 -0.5435  0.0058 -1.1253
10356TIP3   OH252558   0.478   2.982   4.405  0.4610 -0.7101 -0.1391
10356TIP3    H152559   0.497   3.073   4.385  1.5587 -0.9692 -0.3391
10356TIP3    H252560   0.470   2.939   4.320  0.0842 -0.8353 -0.0445
10357TIP3   OH252561   2.582   2.760  13.365  0.3221 -0.4132 -0.9359
10357TIP3    H152562   2.672   2.793  13.374 -0.5481  1.6111  1.2337
10357TIP3    H252563   2.583   2.678  13.415  0.4855  0.7400  1.0658
10358TIP3   OH252564   0.870   5.242  10.621  0.0420 -0.1722  0.4119
10358TIP3    H152565   0.839   5.233  10.530  1.8984  2.1782 -0.5589
10358TIP3    H252566   0.810   5.306  10.660  0.7580  0.7850 -0.0082
10359TIP3   OH252567   3.881   0.125   4.797  0.4323  0.1659  0.7604
10359TIP3    H152568   3.941   0.171   4.856  1.2701 -0.5805  0.5105
10359TIP3    H252569   3.846   0.053   4.851  0.4880  0.0351  0.6219
10360TIP3   OH252570   2.549   0.171   2.774 -0.4128  0.4291 -0.0313
10360TIP3    H152571   2.500   0.208   2.848  0.0166  0.3580  0.2920
10360TIP3    H252572   2.514   0.217   2.697  0.9205  2.4155  0.4668
10361TIP3   OH252573   6.545   0.961  16.921  0.0213  0.2079 -0.4690
10361TIP3    H152574   6.511   0.883  16.877  0.0480 -0.0384 -0.0564
10361TIP3    H252575   6.573   0.930  17.007  2.5388  0.1210 -1.2539
10362TIP3   OH252576   6.579   6.106   2.968  0.4388  0.4923 -0.2315
10362TIP3    H152577   6.575   6.196   2.999  1.4456  0.0023  1.4388
10362TIP3    H252578   6.672   6.091   2.949  0.9920 -1.2852  3.1776
10363TIP3   OH252579   4.322   6.315   5.857 -0.7240 -0.0709 -0.3157
10363TIP3    H152580   4.253   6.250   5.847 -1.5344  0.6914  0.1749
10363TIP3    H252581   4.386   6.294   5.789 -0.5917 -1.8363  0.3128
10364TIP3   OH252582   2.554   1.301   3.997  0.3117 -0.4576 -0.3169
10364TIP3    H152583   2.572   1.312   3.904 -1.0009 -0.8035 -0.6233
10364TIP3    H252584   2.595   1.217   4.019  2.1537  0.4307 -0.1418
10365TIP3   OH252585   0.105   6.289   4.358  1.2712 -0.3678 -0.3247
10365TIP3    H152586   0.046   6.216   4.341 -2.7917  2.5937 -0.4798
10365TIP3    H252587   0.153   6.300   4.276 -0.9135 -0.5996 -1.7293
10366TIP3   OH252588   0.913   0.975  16.308  0.5705 -0.5399 -0.2214
10366TIP3    H152589   0.942   0.912  16.373  1.0851 -1.0713 -0.9498
10366TIP3    H252590   0.957   0.949  16.227  0.7307  0.6904 -0.5626
10367TIP3   OH252591   0.202   5.957   1.447  0.5160 -0.4354 -0.7722
10367TIP3    H152592   0.123   5.990   1.490  0.9733  1.8186 -1.4917
10367TIP3    H252593   0.191   5.984   1.355  2.0970 -0.0707 -0.8794
10368TIP3   OH252594   1.858   5.449  16.309  0.2447 -0.1108 -0.0957
10368TIP3    H152595   1.856   5.487  16.397 -3.1698 -0.0163 -0.0656
10368TIP3    H252596   1.861   5.524  16.250 -0.8190  0.0159 -0.0155
10369TIP3   OH252597   6.153   1.150   0.259 -0.3339 -1.2251  0.2713
10369TIP3    H152598   6.137   1.129   0.350 -0.7851 -0.1168  0.4546
10369TIP3    H252599   6.078   1.203   0.232  0.3368 -0.5944 -0.4118
10370TIP3   OH252600   3.167   2.556  15.461 -0.0516  0.1601 -0.0088
10370TIP3    H152601   3.131   2.467  15.458  0.6428 -0.3583  3.0264
10370TIP3    H252602   3.262   2.542  15.459  0.1272  0.5763  2.4810
10371TIP3   OH252603   0.449   1.437  16.199 -0.1478 -0.6612  0.7857
10371TIP3    H152604   0.456   1.493  16.277 -0.6724  0.7058 -0.1046
10371TIP3    H252605   0.370   1.385  16.214  0.6918 -1.6758  1.9108
10372TIP3   OH252606   4.722   5.475   0.448 -0.4067 -0.3340 -0.1626
10372TIP3    H152607   4.746   5.410   0.514 -2.7990  1.6007  2.8842
10372TIP3    H252608   4.630   5.457   0.428  0.3043 -1.0273 -3.3515
10373TIP3   OH252609   5.517   5.715   3.452 -0.4928  0.3972  0.3829
10373TIP3    H152610   5.573   5.637   3.444  1.2438  1.5761  0.3761
10373TIP3    H252611   5.492   5.717   3.544  0.5993  0.5585  0.6894
10374TIP3   OH252612   4.024   1.074  16.389 -0.4803 -0.3975 -0.0153
10374TIP3    H152613   4.056   1.105  16.473 -1.0962 -0.6078  0.2983
10374TIP3    H252614   3.951   1.015  16.410 -0.3974 -0.7508 -0.6758
10375TIP3   OH252615   5.874   4.900   4.091  0.2050 -0.4477 -0.3728
10375TIP3    H152616   5.792   4.850   4.090  0.3161 -0.6540  0.1722
10375TIP3    H252617   5.913   4.885   4.005  2.1503 -4.5447  0.9678
10376TIP3   OH252618   5.343   0.744   6.522 -0.1061 -0.1281 -0.3131
10376TIP3    H152619   5.260   0.791   6.523 -0.2768 -0.4225 -0.3501
10376TIP3    H252620   5.318   0.652   6.514  0.0439 -0.5392  2.7231
10377TIP3   OH252621   3.486   4.491   3.663  0.1642  1.0023 -0.2402
10377TIP3    H152622   3.523   4.433   3.729 -0.4642  0.1549 -0.6042
10377TIP3    H252623   3.441   4.432   3.602 -1.5001  1.9338  0.0094
10378TIP3   OH252624   6.048   4.905  13.349  0.1972  0.1905 -0.5762
10378TIP3    H152625   5.981   4.838  13.335 -0.0935  0.3007  0.2336
10378TIP3    H252626   6.043   4.960  13.271  0.0070 -0.3589 -0.9579
10379TIP3   OH252627   1.684   5.135   4.332  1.1703 -0.2205 -0.0181
10379TIP3    H152628   1.766   5.139   4.380  2.1627  2.9199 -1.7066
10379TIP3    H252629   1.636   5.214   4.359 -0.7880 -1.3353 -0.0066
10380TIP3   OH252630   6.327   2.160   3.558 -0.3351 -0.4127 -0.0711
10380TIP3    H152631   6.276   2.241   3.548 -1.0601 -1.0033 -1.5190
10380TIP3    H252632   6.393   2.181   3.623  0.2499  1.7372 -1.2615
10381TIP3   OH252633   6.788   0.168  17.032 -0.4639 -0.4003 -0.4051
10381TIP3    H152634   6.725   0.098  17.051 -0.7257 -0.0773 -0.0450
10381TIP3    H252635   6.847   0.167  17.107 -2.0337  1.4700  0.9635
10382TIP3   OH252636   1.514   0.349   3.967  0.7041  0.2205 -0.0931
10382TIP3    H152637   1.519   0.386   4.055 -2.1004  0.6045  0.0016
10382TIP3    H252638   1.534   0.423   3.909  0.2466  0.5831  0.2002
10383TIP3   OH252639   0.069   1.065   1.415  0.0156  0.6235 -0.3339
10383TIP3    H152640   0.062   1.107   1.329  1.0363  1.3416 -0.0947
10383TIP3    H252641   0.093   0.975   1.397 -2.8736 -0.1263 -0.8902
10384TIP3   OH252642   1.321   5.410  14.542  0.5052 -0.1328  0.2023
10384TIP3    H152643   1.243   5.359  14.563 -0.4189  1.1123 -0.0705
10384TIP3    H252644   1.392   5.367  14.589 -0.6296 -0.3435  1.8094
10385TIP3   OH252645   2.087   5.469   5.713  0.3183  0.0703  0.0010
10385TIP3    H152646   2.161   5.450   5.771  0.4826 -0.4868 -0.3876
10385TIP3    H252647   2.019   5.407   5.739  0.7579 -0.9009 -1.0804
10386TIP3   OH252648   0.188   2.990  15.964 -0.3477  0.0541 -0.3484
10386TIP3    H152649   0.248   2.917  15.981 -0.9788 -0.0257  1.9131
10386TIP3    H252650   0.106   2.947  15.938 -0.4850 -0.0371  0.2100
10387TIP3   OH252651   0.038   0.913  16.493 -0.0186 -0.1437  0.3373
10387TIP3    H152652  -0.020   0.982  16.461  0.4157 -0.9977 -2.5118
10387TIP3    H252653   0.004   0.892  16.580 -3.3779  0.1050 -0.7660
10388TIP3   OH252654   2.729   3.793   5.217 -0.3889 -0.9784  0.1895
10388TIP3    H152655   2.644   3.832   5.197  0.5542  0.7301 -0.7514
10388TIP3    H252656   2.778   3.801   5.135  1.4079  0.1106  1.3155
10389TIP3   OH252657   2.507   6.847  17.073 -0.2338 -0.3447  0.3960
10389TIP3    H152658   2.484   6.871  17.163  0.1384  3.1724 -0.2985
10389TIP3    H252659   2.600   6.826  17.077 -0.2153 -0.1910  0.8414
10390TIP3   OH252660   5.001   2.255  13.554  0.4860 -0.2464  0.0922
10390TIP3    H152661   4.909   2.275  13.567  0.0717 -0.2060 -2.4414
10390TIP3    H252662   5.015   2.173  13.601 -1.9089 -2.4056 -2.5624
10391TIP3   OH252663   0.779   3.332   2.742 -0.1903 -0.3099 -0.1245
10391TIP3    H152664   0.726   3.302   2.668 -1.2583 -0.7684  0.7964
10391TIP3    H252665   0.773   3.261   2.806  0.3305  0.2721  0.5863
10392TIP3   OH252666   3.653   6.188  12.072  0.5029 -0.5908 -0.2266
10392TIP3    H152667   3.645   6.249  11.999  0.9553  0.4838  0.6013
10392TIP3    H252668   3.581   6.211  12.131  0.3344 -1.2311 -0.1715
10393TIP3   OH252669   1.981   4.782  16.660 -0.1565  0.0393 -0.1541
10393TIP3    H152670   1.937   4.867  16.662  0.9889  0.6508 -0.4159
10393TIP3    H252671   2.050   4.788  16.725  1.9135  0.4578 -2.2466
10394TIP3   OH252672   1.110   4.715   4.819  0.2864  0.1509 -0.1208
10394TIP3    H152673   1.092   4.639   4.875  1.1991  0.4310  0.5953
10394TIP3    H252674   1.030   4.766   4.820  0.0433 -0.2346  0.3236
10395TIP3   OH252675   5.854   0.400  15.745 -0.2321 -0.6078  0.0903
10395TIP3    H152676   5.929   0.351  15.710 -0.0910  0.0034 -0.4777
10395TIP3    H252677   5.864   0.394  15.840  0.1171 -1.1684  0.0223
10396TIP3   OH252678   0.394   6.577  13.211 -0.0717 -0.0726 -0.1586
10396TIP3    H152679   0.449   6.617  13.144  0.2334  0.9678  0.6915
10396TIP3    H252680   0.304   6.594  13.183  0.0374 -0.5671 -0.8344
10397TIP3   OH252681   4.583   0.667  15.210 -0.0158  0.4138  0.3196
10397TIP3    H152682   4.548   0.632  15.128 -2.5698  1.8123  0.7055
10397TIP3    H252683   4.621   0.752  15.185 -0.7892  0.8367  0.5578
10398TIP3   OH252684   2.785   1.906   3.639 -0.1261 -0.1082 -0.5876
10398TIP3    H152685   2.715   1.889   3.702  0.0991  2.1390  0.3663
10398TIP3    H252686   2.796   2.001   3.641  1.7993 -0.2453 -1.9986
10399TIP3   OH252687   1.641   5.066  13.731  0.2303  0.2689  0.0519
10399TIP3    H152688   1.598   5.148  13.754 -2.4493 -0.7617 -0.7662
10399TIP3    H252689   1.572   5.000  13.742  1.3911 -1.4317 -2.0937
10400TIP3   OH252690   4.635   5.918   2.358 -0.0093 -0.0886 -1.0389
10400TIP3    H152691   4.625   6.009   2.332 -1.6435  0.2751  0.7219
10400TIP3    H252692   4.635   5.919   2.453 -1.6446 -2.0630 -0.9531
10401TIP3   OH252693   0.574   1.785   4.501 -0.2592  0.3255 -0.1301
10401TIP3    H152694   0.588   1.760   4.592  0.5440 -0.1777 -0.3830
10401TIP3    H252695   0.488   1.750   4.479 -0.3602  0.2540  0.3613
10402TIP3   OH252696   3.757   3.020  15.145 -0.7402  0.1947 -0.1564
10402TIP3    H152697   3.831   3.080  15.150 -1.7587  1.3999  1.2999
10402TIP3    H252698   3.690   3.060  15.200 -1.7750 -1.8531  0.1638
10403TIP3   OH252699   5.967   0.100   3.997 -0.2143  0.6710  0.1657
10403TIP3    H152700   5.922   0.067   4.075  0.2172 -1.5872 -0.4578
10403TIP3    H252701   6.059   0.081   4.012 -0.2204 -0.7948 -1.2748
10404TIP3   OH252702   1.260   0.601  16.227 -0.5931 -0.0452  0.2959
10404TIP3    H152703   1.300   0.675  16.272  0.9713 -0.8950  0.3999
10404TIP3    H252704   1.261   0.530  16.291 -1.3330 -0.3819 -0.0518
10405TIP3   OH252705   0.873   5.510   5.669  0.4444 -0.4685  0.0971
10405TIP3    H152706   0.955   5.468   5.693 -1.0483 -3.4897  0.5090
10405TIP3    H252707   0.856   5.572   5.739  2.8222  1.0789 -0.5762
10406TIP3   OH252708   1.123   4.453   0.928 -0.4476  0.3863  0.3243
10406TIP3    H152709   1.099   4.471   0.837 -0.5161 -1.8939 -0.1800
10406TIP3    H252710   1.207   4.498   0.941  0.1278 -0.1600 -1.2663
10407TIP3   OH252711   3.571   5.932  15.966  0.1214  0.6178 -0.5177
10407TIP3    H152712   3.508   5.958  16.033  0.8402  1.5225 -0.1836
10407TIP3    H252713   3.561   5.998  15.897  0.8891  0.9179 -0.3435
10408TIP3   OH252714   4.362   6.079   4.241 -0.0419  0.5580 -0.3487
10408TIP3    H152715   4.279   6.039   4.269 -0.2800  0.4288 -1.2037
10408TIP3    H252716   4.401   6.014   4.182  0.4318  0.8315 -0.3385
10409TIP3   OH252717   6.726   2.255  13.006 -0.3209 -0.0195 -0.1393
10409TIP3    H152718   6.675   2.223  12.931 -0.0353 -1.2995  0.1817
10409TIP3    H252719   6.757   2.175  13.049  2.4180  0.6647 -0.6224
10410TIP3   OH252720   1.421   2.184   2.170 -0.0164 -0.0637 -0.3466
10410TIP3    H152721   1.480   2.122   2.212  0.3673 -0.7952 -1.8897
10410TIP3    H252722   1.431   2.167   2.076  0.4839  2.6650 -0.8774
10411TIP3   OH252723   1.927   0.704  14.420  0.2959 -0.3189  0.2015
10411TIP3    H152724   1.893   0.761  14.489 -1.0960 -1.3988  0.4522
10411TIP3    H252725   1.982   0.761  14.367 -0.5387  1.1085  0.8116
10412TIP3   OH252726   6.491   4.017  16.860  0.3153  0.1534 -0.0281
10412TIP3    H152727   6.489   3.948  16.926 -0.7801 -0.1168 -0.3331
10412TIP3    H252728   6.567   4.071  16.884  0.6690 -0.6571  0.7090
10413TIP3   OH252729   5.233   5.326   5.209  0.0065 -0.4977 -0.0216
10413TIP3    H152730   5.265   5.236   5.208  0.8356 -0.2780  2.0957
10413TIP3    H252731   5.139   5.318   5.224 -0.1189 -1.0123 -0.9848
10414TIP3   OH252732   6.437   5.651  14.265  0.5295 -0.2845  0.4742
10414TIP3    H152733   6.389   5.717  14.315 -0.1118  1.8074 -2.5846
10414TIP3    H252734   6.371   5.586  14.242  0.1954  0.1430  0.1950
10415TIP3   OH252735   3.221   4.319   0.413 -0.2456  0.1581 -0.5415
10415TIP3    H152736   3.291   4.361   0.462 -0.1763 -1.8781  1.2740
10415TIP3    H252737   3.264   4.248   0.365 -0.7541  0.2383 -1.1280
10416TIP3   OH252738   6.208   0.352  10.589  0.0356  0.1148  0.4177
10416TIP3    H152739   6.275   0.287  10.566 -0.0987 -0.0423  0.4648
10416TIP3    H252740   6.240   0.434  10.551 -0.6094 -0.3113 -1.1113
10417TIP3   OH252741   5.193   3.570  11.717 -0.2785  0.2678 -0.2560
10417TIP3    H152742   5.099   3.554  11.719 -0.6967  2.4708  0.0677
10417TIP3    H252743   5.214   3.604  11.804  0.6498  0.6143 -0.5989
10418TIP3   OH252744   2.310   3.688   4.747  0.9696  0.2800 -0.5523
10418TIP3    H152745   2.241   3.669   4.684  0.3704  1.7559 -0.3804
10418TIP3    H252746   2.316   3.610   4.801 -1.7363  0.6882  0.4805
10419TIP3   OH252747   0.495   4.260  16.475 -0.3694 -0.0513  0.3325
10419TIP3    H152748   0.568   4.198  16.487 -0.8300 -0.8145 -0.6322
10419TIP3    H252749   0.459   4.271  16.563 -0.6697 -1.6822  0.4474
10420TIP3   OH252750   6.546   5.082   1.330  0.2626 -0.2977  0.5061
10420TIP3    H152751   6.563   5.151   1.266  0.8994  1.0302  2.0590
10420TIP3    H252752   6.466   5.109   1.374 -1.5366 -2.4016 -1.2244
10421TIP3   OH252753   5.195   6.045   4.027  0.1178  0.3236 -0.2726
10421TIP3    H152754   5.259   6.008   3.967 -1.3756  0.0524 -1.7818
10421TIP3    H252755   5.157   6.118   3.979 -2.4518 -1.0507 -0.5006
10422TIP3   OH252756   5.577   4.463  12.827  0.0794 -0.1468 -0.2155
10422TIP3    H152757   5.525   4.532  12.784  1.3211  1.4289  0.6895
10422TIP3    H252758   5.593   4.399  12.758 -1.5638  0.2006 -0.9642
10423TIP3   OH252759   6.432   1.595  16.264  0.3546  0.3106 -0.4151
10423TIP3    H152760   6.408   1.684  16.241  1.3784  0.4861 -0.8284
10423TIP3    H252761   6.431   1.594  16.360 -2.9497 -0.1633 -0.3153
10424TIP3   OH252762   4.908   2.578  12.953 -0.0321  0.4965  0.5545
10424TIP3    H152763   4.993   2.552  12.990  0.2117  0.4534 -0.0262
10424TIP3    H252764   4.914   2.674  12.948 -0.0018  0.4916  0.4863
10425TIP3   OH252765   3.950   5.047   1.672  0.4408  0.2080 -0.0235
10425TIP3    H152766   4.038   5.075   1.697  1.0668 -0.5924 -1.2194
10425TIP3    H252767   3.902   5.129   1.657  1.5731  0.6746 -1.2883
10426TIP3   OH252768   1.233   5.244   2.521 -0.0639 -0.0727 -0.7041
10426TIP3    H152769   1.226   5.201   2.436  0.4403  0.7588 -1.1768
10426TIP3    H252770   1.179   5.191   2.579  0.9917 -1.6808 -1.1281
10427TIP3   OH252771   2.795   4.617   3.300 -0.3064  0.1672 -0.0455
10427TIP3    H152772   2.737   4.627   3.375 -0.5616  0.8114 -0.3251
10427TIP3    H252773   2.874   4.575   3.335 -0.5215  0.2483  0.5332
10428TIP3   OH252774   5.628   6.135  11.607  0.0527  0.2010 -0.6332
10428TIP3    H152775   5.605   6.207  11.666 -1.4890 -0.2520 -0.6299
10428TIP3    H252776   5.554   6.129  11.546 -1.2477 -3.0557  1.0077
10429TIP3   OH252777   4.332   3.751   0.180 -0.0016  0.1610  0.0871
10429TIP3    H152778   4.249   3.733   0.226  0.1632 -0.9638 -0.0291
10429TIP3    H252779   4.366   3.664   0.158  1.2726  0.6083  0.2351
10430TIP3   OH252780   4.600   6.177   3.254  0.1555 -0.0247 -0.1768
10430TIP3    H152781   4.637   6.154   3.339 -2.3494  2.6077  1.8169
10430TIP3    H252782   4.665   6.236   3.215 -0.1301  1.5564  1.5788
10431TIP3   OH252783   3.342   5.570  10.686  0.0590 -0.7118 -0.3686
10431TIP3    H152784   3.302   5.515  10.619  1.0660 -1.1437 -0.6312
10431TIP3    H252785   3.432   5.585  10.655  0.2985 -0.2708  0.4981
10432TIP3   OH252786   3.963   6.424  13.590  0.1533 -0.2527  0.6394
10432TIP3    H152787   3.927   6.406  13.677  0.8346 -1.1268  0.7595
10432TIP3    H252788   3.894   6.398  13.530 -0.0920 -0.2249  0.9057
10433TIP3   OH252789   4.175   2.007  14.906 -0.1658  0.3315  0.3471
10433TIP3    H152790   4.266   1.980  14.890  0.1619  0.4706  1.8023
10433TIP3    H252791   4.129   1.925  14.924  0.1493  0.4193  1.6695
10434TIP3   OH252792   4.086   0.837  15.291  0.0170  0.2565  0.5010
10434TIP3    H152793   4.105   0.805  15.379  1.0389 -2.1828 -0.5090
10434TIP3    H252794   4.141   0.915  15.282  1.4612 -0.6153  1.3522
10435TIP3   OH252795   1.477   5.601  11.636 -0.4287  0.3787 -0.3604
10435TIP3    H152796   1.472   5.610  11.731 -0.4198 -0.1441 -0.3085
10435TIP3    H252797   1.553   5.654  11.611 -0.7093  0.8967 -0.1327
10436TIP3   OH252798   1.226   4.419  13.225  0.1959  0.5290 -0.1838
10436TIP3    H152799   1.244   4.513  13.229 -0.6345  0.6968 -0.1812
10436TIP3    H252800   1.263   4.391  13.141 -0.2389  1.0166 -0.5439
10437TIP3   OH252801   2.320   1.872   2.068 -0.0079  0.3678 -0.1385
10437TIP3    H152802   2.366   1.810   2.011  0.7318 -1.8081  2.6072
10437TIP3    H252803   2.327   1.956   2.023  0.8744 -1.0997 -2.9886
10438TIP3   OH252804   4.196   0.148   1.808  0.0986  0.6397  0.2128
10438TIP3    H152805   4.185   0.116   1.718  0.8192  0.1936  0.2811
10438TIP3    H252806   4.212   0.242   1.797  0.5717  0.5215 -0.1583
10439TIP3   OH252807   3.239   5.223  11.525 -0.3378  0.4556  0.3696
10439TIP3    H152808   3.182   5.299  11.541 -1.4554 -0.3100  0.1840
10439TIP3    H252809   3.287   5.246  11.446 -0.3455  1.1517  0.5595
10440TIP3   OH252810   2.877   2.713   5.443 -0.2041  0.4758 -0.2217
10440TIP3    H152811   2.935   2.725   5.517  1.7213 -1.0313 -1.3961
10440TIP3    H252812   2.797   2.675   5.480  0.0776  1.2682  1.2454
10441TIP3   OH252813   0.905   3.459  16.238 -0.3316  0.1652  0.1847
10441TIP3    H152814   0.874   3.370  16.222  2.0760 -0.6559 -0.3137
10441TIP3    H252815   0.946   3.486  16.156  1.0374  0.7993  1.0352
10442TIP3   OH252816   1.224   4.448   0.163 -0.1433 -0.2787 -0.4857
10442TIP3    H152817   1.203   4.532   0.123 -0.4260 -0.7847 -1.4356
10442TIP3    H252818   1.191   4.383   0.101  1.6348 -1.0995 -0.6368
10443TIP3   OH252819   1.214   3.803  16.224  0.2636 -0.2126  0.3016
10443TIP3    H152820   1.272   3.737  16.262 -2.1782 -1.6816  1.8335
10443TIP3    H252821   1.154   3.825  16.296 -1.5048  0.6417 -1.3538
10444TIP3   OH252822   2.812   3.021   2.707  0.4150 -0.2435  0.4893
10444TIP3    H152823   2.830   2.964   2.782 -1.0378 -0.3196  0.8155
10444TIP3    H252824   2.743   2.976   2.658  1.3925 -0.2354 -0.9733
10445TIP3   OH252825   2.132   1.391   2.583 -0.3931 -0.2934 -0.2876
10445TIP3    H152826   2.196   1.461   2.597 -0.3785 -0.0716 -1.3659
10445TIP3    H252827   2.116   1.355   2.670  1.4693 -0.5785 -0.0177
10446TIP3   OH252828   6.687   0.048  13.373 -0.5065  0.7174 -0.0463
10446TIP3    H152829   6.669  -0.040  13.341  2.0333  0.8905 -2.2475
10446TIP3    H252830   6.706   0.036  13.466  0.3279 -1.1778 -0.4168
10447TIP3   OH252831   0.238   4.932  13.583 -0.3629 -0.2195  0.3547
10447TIP3    H152832   0.193   5.009  13.551  2.3665  0.7214 -1.6594
10447TIP3    H252833   0.248   4.876  13.505  3.1412  0.3633  0.2255
10448TIP3   OH252834   3.130   3.919   0.180 -0.1508  0.0368 -0.7303
10448TIP3    H152835   3.064   3.986   0.163 -1.6203 -0.7084  1.5519
10448TIP3    H252836   3.208   3.968   0.206 -0.5147  0.8839 -1.1842
10449TIP3   OH252837   4.372   5.520   1.260 -0.2576  0.0274 -0.5281
10449TIP3    H152838   4.334   5.572   1.330 -1.3046 -1.3221 -0.0512
10449TIP3    H252839   4.466   5.540   1.263 -0.0390 -0.9596  2.1437
10450TIP3   OH252840   2.206   5.552  11.240 -0.1703 -0.2561  0.0521
10450TIP3    H152841   2.238   5.625  11.187  1.1394 -0.0435  1.0871
10450TIP3    H252842   2.232   5.574  11.329 -0.8621 -1.4052  0.5562
10451TIP3   OH252843   2.181   5.099   5.636  0.0018 -0.3474 -0.0704
10451TIP3    H152844   2.213   5.169   5.693 -1.3856  0.5062 -0.2917
10451TIP3    H252845   2.161   5.027   5.697  0.1011 -0.0453  0.3273
10452TIP3   OH252846   4.371   4.154   4.664 -0.3042 -0.6948  0.1227
10452TIP3    H152847   4.340   4.211   4.594  0.4567  0.3293  0.6146
10452TIP3    H252848   4.420   4.211   4.723 -0.1349 -1.7168  1.0057
10453TIP3   OH252849   6.213   1.737  12.685  0.5308  0.8780  0.0743
10453TIP3    H152850   6.211   1.644  12.708 -1.8620  0.3527 -1.8456
10453TIP3    H252851   6.260   1.740  12.602 -1.7860  0.8761 -1.3407
10454TIP3   OH252852   0.901   1.261  11.025 -0.0761 -0.4559 -0.0813
10454TIP3    H152853   0.820   1.299  10.990 -0.6411 -0.0212  1.6054
10454TIP3    H252854   0.939   1.331  11.079  0.5064 -1.2408  0.5477
10455TIP3   OH252855   6.272   0.463   0.494 -0.3622  0.3897 -0.0797
10455TIP3    H152856   6.351   0.462   0.548 -0.7357 -2.1162  0.5624
10455TIP3    H252857   6.204   0.427   0.550 -1.9249  2.1935 -0.7248
10456TIP3   OH252858   3.011   4.294  14.554 -0.1460 -0.3479  0.1453
10456TIP3    H152859   3.056   4.354  14.613 -0.0491 -0.0411 -0.2356
10456TIP3    H252860   3.011   4.210  14.600  1.2037 -0.4686 -0.0209
10457TIP3   OH252861   4.021   4.247  12.576  0.2489 -0.6891  0.1912
10457TIP3    H152862   3.996   4.160  12.547 -1.1657 -0.0272 -0.7196
10457TIP3    H252863   4.098   4.234  12.630 -0.6616 -2.6349  1.1097
10458TIP3   OH252864   1.016   1.903   4.776  0.0644  0.2073 -0.3967
10458TIP3    H152865   1.107   1.882   4.797  0.1780 -0.1276 -1.1994
10458TIP3    H252866   1.020   1.945   4.690 -0.5171  0.4183 -0.3261
10459TIP3   OH252867   3.777   6.267   3.485  0.3827 -0.5939 -0.7503
10459TIP3    H152868   3.693   6.240   3.523 -0.0429  1.3363 -0.1888
10459TIP3    H252869   3.770   6.242   3.393 -1.4626  0.8011 -1.0607
10460TIP3   OH252870   0.533   3.291  16.389  0.1591 -0.4434 -0.0401
10460TIP3    H152871   0.606   3.354  16.390  0.8708 -1.2243 -1.0496
10460TIP3    H252872   0.513   3.277  16.482 -0.7532  2.0753  0.2152
10461TIP3   OH252873   0.714   1.800   2.203 -0.6242 -0.1853  0.3184
10461TIP3    H152874   0.714   1.857   2.280  2.0658  0.0741  0.2114
10461TIP3    H252875   0.705   1.860   2.129 -1.5021 -0.2894  0.3221
10462TIP3   OH252876   4.984   6.234  13.011 -0.2146  0.4077  0.0608
10462TIP3    H152877   4.892   6.207  13.001  0.1762 -0.8157 -0.5162
10462TIP3    H252878   5.012   6.255  12.922  0.2846  0.0026  0.1198
10463TIP3   OH252879   2.110   5.717  13.459  0.2303  0.2509  0.3967
10463TIP3    H152880   2.199   5.686  13.476 -0.8446 -2.5267  1.6084
10463TIP3    H252881   2.078   5.745  13.545 -0.2166  0.8070  0.0548
10464TIP3   OH252882   6.047   0.355   5.105 -0.4918 -0.1435  0.2150
10464TIP3    H152883   6.023   0.343   5.197 -0.7013 -1.8218 -0.0290
10464TIP3    H252884   6.097   0.277   5.083 -1.5036 -0.3737 -1.4279
10465TIP3   OH252885   0.753   1.612  10.337  0.2395  0.1770 -0.1640
10465TIP3    H152886   0.770   1.654  10.421 -0.7700 -2.3245  1.4124
10465TIP3    H252887   0.663   1.580  10.344  0.0952 -0.0286 -2.2629
10466TIP3   OH252888   3.552   5.149  14.625  0.3890 -0.4266  0.3571
10466TIP3    H152889   3.634   5.101  14.633  0.2346 -0.7107  0.2753
10466TIP3    H252890   3.552   5.181  14.535  0.0397 -1.1295  0.0946
10467TIP3   OH252891   3.871   0.533  16.033  0.5877 -0.3032  0.2902
10467TIP3    H152892   3.843   0.510  15.944  0.4185  1.0405 -0.0258
10467TIP3    H252893   3.952   0.583  16.020 -1.2783  3.0869  0.5437
10468TIP3   OH252894   3.595   1.874   0.893  0.1306  0.1442  0.3503
10468TIP3    H152895   3.580   1.821   0.815  1.6102  0.7100 -0.3717
10468TIP3    H252896   3.668   1.831   0.938 -0.3676  0.1157  1.1490
10469TIP3   OH252897   4.018   5.838   1.060 -0.2773  0.1599 -0.0947
10469TIP3    H152898   3.981   5.757   1.025 -0.4722  0.2010  0.0109
10469TIP3    H252899   4.004   5.831   1.155 -0.7761  0.5564 -0.1379
10470TIP3   OH252900   0.770   0.654  12.809  0.5079  0.4777 -0.7928
10470TIP3    H152901   0.731   0.568  12.794  0.9174  0.2173 -0.3749
10470TIP3    H252902   0.854   0.650  12.763 -0.4466  1.4583 -2.7487
10471TIP3   OH252903   0.806   2.638  15.232 -0.2368 -0.4411 -0.0305
10471TIP3    H152904   0.762   2.562  15.195 -0.7755  0.1773 -0.6741
10471TIP3    H252905   0.774   2.713  15.182  0.0076  0.2638  0.8213
10472TIP3   OH252906   5.858   4.677   0.902  0.2872 -0.0169  0.0967
10472TIP3    H152907   5.802   4.702   0.828  0.0044 -0.5834  0.1155
10472TIP3    H252908   5.849   4.750   0.964 -1.4750 -0.6880  0.6825
10473TIP3   OH252909   2.440   1.903   4.802 -0.6066  0.0555 -0.4807
10473TIP3    H152910   2.427   1.959   4.726 -2.1507  1.0640  0.4560
10473TIP3    H252911   2.435   1.813   4.768  1.4290  0.4282 -1.9295
10474TIP3   OH252912   6.800   5.168   3.518 -0.1922  0.0418 -0.2690
10474TIP3    H152913   6.875   5.110   3.502 -0.7316 -0.8679  0.4050
10474TIP3    H252914   6.811   5.196   3.609  0.0505  0.9876 -0.5852
10475TIP3   OH252915   1.871   5.839   5.503  0.0837 -0.2428 -0.5600
10475TIP3    H152916   1.923   5.916   5.526 -0.7553 -0.4708  2.5706
10475TIP3    H252917   1.908   5.768   5.555 -1.3761 -1.1213 -0.6526
10476TIP3   OH252918   3.127   6.205   0.623 -0.3344 -0.2193 -0.6326
10476TIP3    H152919   3.174   6.151   0.560  0.1442  1.0878 -1.4473
10476TIP3    H252920   3.192   6.268   0.654 -0.5079 -0.9720  1.3737
10477TIP3   OH252921   0.973   3.086  10.376 -0.2893 -0.1556 -0.0812
10477TIP3    H152922   1.039   3.155  10.375  0.5945 -0.9363  1.5541
10477TIP3    H252923   0.890   3.133  10.378  0.3039  0.9090  1.3659
10478TIP3   OH252924   4.702   6.493  13.558  0.1894 -0.0745  0.5094
10478TIP3    H152925   4.769   6.428  13.538  0.3851  0.1683  0.3582
10478TIP3    H252926   4.700   6.497  13.653  0.3793 -0.0962  0.5153
10479TIP3   OH252927   3.960   0.999  15.844  0.0422  0.0175  0.2602
10479TIP3    H152928   3.939   0.974  15.934 -0.6535 -0.0492  0.0794
10479TIP3    H252929   3.969   0.916  15.797  0.9169  0.0349  0.3717
10480TIP3   OH252930   3.459   5.859   3.458  0.0878  0.4848 -0.8379
10480TIP3    H152931   3.542   5.813   3.472 -0.6206 -1.0755 -1.5635
10480TIP3    H252932   3.398   5.819   3.521 -0.6126  0.2167 -1.6710
10481TIP3   OH252933   0.244   5.016  14.822  0.2646  0.3710  0.0283
10481TIP3    H152934   0.295   4.978  14.750  1.0532  1.4980 -0.0342
10481TIP3    H252935   0.217   4.941  14.875 -0.7832 -0.5424 -1.7057
10482TIP3   OH252936   5.416   0.489  13.857  0.3213  0.1257 -0.3080
10482TIP3    H152937   5.388   0.400  13.880  0.3190  0.1854 -0.0697
10482TIP3    H252938   5.452   0.524  13.939  0.1987  0.3890 -0.3670
10483TIP3   OH252939   1.758   2.619   2.896  0.0196 -0.4126  0.0942
10483TIP3    H152940   1.699   2.694   2.904  2.0173  1.0608  1.7669
10483TIP3    H252941   1.845   2.655   2.908  1.5621 -2.2453 -3.8601
10484TIP3   OH252942   4.305   3.233   5.508  0.9007  0.0936  0.2699
10484TIP3    H152943   4.273   3.180   5.435 -1.7541  2.5155 -0.5311
10484TIP3    H252944   4.394   3.257   5.483  0.0799  0.8619 -2.2596
10485TIP3   OH252945   3.729   0.842   4.571  0.0117  0.3542 -0.2929
10485TIP3    H152946   3.794   0.777   4.599  0.2065  1.3046  1.6894
10485TIP3    H252947   3.781   0.911   4.531  0.0035  0.1341 -0.6807
10486TIP3   OH252948   2.857   0.924   1.092  0.4173  0.3145  0.3818
10486TIP3    H152949   2.928   0.976   1.054 -0.6962  0.7823 -1.1325
10486TIP3    H252950   2.868   0.837   1.054  0.1982  0.3733  0.1872
10487TIP3   OH252951   6.350   4.853   3.009 -0.8326 -0.4237  0.6798
10487TIP3    H152952   6.441   4.832   3.033  0.0912  0.8785 -1.4490
10487TIP3    H252953   6.316   4.902   3.084  0.9181  0.8157  0.7228
10488TIP3   OH252954   3.710   3.099  16.022  0.2936 -0.3437 -0.7136
10488TIP3    H152955   3.619   3.098  16.051 -0.3106  2.7493 -2.0269
10488TIP3    H252956   3.726   3.011  15.989 -3.0337 -0.3945 -2.6399
10489TIP3   OH252957   4.493   1.096   2.035  0.0422 -0.2105 -0.0302
10489TIP3    H152958   4.445   1.014   2.042 -0.3809  0.0525  0.1722
10489TIP3    H252959   4.559   1.092   2.104  0.9031 -0.9591 -0.8749
10490TIP3   OH252960   6.511   1.275   5.712  0.4000 -0.1205 -0.2810
10490TIP3    H152961   6.490   1.206   5.775 -2.6356  2.3037  1.6385
10490TIP3    H252962   6.595   1.309   5.741  0.6348 -1.2213  0.3887
10491TIP3   OH252963   3.889   3.474   2.746  0.4087  0.3659  0.1918
10491TIP3    H152964   3.813   3.466   2.687  0.3107 -0.2142  0.3871
10491TIP3    H252965   3.931   3.388   2.742 -0.3292 -0.1086  1.9534
10492TIP3   OH252966   1.007   3.099   0.094  0.6241  0.0063 -0.4882
10492TIP3    H152967   0.924   3.110   0.048  0.8343 -1.2532 -1.2156
10492TIP3    H252968   1.026   3.005   0.087  0.7018 -0.2615  2.1079
10493TIP3   OH252969   5.845   2.492  11.465 -0.3983  0.2464 -0.0499
10493TIP3    H152970   5.756   2.517  11.489 -0.5205 -0.0751 -0.1702
10493TIP3    H252971   5.836   2.407  11.422 -0.0741  0.3767 -0.3807
10494TIP3   OH252972   0.773   4.873  10.492 -0.1624 -0.5248  0.1523
10494TIP3    H152973   0.785   4.851  10.584  0.0355  0.5394  0.3892
10494TIP3    H252974   0.771   4.788  10.447  0.6794 -1.0203  1.0166
10495TIP3   OH252975   1.897   2.034   0.751 -0.4588 -0.0744  0.0071
10495TIP3    H152976   1.988   2.063   0.747 -0.6317  0.5089  0.2365
10495TIP3    H252977   1.886   2.000   0.840 -0.5422  0.1231  0.0732
10496TIP3   OH252978   2.297   6.574   4.075  0.3214  0.3976  0.7582
10496TIP3    H152979   2.377   6.595   4.122  1.4693 -1.0873 -0.4280
10496TIP3    H252980   2.251   6.511   4.131  1.0839 -0.4182  0.5013
10497TIP3   OH252981   1.739   1.374  12.187  0.0378 -0.5505  0.2366
10497TIP3    H152982   1.766   1.404  12.274 -0.5456  0.8552 -0.0229
10497TIP3    H252983   1.725   1.280  12.197 -0.7098 -0.3094  1.8678
10498TIP3   OH252984   4.467   0.284   2.714  0.6934  0.6479 -0.3208
10498TIP3    H152985   4.524   0.207   2.702 -1.9873 -1.6315  0.5371
10498TIP3    H252986   4.498   0.324   2.795 -0.3889 -2.1098  1.6229
10499TIP3   OH252987   0.217   0.172  15.231 -0.0732 -0.1685  0.3864
10499TIP3    H152988   0.278   0.181  15.305 -1.1565  0.4523  1.2396
10499TIP3    H252989   0.130   0.177  15.271 -0.6901 -0.3284 -0.8829
10500TIP3   OH252990   1.128   6.121  16.734 -0.0253  0.5866  0.6309
10500TIP3    H152991   1.114   6.033  16.767  0.2842  0.2005 -0.2309
10500TIP3    H252992   1.042   6.149  16.702 -0.0358  0.4265  0.5190
10501TIP3   OH252993   5.395   6.561  12.006 -0.0038 -0.1135 -0.1072
10501TIP3    H152994   5.423   6.635  12.059  0.2967 -0.8064  0.7287
10501TIP3    H252995   5.455   6.559  11.932  1.4260 -0.8451  1.0255
10502TIP3   OH252996   0.831   6.741  11.164 -0.5589 -0.8098  0.7579
10502TIP3    H152997   0.903   6.704  11.115 -0.2414 -0.6225  1.0784
10502TIP3    H252998   0.824   6.686  11.242 -0.0740 -0.1924  1.2459
10503TIP3   OH252999   3.595   6.259   0.200  0.2378 -0.7975 -0.2705
10503TIP3    H153000   3.556   6.347   0.200  0.3676 -0.7368 -0.5773
10503TIP3    H253001   3.547   6.211   0.268 -0.4655 -0.7732 -0.7391
10504TIP3   OH253002   3.983   2.397  14.016  0.4656 -0.4842  0.2550
10504TIP3    H153003   3.978   2.397  13.921 -1.6264  0.3598  0.3295
10504TIP3    H253004   3.996   2.489  14.039 -2.8926 -0.0639  0.8686
10505TIP3   OH253005   5.928   6.155  10.385 -0.1417  0.1888  0.2510
10505TIP3    H153006   5.855   6.196  10.339  0.0322  0.0054 -0.1968
10505TIP3    H253007   5.914   6.061  10.372  0.1512  0.1525  0.1985
10506TIP3   OH253008   0.833   1.176   5.576 -0.1488  0.0730  0.1598
10506TIP3    H153009   0.817   1.268   5.557  2.0298  0.2635 -1.0068
10506TIP3    H253010   0.886   1.177   5.655  1.3190 -0.0497 -0.7913
10507TIP3   OH253011   3.198   3.594  11.369  0.2323  0.4998  0.0525
10507TIP3    H153012   3.254   3.561  11.299  1.1119  2.2376 -0.1122
10507TIP3    H253013   3.211   3.533  11.442 -0.9617 -1.5304 -1.3612
10508TIP3   OH253014   2.302   6.289   4.971  0.3276 -0.1475  0.1229
10508TIP3    H153015   2.266   6.360   4.918  0.9403  1.1974  1.4074
10508TIP3    H253016   2.333   6.333   5.051  3.0467 -1.4804 -0.0904
10509TIP3   OH253017   6.812   3.190  14.092  0.1484 -0.1195  0.3368
10509TIP3    H153018   6.867   3.264  14.068 -0.1124  0.1864  0.6729
10509TIP3    H253019   6.862   3.113  14.064  1.5931  0.0529  2.2101
10510TIP3   OH253020   5.861   1.683  11.027  0.4761  0.2525 -0.0669
10510TIP3    H153021   5.818   1.618  10.972 -0.6587  1.0852 -0.1953
10510TIP3    H253022   5.844   1.767  10.984 -0.5195  0.9378  1.5500
10511TIP3   OH253023   3.444   2.367   0.271  0.4604 -0.0012  0.7650
10511TIP3    H153024   3.454   2.421   0.350 -0.7419 -0.6543  1.4090
10511TIP3    H253025   3.369   2.405   0.226  1.3497  0.5669 -0.2505
10512TIP3   OH253026   1.572   4.566   5.819 -0.3072  0.1871  0.5696
10512TIP3    H153027   1.616   4.496   5.772  2.0272  1.1324  1.2037
10512TIP3    H253028   1.570   4.536   5.910  1.0442  1.0466  0.9098
10513TIP3   OH253029   3.365   6.594  11.510 -0.6853  0.0558 -0.8730
10513TIP3    H153030   3.427   6.581  11.581 -0.3617  2.9629 -0.4664
10513TIP3    H253031   3.361   6.510  11.465  0.3811 -1.3927  1.5455
10514TIP3   OH253032   3.397   6.762   1.830  0.2182 -0.1842 -0.1318
10514TIP3    H153033   3.325   6.784   1.770  0.6663  2.3245  0.1673
10514TIP3    H253034   3.474   6.754   1.773  0.4886  1.4146 -0.0390
10515TIP3   OH253035   5.397   0.308   0.119 -0.0446 -0.1645  0.5619
10515TIP3    H153036   5.408   0.400   0.095 -1.0732 -0.3396 -0.7091
10515TIP3    H253037   5.362   0.311   0.208 -1.0132  0.7272  0.1736
10516TIP3   OH253038   3.855   3.171   4.550  0.0321  0.5426  0.0610
10516TIP3    H153039   3.858   3.114   4.473 -2.2571 -0.9681  1.0069
10516TIP3    H253040   3.795   3.241   4.524 -1.6760 -0.5997  0.8202
10517TIP3   OH253041   3.478   1.908   3.317 -0.0455  0.4298  0.3856
10517TIP3    H153042   3.424   1.910   3.238 -1.3096  0.0380  1.2248
10517TIP3    H253043   3.562   1.944   3.288  0.1816 -1.4501 -1.6073
10518TIP3   OH253044   2.623   1.028   3.155 -0.3022  0.5919  0.2560
10518TIP3    H153045   2.615   1.097   3.090 -0.8287 -0.3442 -0.7164
10518TIP3    H253046   2.547   0.971   3.139 -0.4435  0.3374  1.6923
10519TIP3   OH253047   5.364   5.888  14.581  0.3736 -0.3593  0.6566
10519TIP3    H153048   5.443   5.895  14.528  1.3410  0.4614  2.1320
10519TIP3    H253049   5.294   5.919  14.524  1.2590 -0.1612 -0.3551
10520TIP3   OH253050   6.756   0.644  15.040 -0.2546 -0.2677 -0.2726
10520TIP3    H153051   6.734   0.642  15.134  0.3345 -0.6710 -0.1432
10520TIP3    H253052   6.672   0.663  14.997 -0.6101 -0.4954  0.3069
10521TIP3   OH253053   1.156   2.732  15.105 -0.0727 -0.1352 -0.2083
10521TIP3    H153054   1.081   2.730  15.046 -0.2869 -2.6718  0.0339
10521TIP3    H253055   1.134   2.800  15.169 -0.5728  1.5086 -2.0422
10522TIP3   OH253056   1.249   5.277  16.763 -0.4219 -0.0753  0.3200
10522TIP3    H153057   1.267   5.208  16.827  0.4984  0.6053  0.8238
10522TIP3    H253058   1.155   5.293  16.771 -0.7376 -1.5510 -0.1124
10523TIP3   OH253059   0.410   5.383  11.827 -0.0196  0.1319 -0.7024
10523TIP3    H153060   0.432   5.338  11.909  1.5625  1.1620 -0.5091
10523TIP3    H253061   0.494   5.418  11.796 -0.6961  0.2589 -2.4667
10524TIP3   OH253062   1.327   5.149   2.038  0.2607  0.3739 -0.1224
10524TIP3    H153063   1.249   5.205   2.042  0.9978  1.4158  0.1749
10524TIP3    H253064   1.317   5.088   2.112 -1.6786 -1.4746 -1.7962
10525TIP3   OH253065   4.305   2.485   5.593  0.6729  0.1380  0.2793
10525TIP3    H153066   4.248   2.540   5.647  1.0517 -1.0749  2.0287
10525TIP3    H253067   4.323   2.409   5.648  0.1665 -1.7804 -2.0242
10526TIP3   OH253068   0.648   3.372  14.922  0.3655  0.0094  0.2868
10526TIP3    H153069   0.586   3.402  14.856  0.0612  0.3943  0.7383
10526TIP3    H253070   0.593   3.340  14.994  0.6779  0.7977  0.8918
10527TIP3   OH253071   2.571   1.278  15.630 -0.5934  0.0809 -0.0036
10527TIP3    H153072   2.645   1.265  15.689 -0.7633 -0.0717  0.1768
10527TIP3    H253073   2.497   1.240  15.676 -1.1737  1.9435  0.6781
10528TIP3   OH253074   4.594   5.051   4.523 -0.3190  0.1029 -0.2492
10528TIP3    H153075   4.679   5.039   4.564  0.6110 -0.2959 -2.1854
10528TIP3    H253076   4.568   5.140   4.547 -0.1178 -0.2917  1.6106
10529TIP3   OH253077   2.361   4.635  12.659 -0.1810 -0.2432  0.6934
10529TIP3    H153078   2.403   4.640  12.573  0.1584 -0.4009  0.8502
10529TIP3    H253079   2.319   4.549  12.661  0.4590 -0.5557  0.9796
10530TIP3   OH253080   4.388   0.651  14.817  0.4327 -0.4282 -0.4125
10530TIP3    H153081   4.440   0.731  14.813 -1.3978  0.7933 -1.0101
10530TIP3    H253082   4.365   0.633  14.726 -0.6319 -0.6331 -0.1067
10531TIP3   OH253083   2.726   1.247   5.421 -0.4076  0.7034  0.2983
10531TIP3    H153084   2.661   1.275   5.357 -0.0826  1.0582  0.1165
10531TIP3    H253085   2.681   1.252   5.505 -0.8433  0.2204  0.1018
10532TIP3   OH253086   1.619   0.673  10.270  0.3686  0.1034  0.1941
10532TIP3    H153087   1.539   0.715  10.301 -0.7131 -1.4819 -0.3389
10532TIP3    H253088   1.616   0.680  10.175  0.0583 -1.2929  0.0734
10533TIP3   OH253089   3.391   0.514   2.678  0.5540 -0.2745  0.3362
10533TIP3    H153090   3.452   0.440   2.687  0.2807 -0.5536 -0.0749
10533TIP3    H253091   3.304   0.474   2.680  0.4208 -0.2545 -2.2298
10534TIP3   OH253092   4.306   3.894   1.892  0.7356 -0.1814 -0.5169
10534TIP3    H153093   4.265   3.808   1.905  0.0292  0.3295  0.7486
10534TIP3    H253094   4.399   3.874   1.882  0.4464 -1.1930 -1.5405
10535TIP3   OH253095   1.780   2.197  12.127 -0.4577 -0.3686  0.4378
10535TIP3    H153096   1.691   2.221  12.153 -0.0776  2.0472 -0.2409
10535TIP3    H253097   1.836   2.249  12.184  0.6117 -2.6944  1.6334
10536TIP3   OH253098   5.405   4.977   5.601  0.1545 -0.1282 -0.2459
10536TIP3    H153099   5.310   4.987   5.592 -0.1869 -1.2570  1.6992
10536TIP3    H253100   5.430   4.921   5.527 -0.5274  0.8423 -1.2493
10537TIP3   OH253101   2.536   1.733  13.211  0.4894 -0.2755 -0.2052
10537TIP3    H153102   2.476   1.701  13.278  1.2950 -2.4484 -0.4515
10537TIP3    H253103   2.622   1.729  13.251  0.7031  1.0237 -0.4869
10538TIP3   OH253104   6.552   0.010  16.252 -0.3055  0.0493 -0.2020
10538TIP3    H153105   6.644  -0.017  16.253 -1.0543 -2.8791 -0.7061
10538TIP3    H253106   6.526   0.010  16.345 -0.4102 -1.7771 -0.1866
10539TIP3   OH253107   5.015   1.900   5.985  0.5838  0.2159  0.3859
10539TIP3    H153108   4.958   1.902   6.062  1.0737 -2.2903  0.8821
10539TIP3    H253109   5.098   1.937   6.016 -0.0588  1.8577  0.2409
10540TIP3   OH253110   1.889   4.898  12.647  0.3860 -0.9594  0.1065
10540TIP3    H153111   1.958   4.940  12.595 -0.0225 -0.0486  0.2901
10540TIP3    H253112   1.812   4.901  12.592  0.0128 -0.2198  0.6599
10541TIP3   OH253113   3.899   6.546   0.755 -0.1910  0.6320 -0.4622
10541TIP3    H153114   3.850   6.466   0.734 -0.3693  1.1029 -2.0468
10541TIP3    H253115   3.976   6.516   0.802 -0.4523 -0.4418 -0.6857
10542TIP3   OH253116   5.206   5.018  10.775 -0.4913  0.7303 -0.0496
10542TIP3    H153117   5.220   4.993  10.684 -1.5277 -1.0940  0.2343
10542TIP3    H253118   5.292   5.007  10.816  0.2161  2.4895 -0.9424
10543TIP3   OH253119   1.626   3.307   3.654 -0.5585  0.8710 -0.0216
10543TIP3    H153120   1.703   3.269   3.697 -0.7632 -1.4134 -1.5353
10543TIP3    H253121   1.622   3.396   3.688  0.2794 -0.2268  3.3392
10544TIP3   OH253122   5.311   4.385  16.933 -0.3883  0.8101  0.1589
10544TIP3    H153123   5.310   4.309  16.991  1.5893  0.4569 -0.1951
10544TIP3    H253124   5.404   4.404  16.921 -0.7629  1.3272 -2.3213
10545TIP3   OH253125   2.520   1.777   0.426 -0.6270  0.5611 -0.0676
10545TIP3    H153126   2.597   1.805   0.476 -0.9497  1.7835 -0.2234
10545TIP3    H253127   2.466   1.731   0.491  0.0354  0.0474  0.1352
10546TIP3   OH253128   5.269   4.838  15.677 -0.0307  0.4425  0.3222
10546TIP3    H153129   5.364   4.837  15.687  0.0820 -2.5830 -0.1096
10546TIP3    H253130   5.241   4.916  15.724  2.7812  2.5091 -1.1542
10547TIP3   OH253131   2.920   1.921   6.247 -0.0582  0.3429 -0.1913
10547TIP3    H153132   2.973   1.957   6.177  0.3116 -1.9059 -1.1656
10547TIP3    H253133   2.981   1.907   6.319 -0.2287  1.6614  0.2412
10548TIP3   OH253134   2.896   3.382  11.807 -0.0731 -0.5820 -0.5041
10548TIP3    H153135   2.964   3.320  11.781  0.7417  0.0980 -0.0499
10548TIP3    H253136   2.814   3.343  11.777  0.1772 -2.8363  1.4425
10549TIP3   OH253137   4.221   4.649  11.826 -0.3718  0.0216 -0.4119
10549TIP3    H153138   4.264   4.673  11.908  1.1777  1.3712 -1.5458
10549TIP3    H253139   4.157   4.582  11.850  0.2740  0.1522  1.8245
10550TIP3   OH253140   3.323   6.536   4.121  0.4691 -0.3045 -0.3840
10550TIP3    H153141   3.332   6.576   4.208  1.2041 -2.1885  0.4625
10550TIP3    H253142   3.250   6.475   4.131 -0.5642  0.6782 -1.6135
10551TIP3   OH253143   4.084   0.603  12.445 -0.1100 -0.3303 -0.1166
10551TIP3    H153144   4.024   0.610  12.371 -0.4736 -2.4522 -0.0743
10551TIP3    H253145   4.171   0.620  12.408 -0.3681 -0.6886 -0.8895
10552TIP3   OH253146   4.725   2.395   4.946  0.0883 -0.2608 -0.4022
10552TIP3    H153147   4.716   2.319   4.888 -2.1007 -0.5947  0.2848
10552TIP3    H253148   4.660   2.458   4.913  0.5090  0.5282  0.2338
10553TIP3   OH253149   2.200   0.215   3.357 -0.0740  0.8289  0.1445
10553TIP3    H153150   2.182   0.282   3.292 -0.1733  0.7711  0.1114
10553TIP3    H253151   2.277   0.169   3.324  0.0413  0.9757  0.2072
10554TIP3   OH253152   4.947   6.684   1.200  0.0309 -0.3376 -0.4386
10554TIP3    H153153   4.886   6.616   1.172 -0.0760 -0.0330 -0.9472
10554TIP3    H253154   5.028   6.664   1.152 -0.4948  0.8605 -1.8987
10555TIP3   OH253155   4.465   3.593   4.412 -0.2507 -0.2724  0.0869
10555TIP3    H153156   4.550   3.596   4.456 -0.1638  2.2968 -0.0829
10555TIP3    H253157   4.478   3.530   4.341  1.6255  0.2363 -0.0912
10556TIP3   OH253158   1.584   1.338  13.827 -0.4821 -0.8718  0.0959
10556TIP3    H153159   1.602   1.254  13.784  0.7054 -0.7376  0.2981
10556TIP3    H253160   1.573   1.316  13.920  0.1287 -0.7790  0.1950
10557TIP3   OH253161   5.450   3.141  10.692 -0.3515 -0.0389  0.3343
10557TIP3    H153162   5.526   3.083  10.693 -2.2999 -2.7996  0.6370
10557TIP3    H253163   5.410   3.126  10.606 -2.5529 -1.6611  1.5275
10558TIP3   OH253164   1.429   1.559  11.041  0.1188  0.0850 -0.0886
10558TIP3    H153165   1.462   1.642  11.076 -1.1109  0.3157  0.5747
10558TIP3    H253166   1.504   1.521  10.996  0.9722  1.1060  0.4199
10559TIP3   OH253167   5.004   6.326  13.373 -0.0647 -0.1496  0.5962
10559TIP3    H153168   4.996   6.231  13.381  1.0370 -0.1975  1.5135
10559TIP3    H253169   5.081   6.339  13.318 -0.2045  0.2015  0.4861
10560TIP3   OH253170   1.839   2.786   1.564  0.2129  0.4024 -0.1235
10560TIP3    H153171   1.750   2.791   1.598  0.5618 -0.2224  0.9218
10560TIP3    H253172   1.866   2.695   1.580  0.3649  0.0188 -2.1991
10561TIP3   OH253173   4.568   4.179  14.572  0.1029  0.2645  0.4973
10561TIP3    H153174   4.617   4.169  14.654  0.6252  1.2441  0.3174
10561TIP3    H253175   4.572   4.273  14.553  0.6767 -0.0476 -1.0714
10562TIP3   OH253176   4.576   5.147  16.867 -0.7295 -0.2163  0.8084
10562TIP3    H153177   4.607   5.068  16.822  0.0001  0.8315 -0.6381
10562TIP3    H253178   4.628   5.150  16.947 -0.6506 -1.1187  0.8047
10563TIP3   OH253179   5.400   0.794   0.587 -0.3338 -0.1900 -0.3919
10563TIP3    H153180   5.419   0.721   0.528 -2.2489 -0.4962 -0.6750
10563TIP3    H253181   5.332   0.761   0.645  0.7147  0.4859  1.3109
10564TIP3   OH253182   5.140   2.630   4.539 -0.3945 -0.3741 -0.3468
10564TIP3    H153183   5.168   2.556   4.593  0.0793  0.4968  0.6469
10564TIP3    H253184   5.130   2.703   4.601 -1.3027  0.2806 -1.2288
10565TIP3   OH253185   5.083   0.351  11.101 -0.3434 -0.1395  0.1996
10565TIP3    H153186   5.083   0.439  11.139  0.7978  0.0078 -0.1124
10565TIP3    H253187   5.010   0.352  11.039  1.2520  1.4738 -1.7611
10566TIP3   OH253188   4.661   2.403  12.039  0.1846 -0.3121  0.1558
10566TIP3    H153189   4.611   2.421  12.118  0.6797 -1.5108  0.7611
10566TIP3    H253190   4.597   2.370  11.976 -0.5234  2.1717 -0.5667
10567TIP3   OH253191   3.917   1.462   0.740 -0.0391  0.1251  0.3076
10567TIP3    H153192   3.845   1.485   0.799 -0.7375 -0.3618 -0.3366
10567TIP3    H253193   3.895   1.506   0.658 -0.6051 -1.5316 -0.4786
10568TIP3   OH253194   6.212   2.889  13.910  0.1486  0.0163  0.1742
10568TIP3    H153195   6.221   2.975  13.868  0.8874  0.1122  0.5270
10568TIP3    H253196   6.221   2.907  14.004  2.1588 -0.6703  0.1594
10569TIP3   OH253197   4.641   4.254   2.510 -0.7273  0.5429  0.5197
10569TIP3    H153198   4.678   4.275   2.424 -0.0313 -0.1239  0.6493
10569TIP3    H253199   4.651   4.159   2.519 -0.5294  0.6352  1.4476
10570TIP3   OH253200   0.759   5.530  16.844 -0.2142 -0.3113 -0.3378
10570TIP3    H153201   0.683   5.532  16.902 -1.6962 -0.9604 -2.1527
10570TIP3    H253202   0.768   5.438  16.819  0.4493 -0.0622 -1.0565
10571TIP3   OH253203   4.416   3.253   0.150 -0.2296 -0.9560 -0.0688
10571TIP3    H153204   4.396   3.174   0.200  1.7234  0.0141  2.4543
10571TIP3    H253205   4.498   3.233   0.105 -1.2569 -1.3278 -1.8531
10572TIP3   OH253206   3.742   6.772  14.702  0.2459 -0.3659 -0.5227
10572TIP3    H153207   3.819   6.820  14.731  0.8649 -1.4439 -0.3120
10572TIP3    H253208   3.773   6.717  14.630  0.0020 -1.7147  0.3437
10573TIP3   OH253209   5.456   4.055   0.669 -0.0782  0.1095 -0.7348
10573TIP3    H153210   5.502   4.134   0.640  0.3818  0.6463  1.3487
10573TIP3    H253211   5.525   3.995   0.697 -0.5462  0.2141  0.6886
10574TIP3   OH253212   4.148   5.395   4.344  0.0837 -0.2487 -0.4994
10574TIP3    H153213   4.089   5.383   4.269 -0.9551  1.1889  0.0416
10574TIP3    H253214   4.145   5.489   4.362 -0.2214 -0.6345  1.7573
10575TIP3   OH253215   3.596   3.210   0.127  0.7127 -0.1529  0.4076
10575TIP3    H153216   3.633   3.297   0.146 -0.2443  0.2208  0.6235
10575TIP3    H253217   3.649   3.150   0.179  2.5396  0.0575 -1.0645
10576TIP3   OH253218   3.684   0.262   5.081  0.1166  0.3004  0.1757
10576TIP3    H153219   3.656   0.268   5.173  1.6202 -1.3288  0.8065
10576TIP3    H253220   3.604   0.239   5.034 -0.3090 -0.9710  1.4323
10577TIP3   OH253221   6.559   4.497  12.225 -0.3714  0.2673  0.0325
10577TIP3    H153222   6.625   4.437  12.192 -0.8622 -1.5439  2.0867
10577TIP3    H253223   6.606   4.556  12.284 -0.3593 -0.1085  0.4003
10578TIP3   OH253224   3.740   4.199   5.187 -0.1384 -0.1812 -0.0530
10578TIP3    H153225   3.660   4.147   5.192 -0.2660 -0.2464 -1.9948
10578TIP3    H253226   3.810   4.138   5.208 -0.5826 -0.0484  1.9724
10579TIP3   OH253227   5.790   6.772  12.583 -0.5481 -0.5273 -0.0381
10579TIP3    H153228   5.752   6.859  12.582  2.9185  1.1727 -0.3600
10579TIP3    H253229   5.794   6.747  12.490  1.1719  0.4065 -0.2651
10580TIP3   OH253230   5.584   5.266   0.710  0.3803 -0.0887  0.9827
10580TIP3    H153231   5.677   5.259   0.731 -0.0091 -0.6510  2.6819
10580TIP3    H253232   5.574   5.353   0.671  1.5687  0.0687  1.0116
10581TIP3   OH253233   4.435   0.082  13.428 -0.2828 -0.6662  0.2289
10581TIP3    H153234   4.511   0.048  13.475 -0.2282 -0.8466  0.0177
10581TIP3    H253235   4.373   0.107  13.496  0.1115 -0.1732  0.4124
10582TIP3   OH253236   6.210   1.981   0.702  0.9349 -0.0027 -0.8650
10582TIP3    H153237   6.146   1.985   0.630  1.3826 -1.4393 -1.3736
10582TIP3    H253238   6.190   1.899   0.747  0.3861  1.0847  0.9561
10583TIP3   OH253239   4.991   1.417  11.388  0.6681  0.1726  0.2574
10583TIP3    H153240   4.955   1.494  11.344  1.0069 -0.5299 -1.3330
10583TIP3    H253241   5.024   1.362  11.317  0.9599 -1.1796  1.3877
10584TIP3   OH253242   1.290   2.573  11.568  0.3409 -0.1107 -0.2303
10584TIP3    H153243   1.313   2.663  11.548 -1.8486  0.1894 -1.7459
10584TIP3    H253244   1.371   2.533  11.600  1.7787  1.8872 -1.2361
10585TIP3   OH253245   4.086   3.294  14.729  0.4347 -0.6972  0.4413
10585TIP3    H153246   4.017   3.318  14.790 -0.6109 -1.8034 -0.2507
10585TIP3    H253247   4.164   3.282  14.783 -0.0436  0.0154  1.3117
10586TIP3   OH253248   5.318   6.162  16.038  0.0455  0.4390 -0.2804
10586TIP3    H153249   5.409   6.163  16.070  0.1858 -0.0607 -0.6415
10586TIP3    H253250   5.325   6.130  15.948 -0.4601  0.7260 -0.4273
10587TIP3   OH253251   5.452   4.774   0.732  0.4272  0.4468 -0.0846
10587TIP3    H153252   5.450   4.869   0.726 -0.5788  0.3981 -0.7774
10587TIP3    H253253   5.537   4.749   0.696  1.2965  1.1476  1.4009
10588TIP3   OH253254   3.928   6.267  12.700 -0.2290 -1.1522 -0.2339
10588TIP3    H153255   3.958   6.258  12.791  2.2145 -0.1508 -0.8739
10588TIP3    H253256   3.863   6.338  12.704  0.1190 -0.8634  0.6793
10589TIP3   OH253257   5.649   4.121  13.336  0.1452 -0.4407  0.1428
10589TIP3    H153258   5.641   4.055  13.267 -1.1071 -1.8573  1.5503
10589TIP3    H253259   5.634   4.205  13.291 -0.4098 -1.2850 -1.3261
10590TIP3   OH253260   0.210   5.741   0.210  0.0348  0.5476 -0.2566
10590TIP3    H153261   0.165   5.758   0.127  2.0175 -1.4195 -1.8584
10590TIP3    H253262   0.178   5.654   0.237  1.2433  0.0611 -0.3218
10591TIP3   OH253263   2.962   0.119   5.056  0.5952  0.7033  0.5560
10591TIP3    H153264   2.965   0.066   5.136 -0.4221 -0.3716 -0.0800
10591TIP3    H253265   2.912   0.196   5.080  0.5648  0.5354  1.0392
10592TIP3   OH253266   2.924   0.014  16.436 -0.0830 -0.1399  0.2784
10592TIP3    H153267   2.956   0.104  16.424 -2.8955  0.8982 -0.1564
10592TIP3    H253268   2.930  -0.025  16.348 -0.1209  0.0572  0.1876
10593TIP3   OH253269   2.718   6.028  16.568  0.1306  0.1073  0.4817
10593TIP3    H153270   2.653   5.972  16.525 -0.2346  0.8694  0.0156
10593TIP3    H253271   2.761   6.074  16.496  1.5648 -0.7530  0.7407
10594TIP3   OH253272   3.216   5.241   0.157 -0.4812 -0.0735 -0.4196
10594TIP3    H153273   3.232   5.304   0.227 -0.0551 -1.9861  1.3081
10594TIP3    H253274   3.129   5.206   0.176 -0.7953  0.0793 -1.4709
10595TIP3   OH253275   3.566   5.642   4.382 -0.3053  0.0067 -0.1081
10595TIP3    H153276   3.536   5.584   4.453 -0.2020  0.4369  0.2939
10595TIP3    H253277   3.661   5.633   4.382 -0.2514  0.5456  0.2830
10596TIP3   OH253278   2.950   6.536  14.830 -0.1879 -0.1436 -0.6172
10596TIP3    H153279   2.892   6.597  14.875  0.1162 -0.4868  0.2658
10596TIP3    H253280   3.029   6.587  14.811  0.7900 -0.6530  1.6882
10597TIP3   OH253281   5.230   4.726   2.607  0.1407 -0.0368  0.2255
10597TIP3    H153282   5.248   4.816   2.636 -1.2786  1.0273 -1.9566
10597TIP3    H253283   5.141   4.709   2.636  0.5706 -0.9732  1.0563
10598TIP3   OH253284   4.138   1.953   2.724 -0.3243  0.0064 -0.0280
10598TIP3    H153285   4.159   1.942   2.631 -0.8182 -0.7612 -0.0548
10598TIP3    H253286   4.088   1.875   2.746  0.4645 -0.2087  1.0863
10599TIP3   OH253287   6.451   5.455   1.215  0.4619 -0.3267 -0.2617
10599TIP3    H153288   6.398   5.381   1.243  0.0010  0.6674  1.6468
10599TIP3    H253289   6.538   5.438   1.253  0.3111  0.1628  0.3251
10600TIP3   OH253290   5.816   5.852  13.423  0.0598 -0.0982 -0.0546
10600TIP3    H153291   5.790   5.932  13.468 -0.5900 -0.6188  0.5031
10600TIP3    H253292   5.746   5.836  13.359 -0.2652 -0.7017  0.4466
10601TIP3   OH253293   1.038   2.406   3.781 -0.2700  0.4755  0.1556
10601TIP3    H153294   1.009   2.372   3.866  1.6008  1.4655  1.2517
10601TIP3    H253295   1.047   2.328   3.726  1.1542 -0.5526  1.7345
10602TIP3   OH253296   6.452   0.766   4.196 -0.1046  0.0016  0.4603
10602TIP3    H153297   6.378   0.820   4.168 -1.8885 -1.5995  1.8387
10602TIP3    H253298   6.484   0.725   4.115  0.4740  2.0433 -0.4105
10603TIP3   OH253299   2.650   5.534   6.560  0.2278 -0.4039 -0.4286
10603TIP3    H153300   2.744   5.535   6.539 -0.0044  1.1661 -1.5342
10603TIP3    H253301   2.623   5.445   6.538  1.4257 -0.8606 -0.1784
10604TIP3   OH253302   4.532   1.291   4.808  0.2330 -0.0233 -0.1216
10604TIP3    H153303   4.626   1.288   4.788  0.3942 -2.3266  0.6962
10604TIP3    H253304   4.528   1.321   4.899  0.0016  2.0800 -0.7740
10605TIP3   OH253305   3.931   5.388  11.280  0.1824 -0.3947  0.7326
10605TIP3    H153306   3.964   5.459  11.225  0.4395 -2.2628 -1.6765
10605TIP3    H253307   4.008   5.356  11.327  0.7801 -1.2330 -0.7632
10606TIP3   OH253308   4.901   5.299   4.275  0.1271 -0.0234  0.1471
10606TIP3    H153309   4.948   5.238   4.218  0.0785  0.6724 -0.6475
10606TIP3    H253310   4.820   5.319   4.229  0.8908  1.9407 -0.4128
10607TIP3   OH253311   3.496   6.718  15.120  0.3671 -0.5841  0.2382
10607TIP3    H153312   3.435   6.651  15.153  0.4576 -1.1369 -0.6831
10607TIP3    H253313   3.459   6.801  15.151 -1.2490 -0.8478 -0.8522
10608TIP3   OH253314   2.999   1.230  11.775  0.1925  0.6417  0.4451
10608TIP3    H153315   2.968   1.294  11.710 -0.4246  0.8239  0.9093
10608TIP3    H253316   2.926   1.168  11.784  1.6090 -1.5289 -1.7221
10609TIP3   OH253317   2.763   5.696   5.164  0.1228  0.2939 -0.3369
10609TIP3    H153318   2.807   5.614   5.144  0.0800  0.4396 -1.0610
10609TIP3    H253319   2.765   5.702   5.259 -1.5820 -1.4971 -0.1295
10610TIP3   OH253320   5.946   0.370  11.004 -0.0104 -0.3228 -0.4843
10610TIP3    H153321   5.990   0.329  10.929 -0.5852 -1.1109 -0.4063
10610TIP3    H253322   5.956   0.464  10.989  0.0379 -0.4682 -1.4726
10611TIP3   OH253323   6.496   3.572   3.093  0.1527 -0.6395 -0.3414
10611TIP3    H153324   6.557   3.637   3.060 -0.5338  0.3595  0.3241
10611TIP3    H253325   6.417   3.584   3.041 -0.0838 -0.7212 -0.0085
10612TIP3   OH253326   1.743   0.519  14.326 -0.5023 -0.1084  0.3402
10612TIP3    H153327   1.786   0.589  14.375  2.2581 -1.0753 -0.4954
10612TIP3    H253328   1.693   0.564  14.258  3.6754  1.2472 -2.2203
10613TIP3   OH253329   2.293   5.590  15.623  0.1603 -0.0352  0.0636
10613TIP3    H153330   2.204   5.573  15.591  0.1364 -0.0682  0.1468
10613TIP3    H253331   2.286   5.672  15.671 -0.2237 -0.9351  1.6385
10614TIP3   OH253332   0.489   6.516   4.310 -0.0096 -0.3068  0.4334
10614TIP3    H153333   0.473   6.610   4.314  1.3782 -0.0109 -0.3952
10614TIP3    H253334   0.541   6.497   4.388  0.4300 -0.2243  0.1639
10615TIP3   OH253335   3.658   6.509   2.524  0.3876  0.2044 -0.2977
10615TIP3    H153336   3.654   6.597   2.562 -0.3540  0.4275 -0.8748
10615TIP3    H253337   3.748   6.502   2.491  0.2358  1.0493 -0.9410
10616TIP3   OH253338   0.081   4.204  12.232 -0.0722  0.0119  0.3298
10616TIP3    H153339   0.106   4.290  12.265  2.1037 -0.9544  1.4016
10616TIP3    H253340   0.129   4.142  12.287  0.3159 -1.8238 -1.9049
10617TIP3   OH253341   1.036   3.184   6.138  0.1763 -0.2097 -0.3891
10617TIP3    H153342   0.961   3.142   6.180 -1.0968  0.6891 -1.6930
10617TIP3    H253343   1.093   3.210   6.210 -0.0358 -2.1993  0.5564
10618TIP3   OH253344   1.854   4.316  16.891 -0.2194 -0.0015  0.3432
10618TIP3    H153345   1.832   4.242  16.834  0.3788 -1.0630  1.4466
10618TIP3    H253346   1.824   4.289  16.978  1.4724  0.3253  1.0794
10619TIP3   OH253347   6.606   1.942  16.633  0.2995  0.5572 -0.2861
10619TIP3    H153348   6.586   1.901  16.548 -2.1729 -0.2878  0.6250
10619TIP3    H253349   6.551   2.020  16.635  0.1433  0.4285  0.6518
10620TIP3   OH253350   6.086   3.876  12.621 -0.3328  0.2216  0.9781
10620TIP3    H153351   6.053   3.826  12.695 -1.4603  0.1811  0.4666
10620TIP3    H253352   6.007   3.901  12.572  0.3249  1.1098  0.3513
10621TIP3   OH253353   0.852   4.524  13.297  0.5541  0.6166  0.2193
10621TIP3    H153354   0.884   4.435  13.279  2.4110  0.9413  1.6314
10621TIP3    H253355   0.877   4.575  13.220  1.4431  0.3556  0.3228
10622TIP3   OH253356   6.073   6.452  17.040  0.2607  0.6275  0.3195
10622TIP3    H153357   6.062   6.535  17.085 -1.1179  1.4303 -1.3465
10622TIP3    H253358   6.040   6.386  17.101 -1.0255  1.6023  0.7138
10623TIP3   OH253359   6.038   6.625   1.177  0.2349  0.4806 -0.0012
10623TIP3    H153360   5.961   6.651   1.126 -0.3477 -1.0199  0.0646
10623TIP3    H253361   6.076   6.707   1.207 -1.1971  1.2635 -0.2642
10624TIP3   OH253362   3.298   4.927   3.936 -0.1012  0.7662 -0.0874
10624TIP3    H153363   3.267   4.995   3.876 -0.1199  0.7559 -0.0894
10624TIP3    H253364   3.219   4.876   3.956  0.0834  0.1746 -0.8199
10625TIP3   OH253365   1.361   5.590  12.804  0.2094 -0.8189 -0.1156
10625TIP3    H153366   1.438   5.533  12.800  0.3923 -0.7761  1.7072
10625TIP3    H253367   1.306   5.562  12.731  1.1662 -2.0347 -0.4045
10626TIP3   OH253368   6.013   4.907  16.858  0.1543 -0.6802  0.5003
10626TIP3    H153369   5.963   4.826  16.861  0.7502 -1.0631  0.2938
10626TIP3    H253370   6.066   4.900  16.778 -0.6498  0.4293 -0.1729
10627TIP3   OH253371   4.928   3.573  14.598  0.1506 -0.4073 -0.1118
10627TIP3    H153372   4.896   3.660  14.621  0.3128 -0.9445  2.4240
10627TIP3    H253373   5.003   3.588  14.541 -1.0594  1.0078 -1.4311
10628TIP3   OH253374   0.523   0.124  10.854 -0.3950  0.5755 -0.4194
10628TIP3    H153375   0.602   0.070  10.844  0.0755  0.7780  1.7310
10628TIP3    H253376   0.456   0.077  10.804  0.2745 -1.4034  0.4438
10629TIP3   OH253377   5.885   5.521  16.356 -0.5215  0.1127 -0.3748
10629TIP3    H153378   5.880   5.474  16.439  1.1765 -0.1840 -0.4026
10629TIP3    H253379   5.958   5.582  16.367 -1.0070  0.8768 -1.2582
10630TIP3   OH253380   4.810   1.255  13.984 -0.1018  0.4496  0.1280
10630TIP3    H153381   4.752   1.252  13.908 -1.1460  1.9242  0.8344
10630TIP3    H253382   4.771   1.193  14.046 -0.5620  0.9662  0.3553
10631TIP3   OH253383   3.137   0.286   4.151 -0.1746  0.1336  0.1580
10631TIP3    H153384   3.175   0.264   4.235  0.1349  1.1774  0.3024
10631TIP3    H253385   3.198   0.349   4.112 -0.1000 -0.6403 -1.0249
10632TIP3   OH253386   5.236   4.801  12.582 -0.1742  0.1936  0.6975
10632TIP3    H153387   5.281   4.882  12.603  0.9590 -0.1387 -0.3323
10632TIP3    H253388   5.205   4.813  12.492  2.4613 -1.4896 -0.5475
10633TIP3   OH253389   3.175   0.058   2.398  0.4700  0.5878 -0.2203
10633TIP3    H153390   3.161  -0.028   2.438 -0.1246  1.1027  0.7207
10633TIP3    H253391   3.128   0.054   2.315  0.4073  0.0177 -0.1596
10634TIP3   OH253392   6.542   0.060   3.676  0.4118 -0.3673  0.0191
10634TIP3    H153393   6.538   0.149   3.711 -2.0099 -0.1292 -0.6800
10634TIP3    H253394   6.577   0.070   3.588  2.9139 -0.5185  0.9280
10635TIP3   OH253395   2.927   1.904   1.970 -0.4620  0.3916 -0.1040
10635TIP3    H153396   2.865   1.910   1.898 -1.4795  0.3686  0.7479
10635TIP3    H253397   2.965   1.992   1.977 -0.5015  0.4444 -0.5235
10636TIP3   OH253398   2.866   3.130  15.334 -0.2586  0.0430  0.1072
10636TIP3    H153399   2.794   3.091  15.385 -0.9927  0.3933 -0.6333
10636TIP3    H253400   2.822   3.182  15.266  0.6961  1.2776  0.3920
10637TIP3   OH253401   0.399   5.818  16.079  0.5861 -0.1942 -0.1612
10637TIP3    H153402   0.332   5.887  16.077  0.8954  0.1809  1.3264
10637TIP3    H253403   0.352   5.740  16.108 -0.1661 -1.1741 -3.5372
10638TIP3   OH253404   3.239   0.821   0.591 -0.1303  0.1864 -0.0083
10638TIP3    H153405   3.284   0.905   0.584  1.0115  0.0345  3.3208
10638TIP3    H253406   3.222   0.794   0.501  2.5242  2.3606 -1.2999
10639TIP3   OH253407   2.186   5.918   5.397 -0.3253 -0.2341  0.4937
10639TIP3    H153408   2.241   5.880   5.465 -0.6240 -1.1817  0.2321
10639TIP3    H253409   2.116   5.963   5.444  0.8833  1.3734  0.8392
10640TIP3   OH253410   4.134   1.315   2.308  0.1196  0.0712 -0.0587
10640TIP3    H153411   4.203   1.265   2.351  0.9524 -0.9658 -2.4193
10640TIP3    H253412   4.117   1.267   2.227 -2.0348  1.3804 -0.4560
10641TIP3   OH253413   3.397   3.541  16.546 -0.1310 -0.6045  0.1741
10641TIP3    H153414   3.345   3.500  16.615  0.1982 -0.9304  0.2311
10641TIP3    H253415   3.351   3.623  16.528  0.5886  0.1972  1.8126
10642TIP3   OH253416   0.251   1.249  16.259  0.8729  0.3257 -0.5419
10642TIP3    H153417   0.270   1.156  16.269  0.6336  0.1836 -1.3326
10642TIP3    H253418   0.181   1.252  16.193 -0.0783  0.9838  0.4783
10643TIP3   OH253419   0.542   1.398  10.307 -0.2896  0.6397  0.3342
10643TIP3    H153420   0.526   1.445  10.389 -3.8610  0.9136 -0.3754
10643TIP3    H253421   0.510   1.309  10.324 -2.3330  1.0369 -1.0368
10644TIP3   OH253422   0.207   2.345   2.964  0.1113  0.1929 -0.5690
10644TIP3    H153423   0.204   2.249   2.963  0.0203  0.1267  1.4482
10644TIP3    H253424   0.115   2.371   2.972  0.1368  0.4707 -1.1299
10645TIP3   OH253425   2.340   3.721   3.318  0.0784  0.2406 -0.9395
10645TIP3    H153426   2.406   3.775   3.361  1.3130 -1.3788 -0.7319
10645TIP3    H253427   2.382   3.691   3.238  0.2425 -2.1364 -0.0210
10646TIP3   OH253428   6.128   1.889   0.294  0.9207 -0.0256  0.3721
10646TIP3    H153429   6.064   1.954   0.325 -0.2675 -1.1160  0.2966
10646TIP3    H253430   6.137   1.908   0.200  1.7809  0.9952  0.6392
10647TIP3   OH253431   0.360   3.898  14.149  0.5248  0.7794  1.1470
10647TIP3    H153432   0.426   3.904  14.219  0.1747  2.0427  1.4033
10647TIP3    H253433   0.277   3.904  14.195  0.2893  1.6992  0.6329
10648TIP3   OH253434   1.515   5.222  11.761 -0.4199 -0.6072 -0.5043
10648TIP3    H153435   1.426   5.247  11.788  0.4931  1.1949  1.1400
10648TIP3    H253436   1.570   5.295  11.790  1.3014 -0.3753 -3.8834
10649TIP3   OH253437   4.356   2.136   4.490  0.3441 -0.7666  0.1265
10649TIP3    H153438   4.387   2.151   4.401 -0.2388 -0.8533 -0.0968
10649TIP3    H253439   4.269   2.098   4.479 -0.4837  0.8525  0.7501
10650TIP3   OH253440   6.057   5.539  11.947 -0.2971  0.5366 -0.7512
10650TIP3    H153441   6.099   5.580  12.023 -2.6664  0.9627  0.4062
10650TIP3    H253442   6.087   5.592  11.873 -2.2942  3.8030  0.5435
10651TIP3   OH253443   4.174   1.224   4.237 -0.3570 -0.6902  0.5273
10651TIP3    H153444   4.245   1.191   4.183 -0.3514  0.2020 -0.0398
10651TIP3    H253445   4.094   1.200   4.189 -0.3779 -0.4589  0.4445
10652TIP3   OH253446   3.578   3.195   3.710  0.3010 -0.0842 -0.0452
10652TIP3    H153447   3.571   3.101   3.729 -1.4118 -0.3722 -1.9020
10652TIP3    H253448   3.550   3.237   3.791  0.2989 -1.1640  0.5417
10653TIP3   OH253449   2.285   1.828   1.142  0.2011  0.4893 -0.2135
10653TIP3    H153450   2.291   1.782   1.225 -2.3569 -0.3057 -0.3950
10653TIP3    H253451   2.375   1.834   1.111  1.0931 -0.1152  2.0913
10654TIP3   OH253452   0.322   4.411   5.682  0.2818  0.1680 -0.0422
10654TIP3    H153453   0.342   4.439   5.593  0.6131 -0.1775 -0.0785
10654TIP3    H253454   0.229   4.389   5.680  0.6818 -1.5960 -0.7804
10655TIP3   OH253455   0.729   4.956  12.416 -0.0221  0.0271  0.1933
10655TIP3    H153456   0.649   4.948  12.468  0.0501  1.5428  0.5869
10655TIP3    H253457   0.717   4.894  12.344 -0.6163 -1.3070  1.3845
10656TIP3   OH253458   1.736   2.804   5.813 -0.0307  0.0974  0.3497
10656TIP3    H153459   1.745   2.819   5.907 -0.9601  0.4721  0.3891
10656TIP3    H253460   1.709   2.712   5.806 -0.1690  0.1277  0.4662
10657TIP3   OH253461   2.409   1.333   5.926  0.2778 -0.3898  0.4459
10657TIP3    H153462   2.344   1.309   5.861  1.5343  0.8108 -1.3246
10657TIP3    H253463   2.454   1.250   5.946 -1.5686 -1.1826  1.5234
10658TIP3   OH253464   0.330   0.713   2.481  0.1786 -0.8880 -0.1744
10658TIP3    H153465   0.291   0.786   2.434  0.8940  0.9281  1.9112
10658TIP3    H253466   0.383   0.668   2.415 -0.4189  0.3430 -1.5472
10659TIP3   OH253467   0.305   0.069   1.790  0.0772  0.0795 -0.2745
10659TIP3    H153468   0.287   0.161   1.810  0.2921  0.0558  0.0325
10659TIP3    H253469   0.245   0.019   1.845  0.7841  0.0111  0.4480
10660TIP3   OH253470   6.632   4.115  13.154  0.0878 -0.1972  0.3728
10660TIP3    H153471   6.639   4.167  13.235  0.5584 -0.7579  0.7064
10660TIP3    H253472   6.606   4.028  13.184  2.2800 -0.9950  0.1781
10661TIP3   OH253473   4.439   0.121   4.550  0.1296  0.4152  0.5941
10661TIP3    H153474   4.508   0.111   4.616  2.3247  1.4386 -1.3813
10661TIP3    H253475   4.447   0.044   4.494  0.4713  1.0713 -0.2929
10662TIP3   OH253476   6.717   2.726   2.500  0.4771 -0.1804  0.1879
10662TIP3    H153477   6.763   2.654   2.455 -0.0614 -0.3979 -0.0279
10662TIP3    H253478   6.762   2.734   2.584 -0.1135 -1.4923  0.6652
10663TIP3   OH253479   6.561   0.455  14.520 -0.4235  0.3019 -0.0619
10663TIP3    H153480   6.642   0.405  14.526 -1.2443 -0.9556  3.5949
10663TIP3    H253481   6.509   0.409  14.454  1.5534  0.8790 -2.1361
10664TIP3   OH253482   3.684   2.790   1.736 -0.1588  0.0838 -0.7903
10664TIP3    H153483   3.779   2.777   1.728 -0.2866 -0.9051 -0.8066
10664TIP3    H253484   3.661   2.844   1.660  0.3433  0.0485 -0.9731
10665TIP3   OH253485   4.145   3.443   1.681  0.3416  0.3311  0.2394
10665TIP3    H153486   4.124   3.476   1.768  1.4567  0.3983  0.4896
10665TIP3    H253487   4.060   3.438   1.637 -0.1563  0.9342  1.0988
10666TIP3   OH253488   4.975   2.930  12.168 -0.0539 -0.1480  0.4206
10666TIP3    H153489   4.899   2.984  12.190  1.6444  2.5878 -0.0027
10666TIP3    H253490   4.952   2.843  12.201 -2.8400  0.8297  1.3906
10667TIP3   OH253491   0.816   2.724  16.968 -0.2023 -0.7319 -0.2541
10667TIP3    H153492   0.727   2.689  16.974 -1.0511  1.3410  0.5288
10667TIP3    H253493   0.867   2.655  16.927 -2.3116 -1.7514 -1.3161
10668TIP3   OH253494   4.470   3.023   4.982  0.1885 -0.3832  0.4410
10668TIP3    H153495   4.513   2.981   4.907  1.3063 -0.0842  0.9003
10668TIP3    H253496   4.392   2.971   4.997 -0.3977 -0.0760 -1.3379
10669TIP3   OH253497   0.963   1.948  14.995  0.4416 -0.5884 -0.2554
10669TIP3    H153498   1.057   1.935  15.008  0.5619 -0.3965 -0.8888
10669TIP3    H253499   0.936   1.878  14.936  0.3356 -0.2221 -0.6505
10670TIP3   OH253500   2.984   0.961   6.282 -0.0637 -0.0359  0.1175
10670TIP3    H153501   2.946   0.950   6.195 -1.3370 -2.0187  0.8422
10670TIP3    H253502   3.003   0.872   6.311  0.3873  0.5812  1.8338
10671TIP3   OH253503   4.594   3.917   1.267 -0.6921  0.2713 -0.3248
10671TIP3    H153504   4.679   3.873   1.273 -0.4571  0.7466 -0.1428
10671TIP3    H253505   4.600   3.990   1.328 -0.8741  0.8985 -1.0440
10672TIP3   OH253506   4.515   6.829  14.576 -0.2629  0.3208  0.3456
10672TIP3    H153507   4.609   6.814  14.565 -0.1208  0.6544  1.0405
10672TIP3    H253508   4.509   6.896  14.645 -0.9732  1.2119 -0.5447
10673TIP3   OH253509   4.257   6.810   5.722 -0.2029  0.1093  0.3639
10673TIP3    H153510   4.247   6.722   5.758 -0.8453  0.0006 -0.0688
10673TIP3    H253511   4.318   6.853   5.782 -1.1635 -0.0912  1.5404
10674TIP3   OH253512   6.533   6.520  15.448 -0.7810  1.0291 -0.2005
10674TIP3    H153513   6.485   6.443  15.479  1.3711  0.5619  2.3624
10674TIP3    H253514   6.563   6.563  15.528  0.0196  3.2836 -1.6177
10675TIP3   OH253515   3.072   3.114  11.187  0.2112  0.5115 -0.2367
10675TIP3    H153516   3.152   3.101  11.136 -0.3687 -0.8595 -0.8523
10675TIP3    H253517   3.002   3.095  11.125 -0.5375 -0.0323  0.7621
10676TIP3   OH253518   4.286   5.236   1.328  0.2235  0.3412 -0.7973
10676TIP3    H153519   4.273   5.328   1.307 -0.2165  0.3365 -0.5397
10676TIP3    H253520   4.361   5.235   1.387 -0.3789  0.6304 -0.0068
10677TIP3   OH253521   1.519   4.852   2.925 -0.1320 -0.1039  0.0603
10677TIP3    H153522   1.430   4.888   2.924 -0.6573 -1.3447 -0.4251
10677TIP3    H253523   1.575   4.925   2.897 -1.0216  0.6151  0.1097
10678TIP3   OH253524   0.114   0.071  13.284  0.0986 -0.2122 -0.5003
10678TIP3    H153525   0.026   0.061  13.320  0.6712 -0.9483  0.7450
10678TIP3    H253526   0.100   0.089  13.191 -1.3641 -0.1414 -0.2862
10679TIP3   OH253527   6.510   5.627   1.462  0.2103 -1.1339  0.6290
10679TIP3    H153528   6.589   5.681   1.469  0.0193 -0.7231 -0.3322
10679TIP3    H253529   6.467   5.657   1.383 -0.7429 -1.5988  0.9586
10680TIP3   OH253530   2.761   4.762  11.657  0.8923  0.0590 -0.2175
10680TIP3    H153531   2.815   4.730  11.585  0.7422  2.2106 -1.3485
10680TIP3    H253532   2.693   4.815  11.615 -1.0188 -1.0239  1.3080
10681TIP3   OH253533   2.876   6.715   3.189  0.3629 -0.6767 -0.0665
10681TIP3    H153534   2.911   6.741   3.274 -0.1272 -1.3264  0.3488
10681TIP3    H253535   2.835   6.630   3.206  1.3981 -1.4413 -1.2398
10682TIP3   OH253536   1.816   3.294  12.505 -0.0218  0.4302 -0.4544
10682TIP3    H153537   1.774   3.219  12.549  1.4535  2.2850  4.8976
10682TIP3    H253538   1.748   3.362  12.504  0.4062  0.8900  0.5628
10683TIP3   OH253539   6.325   2.890  13.586 -0.4537  0.3773  0.1163
10683TIP3    H153540   6.262   2.825  13.615 -0.8863  0.2571 -1.0327
10683TIP3    H253541   6.388   2.897  13.658 -2.2991  1.2452  1.7584
10684TIP3   OH253542   6.356   6.396   1.281  0.4032 -0.1257  0.5954
10684TIP3    H153543   6.334   6.443   1.201  0.7039 -1.4385 -0.2986
10684TIP3    H253544   6.274   6.392   1.330 -0.1155 -0.4555 -0.2776
10685TIP3   OH253545   0.664   1.834  15.541 -0.5751  0.3083  0.3831
10685TIP3    H153546   0.677   1.897  15.612  0.6636 -0.4697  0.8647
10685TIP3    H253547   0.591   1.779  15.571 -0.2501  0.1672  0.9261
10686TIP3   OH253548   4.650   2.083  10.694  0.3196 -0.3359  0.0239
10686TIP3    H153549   4.667   2.046  10.607  0.6084 -1.1757  0.4279
10686TIP3    H253550   4.680   2.174  10.687 -0.1538 -0.2354 -0.9084
10687TIP3   OH253551   1.730   3.513   0.424 -0.9430 -0.4692  0.1559
10687TIP3    H153552   1.809   3.459   0.430  0.8092  2.0579  3.5047
10687TIP3    H253553   1.666   3.469   0.480 -0.7452 -0.8288  0.1027
10688TIP3   OH253554   4.975   4.045   0.280  0.1725 -0.5083 -0.2123
10688TIP3    H153555   5.032   4.057   0.355 -1.1180 -1.2332  0.9358
10688TIP3    H253556   5.034   4.031   0.206  1.5433  2.5461  0.1607
10689TIP3   OH253557   0.807   2.612  13.931  0.3105  0.2233 -0.3075
10689TIP3    H153558   0.724   2.643  13.895 -0.1023  0.3015  0.6809
10689TIP3    H253559   0.794   2.518  13.943  0.6927  0.0796 -1.0090
10690TIP3   OH253560   4.185   6.528  16.817 -0.6003 -0.3914 -0.7692
10690TIP3    H153561   4.121   6.514  16.887 -0.7033  0.9318 -0.5567
10690TIP3    H253562   4.179   6.622  16.799  0.7377 -0.3832 -1.2851
10691TIP3   OH253563   1.720   1.904  10.542 -0.5338  0.3245  0.1267
10691TIP3    H153564   1.771   1.975  10.579  0.0741  0.8367 -1.6054
10691TIP3    H253565   1.785   1.840  10.513 -0.9116  0.3329 -0.7897
10692TIP3   OH253566   2.973   5.458   4.579 -0.2075 -0.3596 -0.8479
10692TIP3    H153567   2.994   5.373   4.540 -1.6104 -1.4472  0.6830
10692TIP3    H253568   2.887   5.447   4.618  0.6316  0.9846  1.6052
10693TIP3   OH253569   4.717   6.783  14.898  0.3131 -0.0308 -0.2698
10693TIP3    H153570   4.640   6.839  14.889  0.2404  0.4515  2.4844
10693TIP3    H253571   4.681   6.695  14.908  0.1426  0.0855  0.1844
10694TIP3   OH253572   6.789   1.710   0.790 -0.1535  0.7303  0.3067
10694TIP3    H153573   6.778   1.630   0.738  0.4043  0.3591  0.7505
10694TIP3    H253574   6.747   1.691   0.874 -0.6859  1.1802  0.1513
10695TIP3   OH253575   1.963   6.064   4.417 -0.1100  0.3209  0.5455
10695TIP3    H153576   1.942   6.036   4.506  0.1398  0.9736  0.8113
10695TIP3    H253577   2.020   5.995   4.383 -1.7915 -0.9475  0.1857
10696TIP3   OH253578   6.279   1.554  10.521  0.5878  0.1836 -0.1653
10696TIP3    H153579   6.335   1.508  10.458 -0.2024  0.7278 -1.3079
10696TIP3    H253580   6.310   1.526  10.607  1.2065 -1.1747 -0.8095
10697TIP3   OH253581   1.940   0.014   3.836  0.1737 -0.3076 -0.3399
10697TIP3    H153582   1.948  -0.031   3.920 -1.0114 -0.4225 -0.2615
10697TIP3    H253583   2.030   0.027   3.806  0.5725 -3.0584 -0.5655
10698TIP3   OH253584   2.547   6.296   0.926  0.2515  0.2334 -1.0989
10698TIP3    H153585   2.526   6.239   0.852 -1.2203 -0.3739 -0.2540
10698TIP3    H253586   2.612   6.247   0.976 -1.0940 -0.7895 -0.3130
10699TIP3   OH253587   5.074   0.683   2.060  0.0501 -0.2934 -0.1582
10699TIP3    H153588   5.156   0.660   2.016  0.0977  1.1534 -0.8897
10699TIP3    H253589   5.097   0.690   2.152  1.3614  2.3384 -0.5835
10700TIP3   OH253590   2.143   3.250   2.780  0.5568  0.5310 -0.3347
10700TIP3    H153591   2.052   3.262   2.751 -0.6373 -1.8193  2.0333
10700TIP3    H253592   2.154   3.312   2.852 -0.4518 -1.4915  1.6856
10701TIP3   OH253593   4.579   3.058  16.312 -0.0969  0.1046 -0.2371
10701TIP3    H153594   4.600   3.058  16.218  1.6039  0.6838  0.1187
10701TIP3    H253595   4.527   2.978  16.324 -0.0825 -0.1453 -1.6132
10702TIP3   OH253596   6.155   6.032   1.413  0.1677 -0.4699  0.4047
10702TIP3    H153597   6.180   6.074   1.494  1.4331 -0.9075  0.2559
10702TIP3    H253598   6.214   5.956   1.405 -0.9122 -1.2869 -0.1795
10703TIP3   OH253599   1.916   1.070   3.186 -0.0980  0.4963  0.0436
10703TIP3    H153600   1.828   1.098   3.161  0.0074  0.3316 -0.5370
10703TIP3    H253601   1.940   1.126   3.260 -0.5984  0.6984  0.0518
10704TIP3   OH253602   0.898   2.182   0.756 -0.2983  1.3771  0.6547
10704TIP3    H153603   0.855   2.169   0.672 -0.7597  0.4611  1.0131
10704TIP3    H253604   0.867   2.109   0.810  1.3775  0.9380  1.0664
10705TIP3   OH253605   2.438   0.047  11.506  0.5605 -0.0215  0.7041
10705TIP3    H153606   2.346   0.023  11.497  0.4711  0.2263  0.9759
10705TIP3    H253607   2.437   0.140  11.526  0.9556  0.6579 -2.0414
10706TIP3   OH253608   0.365   2.261   1.871  0.3607 -0.0152 -0.3621
10706TIP3    H153609   0.414   2.343   1.881 -0.6897  0.4011  2.3613
10706TIP3    H253610   0.401   2.203   1.939 -1.1768 -0.5724  0.0251
10707TIP3   OH253611   4.976   6.530   5.978  0.0193 -0.3383  0.3316
10707TIP3    H153612   4.976   6.625   5.993  0.3489 -0.2412 -0.2670
10707TIP3    H253613   5.065   6.511   5.948 -0.3535 -0.6783 -0.5737
10708TIP3   OH253614   3.047   6.813   0.452  0.2855 -0.2183 -0.2396
10708TIP3    H153615   3.101   6.765   0.389 -0.4755 -0.7949 -0.4590
10708TIP3    H253616   2.993   6.746   0.494 -1.5542  0.5263 -1.2930
10709TIP3   OH253617   4.659   5.813  12.100  0.7350  0.1867  0.2415
10709TIP3    H153618   4.630   5.741  12.043 -1.8321 -0.0048  1.6348
10709TIP3    H253619   4.749   5.831  12.072  0.4936 -1.6580 -2.0429
10710TIP3   OH253620   2.783   5.880   1.781  0.4790 -0.2562  0.0952
10710TIP3    H153621   2.723   5.871   1.855  0.8832 -0.4072  0.4104
10710TIP3    H253622   2.782   5.794   1.740 -1.0387  0.2927 -1.0976
10711TIP3   OH253623   5.415   4.843  15.997  0.1234 -0.0555  0.4497
10711TIP3    H153624   5.342   4.793  15.960 -0.7069  1.0796  0.5268
10711TIP3    H253625   5.409   4.828  16.091 -1.5867  2.0057  0.7501
10712TIP3   OH253626   3.855   1.319   5.512 -0.8688 -0.1203 -0.0037
10712TIP3    H153627   3.876   1.324   5.419  2.2221  1.3418  0.6571
10712TIP3    H253628   3.849   1.410   5.541 -1.7260 -0.5424  1.2629
10713TIP3   OH253629   1.402   5.543   1.972 -0.1441 -0.5188 -0.6464
10713TIP3    H153630   1.358   5.612   1.921  1.2423  0.5164 -0.5068
10713TIP3    H253631   1.370   5.461   1.933 -0.3186  0.2232 -2.1666
10714TIP3   OH253632   5.865   1.454   1.440 -0.2135 -0.1274  0.3444
10714TIP3    H153633   5.900   1.521   1.383  0.3215  0.2634  1.1189
10714TIP3    H253634   5.925   1.451   1.515  0.7441 -2.6206 -0.4056
10715TIP3   OH253635   4.698   4.562   2.494  0.2407 -0.0078  0.1253
10715TIP3    H153636   4.685   4.471   2.522 -2.3093  0.0659 -0.5592
10715TIP3    H253637   4.744   4.554   2.411 -0.2860 -0.7253 -0.1156
10716TIP3   OH253638   3.870   0.741   3.736  0.5296  0.1417 -0.4498
10716TIP3    H153639   3.802   0.769   3.675  0.1680 -0.2661 -0.2397
10716TIP3    H253640   3.829   0.672   3.787  1.2752 -0.4843 -0.6816
10717TIP3   OH253641   4.157   4.014  15.937 -0.2185  0.2391 -0.3768
10717TIP3    H153642   4.087   3.974  15.988  0.3974 -0.3622  0.0279
10717TIP3    H253643   4.236   3.999  15.989 -0.0011  2.2919 -0.0543
10718TIP3   OH253644   0.830   5.534   4.095  0.2937 -0.0920  0.4949
10718TIP3    H153645   0.784   5.484   4.028 -1.6999  1.9040  0.2412
10718TIP3    H253646   0.784   5.513   4.176 -0.3265  0.9836  0.4416
10719TIP3   OH253647   3.647   1.086  15.800  0.2130  1.0621 -0.0137
10719TIP3    H153648   3.697   1.005  15.792  0.2843  1.0109  0.7889
10719TIP3    H253649   3.688   1.147  15.739 -1.3142 -0.1941 -2.4078
10720TIP3   OH253650   5.106   3.213  12.778  0.2251 -0.0053 -0.7219
10720TIP3    H153651   5.154   3.130  12.768  2.2873  1.1978 -1.2945
10720TIP3    H253652   5.031   3.204  12.720  1.5004 -0.7322 -2.3250
10721TIP3   OH253653   2.361   1.057  16.643  0.2621  0.3207  0.2744
10721TIP3    H153654   2.278   1.092  16.610  0.4553  0.5657  0.0440
10721TIP3    H253655   2.336   0.979  16.692 -0.0812  0.2470 -0.0131
10722TIP3   OH253656   1.296   3.521   6.887 -0.1010  0.3740 -0.3077
10722TIP3    H153657   1.233   3.455   6.916  0.2842  1.2441  2.9096
10722TIP3    H253658   1.289   3.591   6.952  0.7556  2.7553 -2.5776
10723TIP3   OH253659   0.595   0.957   3.895  0.2266 -0.0846  0.2173
10723TIP3    H153660   0.548   1.031   3.932 -0.1627 -1.3804  2.4750
10723TIP3    H253661   0.587   0.969   3.800 -2.7408  0.9574  0.4822
10724TIP3   OH253662   5.107   6.727   5.722  0.4930  0.2847 -0.0660
10724TIP3    H153663   5.076   6.724   5.813 -0.2996 -0.2641 -0.3468
10724TIP3    H253664   5.172   6.657   5.718 -0.9965 -1.1386 -0.4477
10725TIP3   OH253665   6.211   0.745  16.496  0.0589  0.2132  0.2498
10725TIP3    H153666   6.140   0.725  16.558  1.5282  0.6145  2.1733
10725TIP3    H253667   6.254   0.661  16.483  0.0455  0.2202  0.1630
10726TIP3   OH253668   2.202   2.074  10.310  0.4664 -0.2913  0.7455
10726TIP3    H153669   2.164   1.988  10.331 -0.2895  0.5549  3.1354
10726TIP3    H253670   2.151   2.104  10.234 -0.4162 -1.2246  0.9416
10727TIP3   OH253671   5.806   5.023  15.936 -0.1053  0.6054  0.4652
10727TIP3    H153672   5.781   4.932  15.949 -0.7261 -0.0964 -4.2337
10727TIP3    H253673   5.730   5.073  15.966  0.3522 -0.2354  3.3702
10728TIP3   OH253674   0.757   1.801  13.605 -0.4942  0.0432 -0.3959
10728TIP3    H153675   0.802   1.836  13.681  0.1343 -2.0141  0.2186
10728TIP3    H253676   0.827   1.775  13.545 -0.9371 -0.1095 -0.8524
10729TIP3   OH253677   1.586   3.189   5.278 -0.2550 -0.1521  0.3095
10729TIP3    H153678   1.562   3.114   5.332  1.5506 -1.7788 -1.0356
10729TIP3    H253679   1.502   3.229   5.255 -1.2121 -1.2160  1.7713
10730TIP3   OH253680   5.287   2.337  16.420 -0.0664  0.0179 -0.1232
10730TIP3    H153681   5.208   2.308  16.374  0.8390 -0.5938 -1.3634
10730TIP3    H253682   5.304   2.424  16.385  0.2710 -0.1945 -0.4990
10731TIP3   OH253683   1.908   4.614   5.076 -0.2349 -0.0008 -0.0299
10731TIP3    H153684   1.886   4.616   5.169 -0.8845  0.1660 -0.1850
10731TIP3    H253685   1.905   4.521   5.053  0.8535 -0.1447  0.3217
10732TIP3   OH253686   6.428   5.824   5.002  0.0371  0.0110  0.1479
10732TIP3    H153687   6.382   5.870   5.072  1.3138  0.2932  0.8347
10732TIP3    H253688   6.488   5.765   5.048  0.7220  0.0162 -0.7130
10733TIP3   OH253689   0.465   1.149   1.178  0.2002  0.1142  0.7780
10733TIP3    H153690   0.514   1.224   1.211  0.1673  1.5520 -2.1396
10733TIP3    H253691   0.529   1.097   1.129 -0.5204  0.3619 -0.4782
10734TIP3   OH253692   6.048   0.373   6.131  0.2188 -0.5972  0.0719
10734TIP3    H153693   6.074   0.465   6.133  0.0015 -0.5356  0.1277
10734TIP3    H253694   6.126   0.327   6.101  0.2073 -0.3479 -0.3572
10735TIP3   OH253695   5.314   2.946  14.675  0.0844  0.4772  0.8131
10735TIP3    H153696   5.370   2.895  14.616 -0.6731 -0.5026  0.9053
10735TIP3    H253697   5.226   2.912  14.660 -0.3156  1.1375  1.5546
10736TIP3   OH253698   0.956   6.660  15.884  0.2966  0.0649  0.6016
10736TIP3    H153699   1.012   6.607  15.940  0.5232 -0.3665 -0.0309
10736TIP3    H253700   0.939   6.739  15.935  2.7575  0.9282  0.1921
10737TIP3   OH253701   3.162   6.670   0.242  0.0807  0.1410 -0.0664
10737TIP3    H153702   3.076   6.629   0.233  0.2986 -1.0537  2.3784
10737TIP3    H253703   3.222   6.607   0.201 -0.0554  0.2893 -0.5000
10738TIP3   OH253704   4.186   1.828  11.654 -0.3721  0.2467 -0.5289
10738TIP3    H153705   4.211   1.736  11.641  0.6404  0.4273  0.0124
10738TIP3    H253706   4.170   1.861  11.566 -2.3241 -0.8475 -0.6365
10739TIP3   OH253707   6.833   2.132  10.929 -0.2796  0.7864 -0.3721
10739TIP3    H153708   6.888   2.198  10.971  1.2318 -0.9610  0.5316
10739TIP3    H253709   6.862   2.129  10.838 -1.3981  2.3579 -0.8308
10740TIP3   OH253710   6.061   0.496  13.030  0.5359 -0.2593 -0.2781
10740TIP3    H153711   6.039   0.409  12.997 -2.1148 -0.0836  0.8177
10740TIP3    H253712   5.985   0.522  13.082  1.9752  2.0141  0.8431
10741TIP3   OH253713   3.723   3.749  12.974 -0.1067  0.4927  0.0391
10741TIP3    H153714   3.735   3.833  12.930  0.5614  0.5032  0.2368
10741TIP3    H253715   3.630   3.746  12.995 -0.1877  1.0508 -0.2374
10742TIP3   OH253716   6.111   5.168   5.606 -0.3559  0.4877 -0.3818
10742TIP3    H153717   6.037   5.123   5.564 -0.1736  0.7161 -0.9638
10742TIP3    H253718   6.085   5.260   5.608  0.2176  0.6803 -1.2820
10743TIP3   OH253719   5.496   3.755  10.895 -0.6049 -0.4807  0.6873
10743TIP3    H153720   5.422   3.816  10.892 -0.0253  0.2151 -0.1870
10743TIP3    H253721   5.543   3.779  10.975 -1.3287 -0.9615  1.2770
10744TIP3   OH253722   2.203   2.591  11.087  0.2639 -0.0612  0.0146
10744TIP3    H153723   2.210   2.619  10.996  1.3906  1.0130  0.4091
10744TIP3    H253724   2.153   2.660  11.130 -2.8321 -1.9151 -0.2987
10745TIP3   OH253725   3.302   3.557   0.187  0.3518 -0.0296 -0.7177
10745TIP3    H153726   3.233   3.495   0.162  2.2442 -2.8313  0.5344
10745TIP3    H253727   3.363   3.556   0.113  0.0106  1.0208 -1.0329
10746TIP3   OH253728   2.751   0.273   1.810 -0.1318 -0.0915  0.1157
10746TIP3    H153729   2.794   0.298   1.727  0.7826  0.2714  0.6848
10746TIP3    H253730   2.671   0.324   1.811  1.5029  2.6720  1.0612
10747TIP3   OH253731   6.777   3.964  13.703 -0.4707 -0.7411 -0.0258
10747TIP3    H153732   6.729   3.887  13.734  2.1173 -2.7286 -0.5728
10747TIP3    H253733   6.755   3.971  13.610 -0.7243 -0.8135  0.0275
10748TIP3   OH253734   1.022   2.375   6.712 -0.1464 -0.5915  0.0190
10748TIP3    H153735   1.098   2.388   6.656  0.4943  1.0082  1.1901
10748TIP3    H253736   0.949   2.358   6.651  0.7449 -0.1038 -1.2158
10749TIP3   OH253737   2.800   2.131   0.223 -0.4356  0.0199 -0.0434
10749TIP3    H153738   2.719   2.111   0.177  0.2293 -1.3288 -0.7129
10749TIP3    H253739   2.773   2.181   0.300 -1.8015  0.3209 -0.6866
10750TIP3   OH253740   0.669   3.401  13.522 -0.0703  0.0783  0.2869
10750TIP3    H153741   0.617   3.478  13.544 -1.5664 -1.5473  2.9750
10750TIP3    H253742   0.639   3.333  13.583  3.1585 -1.8341  0.0035
10751TIP3   OH253743   2.415   2.221  14.827  0.6891 -0.2941 -0.4441
10751TIP3    H153744   2.351   2.251  14.892  0.4585 -0.4479 -0.5972
10751TIP3    H253745   2.396   2.128  14.816  0.8707 -0.3164 -0.5695
10752TIP3   OH253746   4.931   1.099   5.818  0.1626  0.3544 -0.0055
10752TIP3    H153747   4.847   1.118   5.859 -0.3004 -1.1653 -0.2062
10752TIP3    H253748   4.958   1.015   5.854  0.1737 -0.6072 -2.0794
10753TIP3   OH253749   5.599   4.602  13.468  0.4398 -0.0119  0.4637
10753TIP3    H153750   5.578   4.635  13.555 -0.9227 -0.1268  0.2042
10753TIP3    H253751   5.529   4.540  13.448  0.6382  0.1223 -0.7602
10754TIP3   OH253752   1.626   4.004  13.120  0.1530  0.1963 -0.0592
10754TIP3    H153753   1.595   4.062  13.190  2.4121  0.4934  0.7901
10754TIP3    H253754   1.706   4.047  13.087  1.3325 -1.8899 -0.0912
10755TIP3   OH253755   0.312   0.646  11.100 -0.2920  0.5149  0.5066
10755TIP3    H153756   0.233   0.692  11.072 -1.0942 -1.1517 -0.0681
10755TIP3    H253757   0.369   0.648  11.023 -1.4131 -1.7199 -0.4533
10756TIP3   OH253758   4.267   4.926   5.523 -0.3562  0.8120  0.4538
10756TIP3    H153759   4.271   4.833   5.543 -1.3450  0.5258 -0.5774
10756TIP3    H253760   4.232   4.966   5.602 -2.1843 -0.0173  0.1109
10757TIP3   OH253761   5.438   2.967   5.835  0.7280 -0.1326  0.6909
10757TIP3    H153762   5.481   2.943   5.917 -3.4657  0.2583  3.2686
10757TIP3    H253763   5.457   3.060   5.824  0.2056  0.1498  2.0385
10758TIP3   OH253764   6.659   4.995   2.415 -0.3598  0.1982 -0.9074
10758TIP3    H153765   6.654   4.961   2.325  0.7789  0.0560 -0.9295
10758TIP3    H253766   6.701   4.925   2.465 -1.8344 -0.1032 -0.0443
10759TIP3   OH253767   4.569   3.880  12.604  0.1347 -0.7974 -0.1300
10759TIP3    H153768   4.665   3.874  12.606  0.0933 -2.1594 -0.8006
10759TIP3    H253769   4.540   3.810  12.662 -0.4711  0.0526  0.6151
10760TIP3   OH253770   5.236   6.628  13.193  0.3742  0.3379 -0.4643
10760TIP3    H153771   5.191   6.579  13.124 -1.0701  0.3491  0.4331
10760TIP3    H253772   5.170   6.686  13.228  0.4126 -1.1712  2.3881
10761TIP3   OH253773   0.310   2.048   5.428 -0.2977 -0.1450  0.0765
10761TIP3    H153774   0.383   2.046   5.366 -0.5979 -2.2437 -0.2874
10761TIP3    H253775   0.289   2.141   5.438  3.0742  0.6179  1.0125
10762TIP3   OH253776   4.698   0.394   0.041 -0.9657 -1.0001 -0.0315
10762TIP3    H153777   4.626   0.388  -0.022 -0.2986 -1.8996 -0.7258
10762TIP3    H253778   4.777   0.400  -0.013 -0.5564  1.1286  0.6989
10763TIP3   OH253779   3.349   3.013   2.464  0.0740  0.1406 -0.1408
10763TIP3    H153780   3.403   3.039   2.390 -0.3087  1.6735  0.0838
10763TIP3    H253781   3.311   2.929   2.438  0.0024  0.6084 -1.6621
10764TIP3   OH253782   1.817   1.777  14.264  0.3177  0.5014 -0.2976
10764TIP3    H153783   1.804   1.682  14.263 -1.8395  0.7123  1.2276
10764TIP3    H253784   1.738   1.812  14.305  1.9236  2.8215  1.1005
10765TIP3   OH253785   3.984   2.494  14.948  0.2794 -0.1701  0.2689
10765TIP3    H153786   4.003   2.403  14.972  0.9698  0.3186  1.7469
10765TIP3    H253787   3.992   2.542  15.031 -1.0649  1.0927 -0.2870
10766TIP3   OH253788   5.283   2.363  11.567  0.4322  0.7022 -0.3863
10766TIP3    H153789   5.354   2.339  11.626  0.4701 -0.3990 -0.8403
10766TIP3    H253790   5.215   2.399  11.624 -0.7000 -2.8718  0.8125
10767TIP3   OH253791   3.418   2.353   4.699  0.3343  0.7533  0.2463
10767TIP3    H153792   3.329   2.318   4.699  0.4365  0.3576 -2.1614
10767TIP3    H253793   3.409   2.441   4.736 -0.3655 -0.5903  3.7481
10768TIP3   OH253794   1.841   6.463  10.305  0.4059 -0.6932 -0.1011
10768TIP3    H153795   1.831   6.384  10.253 -0.3024 -1.6315  1.4012
10768TIP3    H253796   1.936   6.475  10.312  0.5460 -1.9119  0.3404
10769TIP3   OH253797   1.286   5.187  16.338  1.1661  0.0408  0.5121
10769TIP3    H153798   1.318   5.250  16.273 -0.9234 -0.9683 -1.6738
10769TIP3    H253799   1.289   5.103  16.293 -1.6789 -0.5063  1.1458
10770TIP3   OH253800   1.825   0.644  12.738  0.6009  0.6269 -0.2275
10770TIP3    H153801   1.785   0.730  12.747 -0.2924  0.2033 -0.0591
10770TIP3    H253802   1.887   0.639  12.812 -1.8678 -0.2174  1.9431
10771TIP3   OH253803   6.414   5.113  10.418  0.8737 -0.1889 -0.4679
10771TIP3    H153804   6.381   5.196  10.451  2.1530  0.3708 -0.5767
10771TIP3    H253805   6.339   5.053  10.426  0.5544  0.4093  1.6049
10772TIP3   OH253806   0.256   0.415   5.446  0.2849 -0.5309 -0.2570
10772TIP3    H153807   0.349   0.439   5.450  0.3441 -0.9664  2.5814
10772TIP3    H253808   0.252   0.345   5.381  1.7581  0.1760 -1.1609
10773TIP3   OH253809   3.509   0.727   1.235  0.5467  0.1684  0.0548
10773TIP3    H153810   3.518   0.633   1.249  0.1050 -0.3266 -2.4667
10773TIP3    H253811   3.589   0.765   1.273  1.3590 -1.3748 -0.0263
10774TIP3   OH253812   4.988   2.270   5.660  0.0569  0.6140  0.2998
10774TIP3    H153813   5.007   2.363   5.664 -0.0525  0.5919  2.4150
10774TIP3    H253814   4.923   2.261   5.591  0.7217  1.9599 -0.5427
10775TIP3   OH253815   3.160   1.900  11.079  0.9806 -0.7432 -0.2980
10775TIP3    H153816   3.153   1.864  10.991 -1.8512  1.3354 -1.0715
10775TIP3    H253817   3.236   1.957  11.076  0.2690  0.1917 -1.8304
10776TIP3   OH253818   3.275   2.290   4.019  0.0690 -0.3812 -0.7031
10776TIP3    H153819   3.244   2.379   4.005  0.0145 -0.1607  0.6558
10776TIP3    H253820   3.326   2.295   4.100 -0.2767 -1.6583 -0.3806
10777TIP3   OH253821   5.605   0.957  15.907 -0.2559  0.1959 -0.3226
10777TIP3    H153822   5.572   1.044  15.927  0.8308  0.6181 -0.2942
10777TIP3    H253823   5.591   0.947  15.813 -0.5065  0.3422 -0.3015
10778TIP3   OH253824   2.076   5.110   0.443 -0.1137 -0.2732  0.3533
10778TIP3    H153825   2.145   5.046   0.460  1.0277  0.5185 -1.0273
10778TIP3    H253826   2.057   5.147   0.529  2.4517  0.6912  0.6170
10779TIP3   OH253827   0.602   1.552   6.142 -0.3479 -0.0975 -0.3380
10779TIP3    H153828   0.508   1.539   6.153 -0.3446  0.8106  1.0637
10779TIP3    H253829   0.633   1.473   6.098 -1.6756 -0.6426 -0.3183
10780TIP3   OH253830   1.574   0.803  13.532  0.1432  0.1276  0.2585
10780TIP3    H153831   1.593   0.881  13.584  1.5999  0.6688 -1.0167
10780TIP3    H253832   1.659   0.761  13.519 -0.2060 -0.1334 -1.4127
10781TIP3   OH253833   3.302   2.016  16.607  0.2469  0.1263  0.3292
10781TIP3    H153834   3.348   1.934  16.626  0.8714  0.3539 -0.1782
10781TIP3    H253835   3.285   2.013  16.513 -0.6466  0.1209  0.4768
10782TIP3   OH253836   3.712   6.199  17.022  0.3566  0.3330 -0.5015
10782TIP3    H153837   3.731   6.282  17.065  0.2927  0.0997 -0.0197
10782TIP3    H253838   3.643   6.160  17.075 -0.4832  0.5226 -1.4215
10783TIP3   OH253839   1.760   4.801  16.077 -0.3008 -0.1067 -0.3785
10783TIP3    H153840   1.756   4.892  16.046  0.1201  0.2646  0.6295
10783TIP3    H253841   1.680   4.762  16.042 -0.2813  0.5280 -1.1834
10784TIP3   OH253842   3.771   3.216  11.079  0.1129  0.0256  0.5126
10784TIP3    H153843   3.729   3.259  11.004  0.2779  2.4100  1.6754
10784TIP3    H253844   3.817   3.141  11.041 -0.9537  0.3185 -1.5384
10785TIP3   OH253845   2.258   5.842  13.727 -0.1200  0.0323  0.1665
10785TIP3    H153846   2.261   5.853  13.632  0.5263  0.0560  0.1826
10785TIP3    H253847   2.191   5.903  13.757  0.6482  1.0450 -0.1400
10786TIP3   OH253848   0.234   0.199   0.799 -0.6215 -0.2755 -0.3043
10786TIP3    H153849   0.145   0.209   0.833 -0.1510  1.0914  0.6005
10786TIP3    H253850   0.222   0.167   0.710 -2.0769  0.8921 -0.5612
10787TIP3   OH253851   1.459   3.185  11.904 -0.0366  0.4212  0.0889
10787TIP3    H153852   1.466   3.114  11.840  1.1966  0.9697 -0.4206
10787TIP3    H253853   1.538   3.177  11.957 -0.7579  0.3424  1.1718
10788TIP3   OH253854   1.441   5.404  13.103  0.5644 -0.1876 -0.1513
10788TIP3    H153855   1.346   5.401  13.119  0.1562  1.0915 -2.0439
10788TIP3    H253856   1.459   5.328  13.049  0.9303 -1.2756  1.4295
10789TIP3   OH253857   1.459   1.371   1.272 -0.3902 -0.1268  0.3671
10789TIP3    H153858   1.444   1.306   1.203 -1.0452  0.1200  0.2649
10789TIP3    H253859   1.485   1.320   1.348  0.8785 -0.3662 -0.1996
10790TIP3   OH253860   4.530   5.620  16.436 -0.7891  0.1334 -0.1137
10790TIP3    H153861   4.508   5.656  16.350 -0.5774  0.1621 -0.1532
10790TIP3    H253862   4.521   5.525  16.425  1.3648 -0.0404 -0.7781
10791TIP3   OH253863   0.440   4.040  15.961 -0.3144  0.0736  0.1407
10791TIP3    H153864   0.477   4.010  15.879 -1.2468  1.4859 -0.8451
10791TIP3    H253865   0.365   3.982  15.977 -1.9183  1.5226 -1.5821
10792TIP3   OH253866   1.566   0.822  11.050  0.3034  0.3688  0.1255
10792TIP3    H153867   1.492   0.763  11.068  0.4671  0.2608  0.4555
10792TIP3    H253868   1.593   0.853  11.136  0.4395  0.6607 -0.0214
10793TIP3   OH253869   3.766   3.763  12.407 -0.1669 -0.7983 -0.5443
10793TIP3    H153870   3.682   3.738  12.368 -0.6255  2.0860 -1.5914
10793TIP3    H253871   3.825   3.772  12.332  0.1420  0.5230 -0.1602
10794TIP3   OH253872   4.828   0.281  16.056 -0.2607 -0.2691  0.8105
10794TIP3    H153873   4.805   0.325  15.974 -1.3818  0.7083  1.6192
10794TIP3    H253874   4.779   0.199  16.054 -4.0680  1.6989  2.4275
10795TIP3   OH253875   3.955   1.037   2.405 -0.2739 -0.1469  0.0687
10795TIP3    H153876   4.030   1.000   2.358 -0.0266 -0.4782  0.7093
10795TIP3    H253877   3.988   1.050   2.494 -1.2400 -1.0836  0.5729
10796TIP3   OH253878   6.330   1.179  14.885 -0.2298 -0.2814  0.4466
10796TIP3    H153879   6.367   1.098  14.849 -0.4525 -0.9248  1.6081
10796TIP3    H253880   6.399   1.244  14.877  0.4382 -0.9496  0.7252
10797TIP3   OH253881   6.717   3.777   0.276 -0.1011  0.4031  0.0753
10797TIP3    H153882   6.687   3.691   0.247  0.5668  0.4529 -0.7939
10797TIP3    H253883   6.759   3.815   0.199 -0.5143  1.5720  0.4095
10798TIP3   OH253884   5.052   3.850   0.803 -0.2424  0.3049  0.2608
10798TIP3    H153885   4.961   3.868   0.778 -0.0976 -0.6346 -1.1000
10798TIP3    H253886   5.086   3.799   0.729  0.6161 -1.6187  1.8923
10799TIP3   OH253887   2.081   2.583   3.490  0.2424 -0.3100 -0.6021
10799TIP3    H153888   2.023   2.640   3.541 -0.0382 -0.9544 -0.1955
10799TIP3    H253889   2.169   2.602   3.525  0.1708 -0.0023 -0.5879
10800TIP3   OH253890   0.540   6.740   1.426 -0.8005 -0.2086 -0.2360
10800TIP3    H153891   0.540   6.750   1.331  0.6260  2.2253 -0.0686
10800TIP3    H253892   0.464   6.791   1.455  0.3969  1.5154  0.0315
10801TIP3   OH253893   0.411   0.333   4.043  0.0783  0.1051 -0.0114
10801TIP3    H153894   0.317   0.318   4.034  0.2544 -0.2328 -1.5165
10801TIP3    H253895   0.424   0.423   4.012  0.3564 -0.1605 -0.6870
10802TIP3   OH253896   6.732   1.579  15.054 -0.4761 -0.4633 -0.6861
10802TIP3    H153897   6.825   1.596  15.038 -0.5333  0.2217 -0.3135
10802TIP3    H253898   6.727   1.558  15.147 -0.5472 -1.6145 -0.9302
10803TIP3   OH253899   5.886   0.586  11.299  0.1470  0.0573 -0.0273
10803TIP3    H153900   5.825   0.594  11.372  0.1652 -0.2232  0.0226
10803TIP3    H253901   5.961   0.640  11.325  0.2278 -0.1800  0.2438
10804TIP3   OH253902   6.294   3.650   2.298 -0.8393  0.2924  0.1565
10804TIP3    H153903   6.245   3.576   2.262  1.2956 -0.9912 -0.3096
10804TIP3    H253904   6.378   3.648   2.252 -0.5073  2.7097  0.5222
10805TIP3   OH253905   4.436   2.855  16.162 -0.6142  0.5730  0.2930
10805TIP3    H153906   4.372   2.792  16.128 -0.2603  0.6305 -0.5082
10805TIP3    H253907   4.384   2.933  16.184 -0.7546  0.8552 -0.9593
10806TIP3   OH253908   5.251   4.269   2.177  0.3265  0.3079  0.3300
10806TIP3    H153909   5.180   4.208   2.196 -0.2712  0.6134 -0.8151
10806TIP3    H253910   5.230   4.347   2.229  0.7274 -0.1826  1.2619
10807TIP3   OH253911   5.614   5.686   5.308  0.0363 -0.1510 -0.0205
10807TIP3    H153912   5.538   5.676   5.252 -0.5480  1.6268  0.4077
10807TIP3    H253913   5.598   5.626   5.381 -1.4467  0.8852  0.5447
10808TIP3   OH253914   2.848   1.133   2.779 -0.5611  0.2335  0.1137
10808TIP3    H153915   2.861   1.042   2.806 -1.0508 -0.5250 -1.9678
10808TIP3    H253916   2.887   1.137   2.691 -0.3853  2.0982  0.2384
10809TIP3   OH253917   2.252   5.699  11.904  0.2335  0.1031 -0.4326
10809TIP3    H153918   2.272   5.627  11.844 -0.1161 -1.0745  0.8237
10809TIP3    H253919   2.335   5.747  11.912  1.0278 -1.3081  0.2069
10810TIP3   OH253920   6.518   0.199   0.435 -0.3511  0.0305 -0.2289
10810TIP3    H153921   6.560   0.150   0.364 -0.1522 -0.3887  0.1741
10810TIP3    H253922   6.425   0.193   0.415 -0.3462 -0.7020 -0.0698
10811TIP3   OH253923   0.097   6.371  12.722  0.2659 -0.3922  0.3360
10811TIP3    H153924   0.167   6.322  12.764 -0.5243 -0.4815  1.6208
10811TIP3    H253925   0.130   6.461  12.719  0.5527 -0.4819  0.6756
10812TIP3   OH253926   6.108   2.898   2.140 -0.6415 -0.2170 -0.0626
10812TIP3    H153927   6.171   2.963   2.171 -0.1531 -0.8965  0.3974
10812TIP3    H253928   6.032   2.909   2.197 -0.3214 -0.4573  0.4144
10813TIP3   OH253929   5.193   4.934  16.221 -0.0798  0.3105 -0.3052
10813TIP3    H153930   5.187   4.862  16.158 -0.5435 -2.0697  2.2441
10813TIP3    H253931   5.272   4.916  16.272 -2.2213 -0.8529  2.9559
10814TIP3   OH253932   5.709   0.680   1.008  0.5803  0.3839  0.0758
10814TIP3    H153933   5.776   0.630   1.055 -1.5678 -1.9765  0.8759
10814TIP3    H253934   5.691   0.755   1.065  1.5675  0.3386  0.4795
10815TIP3   OH253935   1.319   6.212   0.493 -0.4183 -0.2473  0.3013
10815TIP3    H153936   1.385   6.177   0.552  0.0091  0.1789  0.0824
10815TIP3    H253937   1.321   6.307   0.507 -0.0630 -0.0998 -0.6332
10816TIP3   OH253938   1.441   2.503   1.168  0.6001  0.7145 -0.7082
10816TIP3    H153939   1.350   2.494   1.143 -0.2007 -1.2913  2.4105
10816TIP3    H253940   1.445   2.585   1.218  0.1500  0.0815  0.3866
10817TIP3   OH253941   5.667   6.813  14.506 -0.0873  0.3971  0.2081
10817TIP3    H153942   5.629   6.873  14.441  0.0206  2.8982  2.2949
10817TIP3    H253943   5.599   6.805  14.574  0.2325 -1.2546  0.3825
10818TIP3   OH253944   4.643   1.509  16.942 -0.3189 -0.0455  0.2420
10818TIP3    H153945   4.585   1.517  17.018  1.3807 -0.7285  1.6820
10818TIP3    H253946   4.729   1.488  16.979  0.5416 -0.5805 -1.8931
10819TIP3   OH253947   1.143   0.010  11.897 -0.6065  0.0167  0.0638
10819TIP3    H153948   1.067   0.062  11.873 -0.5916 -0.1670 -0.3928
10819TIP3    H253949   1.146   0.014  11.993  0.2943  2.1303 -0.0057
10820TIP3   OH253950   5.212   5.160  15.224 -0.5426  0.3513 -0.1590
10820TIP3    H153951   5.277   5.105  15.180  1.5294  2.1366  0.5271
10820TIP3    H253952   5.187   5.110  15.301 -0.8008 -0.8097 -0.9568
10821TIP3   OH253953   6.517   0.150   3.083  0.2284 -0.2055 -0.6044
10821TIP3    H153954   6.477   0.064   3.069  0.3964  0.1128 -3.6515
10821TIP3    H253955   6.602   0.131   3.121 -0.0747 -1.3240 -0.4318
10822TIP3   OH253956   0.996   1.550   6.382 -0.0434 -0.3348  0.4777
10822TIP3    H153957   0.957   1.632   6.411 -2.7571 -0.7794 -1.5735
10822TIP3    H253958   0.963   1.484   6.443 -0.1645 -0.2964  0.4536
10823TIP3   OH253959   4.224   0.621  15.167 -0.0044 -0.2973 -0.0302
10823TIP3    H153960   4.161   0.613  15.095 -0.5979 -1.9527  0.6105
10823TIP3    H253961   4.203   0.705  15.208 -1.8391 -0.7972  0.1544
10824TIP3   OH253962   6.293   1.264  12.482  0.6188  0.4202 -0.2672
10824TIP3    H153963   6.359   1.195  12.487  1.7007  1.3226 -1.4465
10824TIP3    H253964   6.260   1.260  12.393 -0.8998  0.0441  0.2814
10825TIP3   OH253965   6.120   1.199   2.813  0.0077 -0.2760  0.6397
10825TIP3    H153966   6.158   1.145   2.883  0.1904 -2.3093 -0.9121
10825TIP3    H253967   6.076   1.136   2.756 -0.6872  1.3771 -0.7291
10826TIP3   OH253968   0.947   0.897   0.116  0.0203 -0.4945  0.5147
10826TIP3    H153969   0.946   0.893   0.020 -0.1291  0.0823  0.4925
10826TIP3    H253970   0.975   0.985   0.137  5.0656 -1.9252  1.0670
10827TIP3   OH253971   2.762   6.014   5.741 -0.5194  0.5241  0.5065
10827TIP3    H153972   2.729   6.063   5.667  0.8350 -0.9402 -1.1668
10827TIP3    H253973   2.767   6.078   5.812 -2.5253  1.8007 -0.4165
10828TIP3   OH253974   5.059   0.129  14.729  0.0223 -0.1871  0.4013
10828TIP3    H153975   5.004   0.173  14.794 -0.7204 -1.1217  0.4233
10828TIP3    H253976   5.038   0.036  14.738  1.0325 -0.4831 -0.1368
10829TIP3   OH253977   0.323   3.146   2.444 -0.0063  0.1396  1.1019
10829TIP3    H153978   0.399   3.163   2.499 -1.0297  0.2552  2.5103
10829TIP3    H253979   0.308   3.228   2.398  0.7858  0.0751  0.7064
10830TIP3   OH253980   5.819   4.896   3.032  0.5901  0.1049  0.0183
10830TIP3    H153981   5.837   4.826   3.093  1.6862  1.0237  0.7941
10830TIP3    H253982   5.767   4.855   2.962  1.7516 -1.6039  0.1124
10831TIP3   OH253983   6.635   4.100   2.636 -0.3703  0.2662 -0.1738
10831TIP3    H153984   6.650   4.175   2.694 -2.0952  1.3772 -1.0575
10831TIP3    H253985   6.550   4.065   2.663 -0.2422 -0.4810 -0.7045
10832TIP3   OH253986   3.361   4.479  11.871  0.1071  0.3772 -0.1024
10832TIP3    H153987   3.325   4.409  11.817  0.9544 -0.2177  0.0890
10832TIP3    H253988   3.446   4.446  11.901 -1.1982 -0.2348  3.3836
10833TIP3   OH253989   3.539   4.810  12.230 -0.0072 -0.0769  0.0608
10833TIP3    H153990   3.514   4.786  12.319 -1.7984  0.2599 -0.3188
10833TIP3    H253991   3.500   4.742  12.174  0.7471 -0.0574 -0.5141
10834TIP3   OH253992   4.133   3.239  13.198  0.5461  0.1621 -0.1678
10834TIP3    H153993   4.047   3.225  13.239 -0.0046  1.9997 -0.5972
10834TIP3    H253994   4.162   3.323  13.232  1.0783  0.6917 -1.8266
10835TIP3   OH253995   5.268   3.778  11.104 -0.6488  0.4495 -0.0355
10835TIP3    H153996   5.197   3.756  11.044  0.6723  0.5777 -1.7233
10835TIP3    H253997   5.319   3.698  11.112 -0.5000  0.5894  0.4737
10836TIP3   OH253998   5.889   6.309  16.260 -0.5104  0.0421 -0.0410
10836TIP3    H153999   5.927   6.279  16.343 -1.9454 -3.7744 -0.5751
10836TIP3    H254000   5.795   6.314  16.277 -0.6487  1.0058 -0.9982
10837TIP3   OH254001   6.306   6.102  10.476  0.1586 -0.2878  0.4379
10837TIP3    H154002   6.391   6.141  10.497  0.2153  0.1956 -0.5868
10837TIP3    H254003   6.263   6.168  10.422 -0.3730 -1.0367 -0.0722
10838TIP3   OH254004   4.886   4.777   5.149 -0.0053 -0.2444 -0.1583
10838TIP3    H154005   4.797   4.793   5.180  0.5300 -0.9250  1.9113
10838TIP3    H254006   4.911   4.856   5.102 -1.0959  0.6680  0.7561
10839TIP3   OH254007   3.750   0.610   1.564 -0.7935 -0.2203  0.1810
10839TIP3    H154008   3.749   0.583   1.655 -1.8209 -0.2054  0.1828
10839TIP3    H254009   3.687   0.552   1.521  0.1100 -0.6240 -0.6456
10840TIP3   OH254010   0.160   5.642   1.165  0.1630  0.3873  0.1811
10840TIP3    H154011   0.103   5.657   1.240 -0.2216  0.0060 -0.0345
10840TIP3    H254012   0.198   5.728   1.146 -0.8615  0.7928 -0.1085
10841TIP3   OH254013   1.066   6.765   3.307 -0.0197  0.2797 -0.7856
10841TIP3    H154014   1.029   6.853   3.296 -2.5411 -0.4234  1.2501
10841TIP3    H254015   1.000   6.717   3.356  1.7092 -2.5150 -1.0000
10842TIP3   OH254016   4.092   5.469  10.294 -0.2380 -0.6196  0.8256
10842TIP3    H154017   4.003   5.503  10.302 -0.1321  1.5189 -3.5869
10842TIP3    H254018   4.142   5.517  10.361 -1.7118  1.4796  0.5445
10843TIP3   OH254019   4.219   1.764   3.350  0.4190  0.0372 -0.0695
10843TIP3    H154020   4.173   1.706   3.289 -0.5526 -2.3607  2.6905
10843TIP3    H254021   4.156   1.779   3.421  2.1876  0.8801  1.4113
10844TIP3   OH254022   2.208   4.760   4.323  0.1766  0.2594  0.1716
10844TIP3    H154023   2.244   4.686   4.372  0.1121 -0.1513 -0.3877
10844TIP3    H254024   2.225   4.738   4.231  0.5629  1.1534  0.0164
10845TIP3   OH254025   1.775   4.008   1.655 -0.0697  0.0234  0.5096
10845TIP3    H154026   1.844   3.942   1.652  0.7782  0.9104 -0.0080
10845TIP3    H254027   1.793   4.060   1.734 -0.2652  0.1328  0.4854
10846TIP3   OH254028   5.063   6.470   1.784  0.4606 -0.0020 -0.9055
10846TIP3    H154029   5.128   6.400   1.782 -1.0203 -1.4329 -3.4971
10846TIP3    H254030   5.105   6.542   1.737  1.1096  0.0294 -0.3001
10847TIP3   OH254031   4.159   1.526   5.128 -0.2970  0.0732 -0.2386
10847TIP3    H154032   4.142   1.612   5.166 -2.2858 -0.1471 -0.5211
10847TIP3    H254033   4.198   1.475   5.199 -0.4695  0.7647  0.3592
10848TIP3   OH254034   2.206   0.879   5.530 -0.3152  0.4432  0.5692
10848TIP3    H154035   2.150   0.816   5.575  0.1031  0.6931  1.4688
10848TIP3    H254036   2.146   0.933   5.479 -0.7549 -0.1773  0.4188
10849TIP3   OH254037   6.711   2.846  13.294  0.5296  0.6582 -0.3952
10849TIP3    H154038   6.718   2.838  13.199  1.4469 -0.4023 -0.2529
10849TIP3    H254039   6.628   2.802  13.316 -0.0290  1.5056 -0.7559
10850TIP3   OH254040   4.762   3.452   2.570 -0.3480  0.2677 -0.0925
10850TIP3    H154041   4.808   3.535   2.560 -0.3080  0.4374  1.3166
10850TIP3    H254042   4.693   3.455   2.503  0.2030  1.0389 -0.6403
10851TIP3   OH254043   0.781   1.791  11.654  0.1961 -0.4523 -0.0891
10851TIP3    H154044   0.794   1.704  11.616 -0.6734 -0.5331 -0.2318
10851TIP3    H254045   0.714   1.832  11.598 -2.2593 -1.1258  2.1500
10852TIP3   OH254046   6.553   2.386  11.049  0.2209 -0.1281  0.0164
10852TIP3    H154047   6.471   2.425  11.078  0.8976  1.9223 -0.6274
10852TIP3    H254048   6.536   2.292  11.047 -1.4662  0.0809  1.8060
10853TIP3   OH254049   3.809   3.442   2.477 -0.3491  0.9033 -0.2277
10853TIP3    H154050   3.746   3.383   2.519  0.4089  0.7440  0.7136
10853TIP3    H254051   3.825   3.402   2.391  0.5177 -0.5715  0.5655
10854TIP3   OH254052   4.521   5.409   0.960  0.5369 -0.2509  0.3828
10854TIP3    H154053   4.559   5.469   1.024  0.1472 -0.8822  1.2399
10854TIP3    H254054   4.557   5.323   0.984  0.7271 -0.4273 -0.5233
10855TIP3   OH254055   3.669   2.372  13.914  1.1179  0.3525 -0.2792
10855TIP3    H154056   3.681   2.432  13.841  1.0810  0.1753 -0.4331
10855TIP3    H254057   3.624   2.423  13.981 -0.7350 -0.0285 -1.1470
10856TIP3   OH254058   4.620   3.540   6.011 -0.7757 -0.2146 -0.0522
10856TIP3    H154059   4.635   3.627   5.973  0.7306 -1.4283 -2.4909
10856TIP3    H254060   4.700   3.521   6.059  0.2770 -1.4182 -2.1335
10857TIP3   OH254061   4.629   6.447  16.649  0.2674  0.2104  0.2079
10857TIP3    H154062   4.705   6.446  16.591  0.1750  0.4947  0.0801
10857TIP3    H254063   4.567   6.386  16.608  0.0775  0.6464 -0.1683
10858TIP3   OH254064   2.838   2.721   2.816  0.3637 -0.2073  0.8303
10858TIP3    H154065   2.821   2.651   2.752  2.9016  0.0634 -0.2783
10858TIP3    H254066   2.775   2.706   2.886 -3.2614  0.0123 -2.0802
10859TIP3   OH254067   6.232   0.013  12.528 -0.8864  0.1209  0.0216
10859TIP3    H154068   6.239   0.096  12.575 -1.8143  0.0897  0.2419
10859TIP3    H254069   6.204  -0.050  12.595  1.0774 -0.6773  0.1501
10860TIP3   OH254070   3.171   6.282  12.242  0.2478  0.2664  0.0859
10860TIP3    H154071   3.150   6.265  12.334 -1.7536  2.2922  0.0707
10860TIP3    H254072   3.137   6.205  12.195  1.1938 -0.7330  0.9721
10861TIP3   OH254073   3.434   6.296   3.314 -0.8963  0.2249  0.1140
10861TIP3    H154074   3.404   6.328   3.229 -2.4586  0.6234  0.7844
10861TIP3    H254075   3.390   6.353   3.377 -1.4740 -1.4317  1.2527
10862TIP3   OH254076   4.518   4.848  13.285  0.2093  0.0845  0.1273
10862TIP3    H154077   4.426   4.876  13.282 -0.0556 -0.7753 -2.1712
10862TIP3    H254078   4.563   4.919  13.329 -1.6111  0.3033  1.7885
10863TIP3   OH254079   6.120   5.082  11.208  0.1812 -0.0139  0.0320
10863TIP3    H154080   6.073   5.008  11.170  1.1594 -0.0649 -1.1693
10863TIP3    H254081   6.096   5.081  11.301 -1.3575 -0.6284 -0.3398
10864TIP3   OH254082   6.070   4.664  13.796  0.5910 -0.2681  0.2003
10864TIP3    H154083   6.005   4.660  13.866 -0.1798 -0.0225 -0.4803
10864TIP3    H254084   6.132   4.731  13.825 -0.3084  0.5951  0.1754
10865TIP3   OH254085   2.450   6.831  13.565  0.1208  0.4693  0.5462
10865TIP3    H154086   2.514   6.759  13.573 -0.7976 -0.2964  1.2183
10865TIP3    H254087   2.489   6.902  13.616  0.8046  0.2744  0.3101
10866TIP3   OH254088   3.134   2.415  14.326  0.2398 -0.5634 -0.2829
10866TIP3    H154089   3.099   2.463  14.251  1.8640  0.5484 -0.3690
10866TIP3    H254090   3.226   2.403  14.306  0.3641 -1.6376  0.8434
10867TIP3   OH254091   4.206   6.612  11.492  0.4852 -0.0563 -0.1151
10867TIP3    H154092   4.135   6.568  11.539  0.1050  0.0219 -0.6064
10867TIP3    H254093   4.161   6.673  11.432  0.9631  0.0057 -0.4165
10868TIP3   OH254094   5.793   2.433   5.200 -0.3048 -0.1483  0.4372
10868TIP3    H154095   5.724   2.399   5.142  0.9329 -2.0693 -0.0021
10868TIP3    H254096   5.803   2.525   5.174 -3.3280  0.5251  1.1999
10869TIP3   OH254097   1.044   6.699   2.783  0.1916 -0.1990 -0.1655
10869TIP3    H154098   1.089   6.750   2.851  0.9439 -0.5954 -0.3610
10869TIP3    H254099   1.058   6.749   2.703 -0.0971 -0.0954 -0.1520
10870TIP3   OH254100   2.765   4.452  14.326  0.1827 -0.0834 -0.3082
10870TIP3    H154101   2.763   4.376  14.384  0.0305  0.5562  0.5428
10870TIP3    H254102   2.768   4.415  14.238 -0.0734 -1.0722  0.0871
10871TIP3   OH254103   3.318   5.131   4.978  0.5547 -0.0297  0.5085
10871TIP3    H154104   3.320   5.178   5.061  0.9182  0.0216  0.4749
10871TIP3    H254105   3.379   5.179   4.922 -0.7834  0.8031 -0.2639
10872TIP3   OH254106   1.752   0.618  13.450  0.3662 -0.0358  0.1456
10872TIP3    H154107   1.813   0.663  13.508  1.3972  0.9550 -1.6288
10872TIP3    H254108   1.807   0.569  13.389 -0.7216 -2.6029  1.0984
10873TIP3   OH254109   4.684   4.595  13.725 -0.2886  0.3176 -0.3023
10873TIP3    H154110   4.646   4.679  13.748  0.7722  1.0206 -1.0213
10873TIP3    H254111   4.685   4.545  13.807  2.5949  2.4190  1.1358
10874TIP3   OH254112   6.749   2.729   6.810  0.9568 -0.5396  0.0516
10874TIP3    H154113   6.736   2.785   6.734 -0.3926 -0.5066  0.2827
10874TIP3    H254114   6.696   2.651   6.792  0.5190 -0.4766  1.0086
10875TIP3   OH254115   0.052   0.363   4.605  0.3266  0.0232  0.1191
10875TIP3    H154116   0.110   0.354   4.680  1.8867 -0.9149 -1.1287
10875TIP3    H254117   0.037   0.457   4.597 -0.7067  0.0998  2.1500
10876TIP3   OH254118   0.915   2.651   5.166  0.5355 -0.1323  0.4999
10876TIP3    H154119   0.950   2.728   5.212  1.3467 -0.9668  1.3257
10876TIP3    H254120   0.820   2.658   5.178  0.6172  0.5694  0.8348
10877TIP3   OH254121   0.258   6.086   0.550  0.1759 -0.6138  0.4550
10877TIP3    H154122   0.247   6.068   0.456 -1.4442 -1.1091  0.7038
10877TIP3    H254123   0.243   6.180   0.558  0.4145 -0.5519  0.2173
10878TIP3   OH254124   2.212   6.067   6.309  0.5823 -0.4212 -0.3481
10878TIP3    H154125   2.165   6.023   6.238 -2.2779 -0.4527  1.3882
10878TIP3    H254126   2.158   6.144   6.329 -0.1695 -1.6828  3.2784
10879TIP3   OH254127   4.283   3.496  14.317 -0.2691  0.3679 -0.1355
10879TIP3    H154128   4.334   3.569  14.352  1.0836 -0.5472 -0.1173
10879TIP3    H254129   4.200   3.535  14.290  0.5189  1.9534 -0.3592
10880TIP3   OH254130   0.822   0.189   0.670  0.2547  0.2950 -0.8460
10880TIP3    H154131   0.893   0.227   0.722 -0.3676  1.3978 -0.7809
10880TIP3    H254132   0.867   0.138   0.603  1.1144  0.8994 -0.7472
10881TIP3   OH254133   6.658   5.679  13.240  0.0526  0.1163 -0.3742
10881TIP3    H154134   6.607   5.746  13.285  1.6541  0.7678  0.5815
10881TIP3    H254135   6.628   5.596  13.275 -1.0576  0.4093 -0.6093
10882TIP3   OH254136   5.362   1.214  10.925  0.0924  0.3031  0.2660
10882TIP3    H154137   5.277   1.203  10.883 -0.3538  2.9745  0.2585
10882TIP3    H254138   5.343   1.258  11.008  1.3593 -0.3294  0.9252
10883TIP3   OH254139   2.699   3.297  15.150  0.2055  0.2024  0.2552
10883TIP3    H154140   2.626   3.285  15.211  2.3931 -1.5633  2.7024
10883TIP3    H254141   2.703   3.392  15.137 -0.5958  0.6275  2.5969
10884TIP3   OH254142   3.588   3.364  12.663 -0.4193  0.1827 -0.1189
10884TIP3    H154143   3.531   3.433  12.696 -0.6365 -1.7197  4.1679
10884TIP3    H254144   3.653   3.350  12.732  1.7159 -1.6771 -2.2752
10885TIP3   OH254145   5.562   5.639  14.520 -0.1347 -0.2462 -0.2903
10885TIP3    H154146   5.601   5.714  14.475  1.4072 -1.3237 -0.8296
10885TIP3    H254147   5.479   5.623  14.473 -0.5984  1.2163 -0.0256
10886TIP3   OH254148   0.984   5.327  10.905 -0.2738  0.0709 -0.6012
10886TIP3    H154149   0.962   5.279  10.825 -0.9443 -0.7211  0.0330
10886TIP3    H254150   0.978   5.261  10.975 -1.0881  1.0467  0.2871
10887TIP3   OH254151   5.164   6.139  13.568 -0.4559 -0.3130 -0.1057
10887TIP3    H154152   5.094   6.095  13.520 -0.8957  0.8855 -0.5947
10887TIP3    H254153   5.230   6.071  13.583 -0.7993 -0.9669 -1.4533
10888TIP3   OH254154   0.543   3.244   4.362 -0.3701  0.5747 -0.6237
10888TIP3    H154155   0.509   3.264   4.449  2.6482 -3.4520  1.7900
10888TIP3    H254156   0.616   3.306   4.350 -0.1346  0.4663  0.2002
10889TIP3   OH254157   1.879   2.594  11.148 -0.0811 -0.4516  0.0205
10889TIP3    H154158   1.854   2.595  11.241  1.2200  0.6474  0.3955
10889TIP3    H254159   1.846   2.511  11.115  1.3722 -1.9519  2.0516
10890TIP3   OH254160   4.846   3.231   5.031  0.1870 -0.5654 -0.3777
10890TIP3    H154161   4.817   3.264   4.946 -0.2042 -0.4927 -0.2200
10890TIP3    H254162   4.789   3.275   5.094  0.0689 -1.0845 -0.1185
10891TIP3   OH254163   4.202   4.061   4.915 -0.3350 -0.1736  0.0137
10891TIP3    H154164   4.258   4.071   4.838  0.4668 -0.6718  0.5184
10891TIP3    H254165   4.135   4.129   4.905  0.7965  0.9537 -0.2223
10892TIP3   OH254166   5.983   5.142  11.796  0.8241 -0.1750 -0.0303
10892TIP3    H154167   6.019   5.066  11.749 -1.0227 -1.4622  0.5126
10892TIP3    H254168   5.954   5.201  11.727 -0.9507 -1.5955 -0.5765
10893TIP3   OH254169   0.000   1.540   5.313 -0.1152  0.1781 -0.4852
10893TIP3    H154170  -0.001   1.536   5.218 -0.7214  0.6886 -0.5062
10893TIP3    H254171  -0.036   1.626   5.334  1.6700  0.8307  0.1636
10894TIP3   OH254172   4.434   4.138  13.717 -0.4754  0.3907 -0.0797
10894TIP3    H154173   4.522   4.117  13.749 -1.1982  1.9010  3.3580
10894TIP3    H254174   4.435   4.233  13.705 -1.8306  0.5209  0.7066
10895TIP3   OH254175   0.600   6.553  11.773  0.2654  0.2330  0.3969
10895TIP3    H154176   0.552   6.532  11.693  0.1170 -0.7918  0.7374
10895TIP3    H254177   0.692   6.538  11.751  0.4151  1.7201 -0.1078
10896TIP3   OH254178   0.272   3.251   2.194 -0.1587  0.7964 -0.0218
10896TIP3    H154179   0.198   3.203   2.232 -0.5609 -0.5931 -2.4219
10896TIP3    H254180   0.278   3.221   2.104  3.5529  0.6534  0.1171
10897TIP3   OH254181   3.935   2.095  17.015 -0.0200 -0.3466 -0.5586
10897TIP3    H154182   3.864   2.056  16.964 -0.4393  1.3082 -1.3189
10897TIP3    H254183   3.986   2.144  16.950  0.3858  0.4651  0.3600
10898TIP3   OH254184   0.378   2.098  11.443  0.7338 -0.1182  0.3062
10898TIP3    H154185   0.299   2.117  11.392  1.0216 -0.9155 -0.4652
10898TIP3    H254186   0.445   2.156  11.405  0.7505 -0.1299  0.3177
10899TIP3   OH254187   6.794   5.170  16.424  0.0719  0.4182  0.0995
10899TIP3    H154188   6.889   5.181  16.432  0.4496 -0.8575 -1.7890
10899TIP3    H254189   6.773   5.208  16.339 -1.6777  3.3436  1.6974
10900TIP3   OH254190   1.029   5.082   3.749 -0.6143 -0.2859 -0.0712
10900TIP3    H154191   1.086   5.017   3.788 -0.1398  0.6067  0.7740
10900TIP3    H254192   0.951   5.082   3.805 -1.5268 -1.5864 -1.2901
10901TIP3   OH254193   0.530   5.654  12.871  0.5769 -0.4584  0.2569
10901TIP3    H154194   0.457   5.621  12.924  1.2316 -1.2357  0.7157
10901TIP3    H254195   0.490   5.685  12.790 -0.4922  1.0499  1.3146
10902TIP3   OH254196   4.052   2.536  11.492  0.0307  0.3659 -0.2362
10902TIP3    H154197   4.007   2.543  11.577 -0.5199 -1.1615 -0.3712
10902TIP3    H254198   4.034   2.447  11.463 -0.8752  1.2314 -2.5706
10903TIP3   OH254199   5.294   3.418   3.806 -0.0081 -0.4578 -0.3215
10903TIP3    H154200   5.253   3.351   3.861 -0.7775 -0.1675 -0.5304
10903TIP3    H254201   5.231   3.490   3.806  1.9099  1.4025  2.0546
10904TIP3   OH254202   2.114   2.882   3.891 -0.0873 -0.4353 -0.3749
10904TIP3    H154203   2.093   2.879   3.984  2.2564  0.6201  0.2742
10904TIP3    H254204   2.173   2.808   3.877  0.2517 -0.1000 -0.7877
10905TIP3   OH254205   3.777   5.645   5.319 -0.0307  0.0895  0.3897
10905TIP3    H154206   3.849   5.703   5.343 -0.0240  0.4874 -0.5349
10905TIP3    H254207   3.739   5.617   5.402  2.1739 -1.4103  0.9750
10906TIP3   OH254208   6.301   4.072  16.334 -0.8504 -0.2379  0.1148
10906TIP3    H154209   6.312   4.034  16.421 -1.5765  0.6145  0.5935
10906TIP3    H254210   6.217   4.117  16.338 -1.9358 -1.9648 -1.7045
10907TIP3   OH254211   5.122   2.740  11.405  0.3445 -0.3779 -0.7153
10907TIP3    H154212   5.049   2.695  11.446 -1.5008  1.9522 -1.2056
10907TIP3    H254213   5.096   2.750  11.313  0.1490  2.4478 -0.4438
10908TIP3   OH254214   1.874   2.928   5.285 -0.2688 -0.3525 -0.6821
10908TIP3    H154215   1.892   2.849   5.336 -1.4044 -0.4966 -0.4746
10908TIP3    H254216   1.813   2.899   5.217  1.0927 -0.1341 -2.0427
10909TIP3   OH254217   3.744   6.344  12.403  0.0473  0.5010 -0.3087
10909TIP3    H154218   3.795   6.347  12.321 -1.3018 -1.4789 -1.3185
10909TIP3    H254219   3.662   6.388  12.382  0.5679  2.0637  0.7559
10910TIP3   OH254220   4.483   0.325   4.090 -0.2044  0.3856  0.5764
10910TIP3    H154221   4.514   0.412   4.063  0.4870  0.1483  0.5808
10910TIP3    H254222   4.523   0.265   4.027 -0.3371  0.0338  0.8254
10911TIP3   OH254223   0.310   4.992   4.135  0.7690 -0.1330 -0.2860
10911TIP3    H154224   0.365   4.930   4.183 -0.9511 -1.6250 -0.1366
10911TIP3    H254225   0.305   5.069   4.192 -0.0406 -1.3077  1.3357
10912TIP3   OH254226   0.200   4.579  12.047  0.0741  0.1861  0.2859
10912TIP3    H154227   0.239   4.501  12.086 -0.0711  0.7065  1.5038
10912TIP3    H254228   0.116   4.588  12.091 -1.7145 -1.1269 -2.5264
10913TIP3   OH254229   6.191   3.437   1.121  0.2360  0.2215 -0.5390
10913TIP3    H154230   6.252   3.381   1.074  1.7921  0.7033  0.8404
10913TIP3    H254231   6.163   3.386   1.197 -2.3689 -0.6038 -1.9297
10914TIP3   OH254232   2.403   0.419   0.779  0.1562  0.4658 -0.5376
10914TIP3    H154233   2.455   0.411   0.699 -0.4267 -0.6777 -0.8169
10914TIP3    H254234   2.397   0.331   0.814  0.9929  1.0536  1.1848
10915TIP3   OH254235   0.482   2.928   5.394  0.1904 -0.0216 -0.0790
10915TIP3    H154236   0.417   2.996   5.410 -0.2060 -0.5379  0.5667
10915TIP3    H254237   0.456   2.890   5.310 -0.8437 -0.7662  0.5567
10916TIP3   OH254238   1.119   0.695   4.547 -0.0899 -0.0956  0.1596
10916TIP3    H154239   1.124   0.776   4.597  1.9309  0.4528 -0.8169
10916TIP3    H254240   1.192   0.642   4.579 -1.4972 -1.6905  0.9373
10917TIP3   OH254241   1.555   4.050  14.376 -0.5188  0.3197 -0.8641
10917TIP3    H154242   1.493   3.977  14.370  0.9804 -1.0863  0.0048
10917TIP3    H254243   1.513   4.121  14.327 -2.4423 -0.8160 -0.9699
10918TIP3   OH254244   1.085   6.046  11.521  0.0435 -0.0758 -0.2297
10918TIP3    H154245   1.145   6.011  11.456 -0.7501 -2.5815  0.2949
10918TIP3    H254246   1.140   6.102  11.577  1.5785 -1.1058 -0.6455
10919TIP3   OH254247   3.317   3.488  12.171  0.4998  0.2402 -0.0452
10919TIP3    H154248   3.302   3.424  12.240  2.4856  0.3309  0.5371
10919TIP3    H254249   3.315   3.437  12.090  0.8520 -0.3577  0.3158
10920TIP3   OH254250   2.458   4.457  14.432 -0.1838  0.1243 -0.0849
10920TIP3    H154251   2.524   4.514  14.472  0.0994 -0.3308  0.0986
10920TIP3    H254252   2.388   4.517  14.405  0.6129  0.6998 -0.9248
10921TIP3   OH254253   6.436   1.761  10.745  0.4854 -0.0988 -0.0497
10921TIP3    H154254   6.461   1.852  10.762 -1.8446  0.6747 -0.4328
10921TIP3    H254255   6.475   1.742  10.659 -1.3996  1.6194 -1.3987
10922TIP3   OH254256   1.236   1.344  12.123  0.2894  0.3687  0.0714
10922TIP3    H154257   1.325   1.377  12.130  0.4248 -0.3010  2.3583
10922TIP3    H254258   1.207   1.333  12.214 -2.1089  0.5070 -0.6083
10923TIP3   OH254259   3.653   0.121  13.636 -0.6517 -0.4728 -0.0045
10923TIP3    H154260   3.727   0.111  13.576  0.2588 -0.1632  1.0349
10923TIP3    H254261   3.617   0.033  13.645  0.7287 -0.9840  0.8798
10924TIP3   OH254262   1.171   5.453   5.733  0.2198 -0.9529 -0.2111
10924TIP3    H154263   1.249   5.500   5.703  0.0061 -0.4972 -0.0617
10924TIP3    H254264   1.191   5.425   5.822  0.0886 -0.5419 -0.0497
10925TIP3   OH254265   6.675   6.575   0.776 -0.1688  0.8958  0.3990
10925TIP3    H154266   6.635   6.535   0.854 -4.9606  1.3412 -1.4688
10925TIP3    H254267   6.714   6.502   0.729  0.5197  0.2234  1.9374
10926TIP3   OH254268   4.815   2.832  14.243 -0.2314 -0.0725  0.1615
10926TIP3    H154269   4.809   2.742  14.211  1.7591  0.4689 -1.9679
10926TIP3    H254270   4.765   2.884  14.180 -1.2704  0.3766  1.3079
10927TIP3   OH254271   2.103   0.788  14.815  0.0929 -0.4581  0.0515
10927TIP3    H154272   2.020   0.757  14.852 -0.2759 -0.6420 -0.8994
10927TIP3    H254273   2.101   0.883  14.828  0.6731 -0.6540  1.8655
10928TIP3   OH254274   3.907   6.354  12.159  0.4391  0.2942 -0.0162
10928TIP3    H154275   3.857   6.272  12.158 -0.7609  0.8546  3.4739
10928TIP3    H254276   3.932   6.367  12.067  0.8938 -4.0422 -0.7113
10929TIP3   OH254277   0.781   6.779  12.333 -0.3159  0.2412  0.7892
10929TIP3    H154278   0.744   6.749  12.250 -1.0368  0.0121  1.1922
10929TIP3    H254279   0.757   6.712  12.396  0.8575  0.0515  1.0480
10930TIP3   OH254280   4.380   2.570  13.517  0.2623  0.0671  0.5200
10930TIP3    H154281   4.347   2.568  13.607  0.7418 -1.4533  0.6895
10930TIP3    H254282   4.472   2.594  13.526  0.7438 -1.6689  0.6225
10931TIP3   OH254283   6.499   3.055  14.472  0.1427  0.3854  0.5145
10931TIP3    H154284   6.538   2.968  14.474  2.1309  1.2383  1.2438
10931TIP3    H254285   6.460   3.066  14.559  0.3427  0.4138  0.6009
10932TIP3   OH254286   5.335   6.493  14.583  0.2498 -0.5840  1.0054
10932TIP3    H154287   5.411   6.551  14.588 -1.4404  1.8119  0.7792
10932TIP3    H254288   5.363   6.422  14.526  1.7823  1.1450 -0.5391
10933TIP3   OH254289   4.383   3.854  15.627 -0.0590 -0.6587 -0.0664
10933TIP3    H154290   4.297   3.894  15.642 -0.3059 -1.2261  0.0227
10933TIP3    H254291   4.371   3.761  15.644  0.7782 -0.6321  0.7676
10934TIP3   OH254292   4.506   2.544   0.918 -0.3645  0.5519 -0.6998
10934TIP3    H154293   4.481   2.625   0.961  1.5671  0.9942 -0.3572
10934TIP3    H254294   4.556   2.496   0.983  0.6572  0.2080 -1.7098
10935TIP3   OH254295   1.546   3.437   2.109 -0.1067 -0.0379 -0.2420
10935TIP3    H154296   1.633   3.465   2.083  0.6023 -1.7494  0.1624
10935TIP3    H254297   1.549   3.341   2.106 -1.2140 -0.2254  2.1240
10936TIP3   OH254298   6.339   2.712  14.949  0.3213 -0.1180 -0.6292
10936TIP3    H154299   6.360   2.649  15.018 -0.4789  1.6127  1.2815
10936TIP3    H254300   6.309   2.790  14.996  0.3653  1.3696 -2.9300
10937TIP3   OH254301   5.906   6.705   6.202  0.0690  0.2773  0.1104
10937TIP3    H154302   5.923   6.673   6.291 -0.2015 -1.0270 -0.2829
10937TIP3    H254303   5.926   6.798   6.206  1.7434 -0.0834  1.1018
10938TIP3   OH254304   1.449   0.508  13.321 -0.5038  0.1050  0.3106
10938TIP3    H154305   1.516   0.571  13.346  0.3340 -0.8137  0.4351
10938TIP3    H254306   1.422   0.536  13.233  0.0691  0.4681  0.2425
10939TIP3   OH254307   3.381   0.862   4.465  0.1247 -0.2378 -0.2303
10939TIP3    H154308   3.423   0.814   4.536 -0.7003 -1.5444 -0.5857
10939TIP3    H254309   3.318   0.919   4.508  1.3407  0.8326  0.2186
10940TIP3   OH254310   2.806   6.229  11.098  0.4278 -0.0921 -0.3773
10940TIP3    H154311   2.744   6.162  11.126  0.5680  0.0198  0.1977
10940TIP3    H254312   2.752   6.303  11.072  0.2943 -0.2423 -0.5289
10941TIP3   OH254313   3.087   5.586  12.464  0.7046  0.2423  0.1206
10941TIP3    H154314   3.164   5.641  12.483 -0.4753  1.7645  0.7131
10941TIP3    H254315   3.075   5.534  12.543  1.6158 -0.6388 -0.3021
10942TIP3   OH254316   1.398   2.129   3.666 -0.1952  0.3446 -0.4417
10942TIP3    H154317   1.355   2.063   3.720  1.9762  0.3103  1.3713
10942TIP3    H254318   1.419   2.082   3.585 -1.1982 -0.3423 -0.3354
10943TIP3   OH254319   6.838   3.204  15.600 -0.5155  0.1010  0.5645
10943TIP3    H154320   6.813   3.222  15.691  0.6409 -0.2349  0.9639
10943TIP3    H254321   6.849   3.291  15.560  0.3405  0.2782  1.1514
10944TIP3   OH254322   0.048   4.211  13.100 -0.4941 -0.0957  0.3356
10944TIP3    H154323   0.049   4.240  13.191 -1.8851  0.5725  0.1719
10944TIP3    H254324  -0.027   4.151  13.095  0.2887 -1.0720 -0.1187
10945TIP3   OH254325   5.056   2.907   0.902  0.2872 -0.4111  0.2239
10945TIP3    H154326   4.991   2.973   0.925 -0.0349 -0.4136 -0.6467
10945TIP3    H254327   5.007   2.825   0.902  0.1955 -0.3645 -0.8050
10946TIP3   OH254328   4.040   5.669  15.675  0.3672  0.0928 -0.0185
10946TIP3    H154329   4.088   5.681  15.592  0.0897  1.9354  0.0519
10946TIP3    H254330   3.974   5.738  15.674 -0.8712 -1.0377  0.9125
10947TIP3   OH254331   4.017   5.601  11.146 -0.2689 -0.2972 -0.1955
10947TIP3    H154332   4.006   5.654  11.067 -2.2793  0.4987  0.5446
10947TIP3    H254333   4.094   5.638  11.190 -1.2095  1.5826 -0.0578
10948TIP3   OH254334   1.509   3.084   5.784  0.4998 -0.0020  0.1280
10948TIP3    H154335   1.429   3.097   5.836  1.4656 -1.3598  2.1135
10948TIP3    H254336   1.575   3.138   5.827  0.8506  0.5341 -1.0456
10949TIP3   OH254337   1.894   1.045  11.579  0.1186  0.0290 -0.2477
10949TIP3    H154338   1.902   1.073  11.670 -1.2371  0.3940 -0.2156
10949TIP3    H254339   1.984   1.041  11.547  0.5131  2.9446  0.2153
10950TIP3   OH254340   5.774   3.632  11.781 -0.2388  0.5153  0.0964
10950TIP3    H154341   5.843   3.615  11.716 -0.9726  0.1749 -0.6032
10950TIP3    H254342   5.704   3.571  11.758  0.0059 -0.5590  2.0267
10951TIP3   OH254343   5.098   6.744   2.257  0.0877  0.2680  0.1408
10951TIP3    H154344   5.117   6.813   2.322 -0.9171  2.1903 -1.4904
10951TIP3    H254345   5.090   6.792   2.174 -2.7753 -1.5371 -0.7370
10952TIP3   OH254346   5.450   1.600   0.201  0.1663  0.1854  0.2700
10952TIP3    H154347   5.470   1.690   0.225 -2.3334  0.6169  1.0003
10952TIP3    H254348   5.426   1.605   0.108  1.0610  0.0547  0.0194
10953TIP3   OH254349   0.960   5.040   4.210 -0.2898 -0.2283 -0.0459
10953TIP3    H154350   0.884   4.982   4.216  0.9687 -2.1362 -1.3828
10953TIP3    H254351   0.994   5.045   4.300 -2.4115  1.4164  0.7772
10954TIP3   OH254352   0.295   3.907  11.214  0.2871  0.1477  0.1810
10954TIP3    H154353   0.200   3.917  11.221  0.2958  1.8874 -1.4123
10954TIP3    H254354   0.314   3.826  11.262 -2.0565 -0.5634  0.0403
10955TIP3   OH254355   1.609   6.728  17.020  0.1787  0.0919  0.0496
10955TIP3    H154356   1.529   6.677  17.008 -0.4208  0.4565  2.0986
10955TIP3    H254357   1.591   6.812  16.979 -0.0574 -0.2008 -0.4645
10956TIP3   OH254358   5.747   1.645  15.314  0.9856  0.0220  0.1123
10956TIP3    H154359   5.815   1.671  15.253 -1.0598  0.4586 -2.1397
10956TIP3    H254360   5.728   1.724  15.364  0.1432  0.7780 -1.3285
10957TIP3   OH254361   0.026   0.362  12.647 -0.9801  1.2839  0.0052
10957TIP3    H154362   0.022   0.312  12.565  0.4160 -0.2653  0.8101
10957TIP3    H254363   0.068   0.444  12.623 -2.1528  1.5848 -1.1270
10958TIP3   OH254364   3.150   3.950   4.767 -0.4429 -0.5574 -0.2785
10958TIP3    H154365   3.075   3.965   4.708  0.0619  0.0398 -0.7850
10958TIP3    H254366   3.119   3.884   4.828 -0.4127 -2.5520 -2.2842
10959TIP3   OH254367   1.395   4.990   1.191 -0.0083 -0.3271  0.4450
10959TIP3    H154368   1.444   5.049   1.249  1.9951 -1.9665  0.5758
10959TIP3    H254369   1.355   5.047   1.126 -0.3199  1.3609  2.0355
10960TIP3   OH254370   6.387   4.726   4.354  0.5423  0.4645 -0.5468
10960TIP3    H154371   6.316   4.770   4.307 -1.9364 -1.2893  1.3186
10960TIP3    H254372   6.467   4.760   4.313 -1.3010  2.9152 -2.4290
10961TIP3   OH254373   1.930   3.726  16.852  0.0164 -0.0290  0.2401
10961TIP3    H154374   1.989   3.717  16.777 -1.5817 -3.6039 -0.7787
10961TIP3    H254375   1.863   3.788  16.823  1.5807  1.8328  0.3720
10962TIP3   OH254376   3.352   3.768  16.994 -0.5441  0.1277  0.5233
10962TIP3    H154377   3.407   3.692  17.015 -0.0796  0.2072 -0.3490
10962TIP3    H254378   3.403   3.843  17.023 -0.0028  0.2240 -0.6321
10963TIP3   OH254379   3.113   6.163   3.471 -0.6461  0.6357 -0.2513
10963TIP3    H154380   3.022   6.151   3.442 -0.1253 -0.0957 -1.6477
10963TIP3    H254381   3.114   6.130   3.560 -2.0829  2.0656  0.3529
10964TIP3   OH254382   0.368   6.272   1.549 -0.1990 -0.2753 -0.3123
10964TIP3    H154383   0.416   6.355   1.559  1.7364 -1.1887 -1.3365
10964TIP3    H254384   0.326   6.280   1.463 -1.9661  0.5162  0.5769
10965TIP3   OH254385   4.144   3.394  12.270  0.5281 -0.9830  0.0203
10965TIP3    H154386   4.160   3.481  12.233 -0.9486 -1.4360 -1.8446
10965TIP3    H254387   4.088   3.409  12.346  1.9768 -0.1808  0.9740
10966TIP3   OH254388   4.766   1.842   5.835  0.0850  0.1663 -0.0917
10966TIP3    H154389   4.843   1.897   5.846 -0.1083  0.3118  0.6262
10966TIP3    H254390   4.762   1.790   5.916  0.1980 -0.8194 -0.6970
10967TIP3   OH254391   0.217   3.209  12.051 -0.8243  0.2695 -1.0407
10967TIP3    H154392   0.205   3.160  11.970 -1.9040 -0.0903 -0.6816
10967TIP3    H254393   0.229   3.143  12.118 -0.5053  0.5506 -0.8185
10968TIP3   OH254394   5.527   6.377  13.098 -0.3594  0.1805  0.0814
10968TIP3    H154395   5.605   6.400  13.048 -0.0086  0.8860  0.9343
10968TIP3    H254396   5.484   6.460  13.117 -0.2475 -0.0148  1.3184
10969TIP3   OH254397   6.341   3.648  13.845 -0.0453  0.9931 -0.4227
10969TIP3    H154398   6.403   3.637  13.917  1.5193  2.7554 -1.4265
10969TIP3    H254399   6.280   3.715  13.876 -2.8522 -2.0784  1.3508
10970TIP3   OH254400   6.664   3.181  16.310 -0.1771 -0.4331  0.2016
10970TIP3    H154401   6.719   3.173  16.232 -0.9037 -0.4455 -0.3217
10970TIP3    H254402   6.673   3.097  16.354  0.3490 -0.3763  0.2073
10971TIP3   OH254403   1.294   2.093  13.142  0.0549  0.3218  0.3876
10971TIP3    H154404   1.268   2.008  13.177 -0.1578 -0.6077 -1.8754
10971TIP3    H254405   1.292   2.152  13.217  0.2326 -1.6609  2.0222
10972TIP3   OH254406   2.075   0.283   2.061 -0.3536  0.4107 -0.0189
10972TIP3    H154407   2.088   0.257   2.152 -1.2950  0.1617  0.0526
10972TIP3    H254408   2.026   0.366   2.066 -2.8591 -0.9544 -0.2822
10973TIP3   OH254409   5.044   5.133   3.817 -0.0702  0.3119  0.1220
10973TIP3    H154410   4.992   5.057   3.792  1.7462 -1.2912  0.9771
10973TIP3    H254411   5.107   5.143   3.746  1.3257 -0.6102  1.1850
10974TIP3   OH254412   2.445   1.768   2.755  0.4601  0.3496  0.0090
10974TIP3    H154413   2.436   1.860   2.729  0.1577  0.6598  1.1769
10974TIP3    H254414   2.486   1.772   2.841 -0.6185 -0.5698  0.5831
10975TIP3   OH254415   6.671   5.081  14.850  0.1002  0.3977  0.2440
10975TIP3    H154416   6.693   5.087  14.757  0.7835 -3.7397 -0.0469
10975TIP3    H254417   6.753   5.100  14.895  0.4735 -0.2516 -0.1464
10976TIP3   OH254418   2.285   4.763  14.934 -0.2982  0.3840  0.1392
10976TIP3    H154419   2.259   4.680  14.973 -0.9670  0.3054 -0.4427
10976TIP3    H254420   2.255   4.757  14.843  0.6371  0.8208 -0.2054
10977TIP3   OH254421   3.189   3.591  16.208  0.7570 -0.3279  0.0729
10977TIP3    H154422   3.239   3.556  16.135  1.9525 -0.3800  0.8834
10977TIP3    H254423   3.207   3.685  16.206 -0.2777 -0.1334 -0.4872
10978TIP3   OH254424   4.457   3.250  10.767  0.1811 -0.0249  0.1924
10978TIP3    H154425   4.498   3.195  10.701 -0.5231 -0.9162  0.4649
10978TIP3    H254426   4.364   3.251  10.743  0.2836  1.7685 -0.2980
10979TIP3   OH254427   4.352   2.138  13.176  0.0609 -0.2743  0.3033
10979TIP3    H154428   4.296   2.123  13.099 -0.4751  4.9336 -0.7289
10979TIP3    H254429   4.291   2.138  13.250 -1.0913  2.6798 -0.4873
10980TIP3   OH254430   4.209   1.658   2.946  0.7150  0.0926 -0.1653
10980TIP3    H154431   4.209   1.579   3.000  1.3818  0.9026  1.0645
10980TIP3    H254432   4.277   1.713   2.984 -0.1593  1.5244 -0.6131
10981TIP3   OH254433   5.242   3.774   2.266  0.9453 -0.8557 -0.0326
10981TIP3    H154434   5.190   3.745   2.342  0.6866 -2.0505 -0.6331
10981TIP3    H254435   5.209   3.721   2.194  1.3987  0.0544 -0.9269
10982TIP3   OH254436   6.308   0.937  12.790 -0.5604 -0.1963 -0.7198
10982TIP3    H154437   6.245   0.887  12.842  0.2548  0.8554  1.4151
10982TIP3    H254438   6.356   0.872  12.739  0.9558 -1.8009  2.4787
10983TIP3   OH254439   1.029   5.425  16.041  0.0286 -0.1969 -0.2979
10983TIP3    H154440   1.083   5.400  16.115 -2.4039 -0.9492  1.3422
10983TIP3    H254441   0.979   5.501  16.072 -0.7844 -0.3098 -1.2836
10984TIP3   OH254442   0.974   1.584  15.193  0.1762 -0.3078  0.5620
10984TIP3    H154443   0.884   1.552  15.205  0.1809 -0.4042  0.3371
10984TIP3    H254444   0.976   1.667  15.240 -0.1272 -0.1408  0.2802
10985TIP3   OH254445   6.061   6.636   3.116  0.5264 -0.0299  0.2899
10985TIP3    H154446   6.026   6.563   3.065 -1.0659  0.0348  1.2164
10985TIP3    H254447   6.108   6.594   3.188  0.0340 -0.1659  0.5422
10986TIP3   OH254448   5.119   0.465   5.808  0.0301  0.4210  0.0651
10986TIP3    H154449   5.173   0.496   5.881  1.4575  1.7510 -1.4778
10986TIP3    H254450   5.176   0.471   5.732 -1.2962 -1.3068 -1.1333
10987TIP3   OH254451   6.768   1.121  15.097 -0.1793  0.2313 -0.1163
10987TIP3    H154452   6.789   1.050  15.157 -0.3444 -0.4196 -0.8196
10987TIP3    H254453   6.749   1.196  15.154 -1.1170 -0.5752  0.6567
10988TIP3   OH254454   3.347   0.179  15.956 -1.1161  0.0570  0.0675
10988TIP3    H154455   3.301   0.263  15.946  0.2189  0.7558 -0.4579
10988TIP3    H254456   3.359   0.170  16.051 -3.0888 -0.5987  0.3033
10989TIP3   OH254457   0.628   2.694  12.442  0.0985 -0.0945 -0.3693
10989TIP3    H154458   0.583   2.610  12.431 -0.5276  0.3527 -1.4594
10989TIP3    H254459   0.721   2.673  12.440 -0.0577 -0.8170 -0.1472
10990TIP3   OH254460   5.746   2.825   1.731  0.4464  0.0076  0.6283
10990TIP3    H154461   5.753   2.738   1.693  0.2977  0.5342 -0.6502
10990TIP3    H254462   5.677   2.869   1.680 -0.0756  0.6000  1.8002
10991TIP3   OH254463   3.655   5.632  10.848 -0.3781  0.1359 -0.7099
10991TIP3    H154464   3.703   5.618  10.767 -0.4972 -0.6265 -0.6591
10991TIP3    H254465   3.571   5.668  10.820 -1.2422 -2.0711 -1.1233
10992TIP3   OH254466   0.444   2.383  11.390  0.3839 -0.2438  0.2614
10992TIP3    H154467   0.383   2.457  11.401  2.9690  1.6659  3.3177
10992TIP3    H254468   0.487   2.401  11.306 -2.0582 -0.8626 -1.2466
10993TIP3   OH254469   3.267   1.719   2.572 -0.1380  0.3222  0.5202
10993TIP3    H154470   3.304   1.799   2.608 -0.3354  1.8381 -2.3055
10993TIP3    H254471   3.327   1.650   2.598  1.3536  1.7699  1.0965
10994TIP3   OH254472   1.561   6.804   0.506  0.3179 -0.4191  0.3845
10994TIP3    H154473   1.569   6.740   0.435  0.7560 -1.4984  1.3696
10994TIP3    H254474   1.634   6.864   0.493  0.4611 -0.6794 -0.0119
10995TIP3   OH254475   6.517   0.992  13.143 -0.2878  0.2750  0.0027
10995TIP3    H154476   6.563   1.053  13.202  0.3949  0.7633 -1.0001
10995TIP3    H254477   6.548   0.906  13.170  1.1781  0.5838 -0.5647
10996TIP3   OH254478   4.269   0.497   2.668  0.0405  0.1740  0.2430
10996TIP3    H154479   4.198   0.467   2.610 -0.2727 -0.1771  0.7960
10996TIP3    H254480   4.312   0.416   2.697  1.0937  0.4144 -0.6034
10997TIP3   OH254481   1.795   0.548   5.303  0.4159  0.0805  0.1853
10997TIP3    H154482   1.843   0.621   5.342  0.8313 -0.7761  1.3232
10997TIP3    H254483   1.738   0.516   5.373 -0.9117  0.2712 -0.7651
10998TIP3   OH254484   2.512   5.284  16.237 -0.3569  0.1192 -0.4325
10998TIP3    H154485   2.421   5.257  16.223  0.1854 -1.4919 -1.1677
10998TIP3    H254486   2.537   5.244  16.320  0.2716 -1.2413 -1.2358
10999TIP3   OH254487   6.122   3.549  11.888 -0.4943 -0.2694  0.0290
10999TIP3    H154488   6.131   3.466  11.936  0.6585 -0.5696 -0.6629
10999TIP3    H254489   6.151   3.528  11.799  0.7436  1.0955  0.0790
11000TIP3   OH254490   4.165   6.721   5.253  0.4478 -0.0242  0.6100
11000TIP3    H154491   4.105   6.771   5.199 -1.1179 -2.4199 -0.0423
11000TIP3    H254492   4.238   6.699   5.195 -0.4657 -1.2438 -0.1214
11001TIP3   OH254493   5.104   1.868   3.160  0.3177 -0.1054 -0.2922
11001TIP3    H154494   5.014   1.896   3.143 -0.4384 -2.1245  0.0617
11001TIP3    H254495   5.140   1.936   3.216 -1.7925 -0.3565  1.5203
11002TIP3   OH254496   0.222   5.232   4.230  0.2815 -0.0886 -0.0704
11002TIP3    H154497   0.132   5.265   4.223  0.5340  0.3346 -4.6159
11002TIP3    H254498   0.271   5.303   4.272 -0.7787  1.6354 -1.6236
11003TIP3   OH254499   5.886   3.900   2.144 -0.6224 -0.5455 -0.1892
11003TIP3    H154500   5.827   3.874   2.215 -1.4549  0.3566 -0.5194
11003TIP3    H254501   5.857   3.988   2.121  1.4244  0.2786  0.1968
11004TIP3   OH254502   3.002   4.452   2.904 -0.2990 -0.2688  0.1539
11004TIP3    H154503   3.008   4.439   2.809  0.4184  0.3718  0.1041
11004TIP3    H254504   2.972   4.542   2.915 -0.0050 -0.2126  0.5372
11005TIP3   OH254505   2.920   3.193   3.303 -0.5033 -0.2658  0.4281
11005TIP3    H154506   2.992   3.224   3.358 -0.1718 -0.1592 -0.0621
11005TIP3    H254507   2.956   3.193   3.214 -0.9798 -0.6036  0.2329
11006TIP3   OH254508   3.722   5.733   1.594  0.1449 -0.6032 -0.4173
11006TIP3    H154509   3.812   5.757   1.570  0.5512 -0.1828  1.3878
11006TIP3    H254510   3.667   5.789   1.539  1.0145  0.2554 -0.4426
11007TIP3   OH254511   5.053   3.427   1.410 -0.4904  0.1590  0.3538
11007TIP3    H154512   5.140   3.401   1.381 -0.9049  0.2025 -0.9761
11007TIP3    H254513   4.995   3.398   1.340 -1.3436  1.7140  0.3895
11008TIP3   OH254514   6.403   3.138   5.034 -0.2076 -0.2806 -0.0732
11008TIP3    H154515   6.468   3.081   4.993  0.1164 -0.8630  1.2071
11008TIP3    H254516   6.422   3.225   4.998  0.6780 -0.6089 -0.4242
11009TIP3   OH254517   1.144   1.477  15.773  0.0946  0.0096 -0.7690
11009TIP3    H154518   1.188   1.506  15.694  0.5667  1.7183  0.0865
11009TIP3    H254519   1.214   1.447  15.831  0.2133  2.5034  0.4977
11010TIP3   OH254520   4.453   6.475   2.248  0.3857  0.2461  0.4972
11010TIP3    H154521   4.476   6.413   2.180 -0.2606 -1.6152  1.8864
11010TIP3    H254522   4.388   6.534   2.207  1.5602  0.5171 -1.0529
11011TIP3   OH254523   4.096   4.499   3.938 -0.2897  0.3167  0.0657
11011TIP3    H154524   4.124   4.515   4.028  0.7645  0.0386 -0.1976
11011TIP3    H254525   4.174   4.467   3.893 -0.9257 -0.0525 -0.8274
11012TIP3   OH254526   1.105   6.425   3.527 -0.4684  0.1397 -0.0886
11012TIP3    H154527   1.110   6.367   3.451 -1.5784 -2.1086  1.4383
11012TIP3    H254528   1.137   6.371   3.600  0.2542  2.1114  1.1323
11013TIP3   OH254529   4.974   1.802  15.226 -0.0183  0.4863 -0.1548
11013TIP3    H154530   4.909   1.782  15.293 -1.3085  2.9301 -0.5562
11013TIP3    H254531   4.934   1.772  15.144  0.6121 -0.5324 -0.1037
11014TIP3   OH254532   3.233   5.856   6.187  0.1173  0.3806  0.0837
11014TIP3    H154533   3.191   5.872   6.102  0.4898  1.5723  0.1054
11014TIP3    H254534   3.173   5.798   6.233 -0.5300  0.4484 -0.6523
11015TIP3   OH254535   1.044   4.379  15.362  0.1724 -0.2792  0.8399
11015TIP3    H154536   0.987   4.455  15.367  0.1449 -0.1213 -1.0514
11015TIP3    H254537   1.128   4.409  15.396  0.7279  1.2478 -1.6107
11016TIP3   OH254538   0.968   3.219   1.343  0.5089 -0.0856 -0.1533
11016TIP3    H154539   0.937   3.305   1.315 -0.3243 -0.8714 -1.8230
11016TIP3    H254540   0.889   3.174   1.374  0.8932 -0.3498  0.4781
11017TIP3   OH254541   1.621   6.760   1.763 -0.4290  0.3308 -0.2576
11017TIP3    H154542   1.603   6.791   1.851 -0.8131  2.3811 -0.9955
11017TIP3    H254543   1.535   6.752   1.722 -0.3144 -1.4720 -0.2183
11018TIP3   OH254544   6.813   2.709  13.021 -0.0214 -0.1143  0.0056
11018TIP3    H154545   6.718   2.710  13.015 -0.0935  2.8158  0.0441
11018TIP3    H254546   6.844   2.713  12.930  0.0150  0.1697  0.0283
11019TIP3   OH254547   4.206   3.500   3.408  0.5686  0.2053 -0.0971
11019TIP3    H154548   4.174   3.545   3.486  0.4706  0.2355 -0.1545
11019TIP3    H254549   4.232   3.570   3.348 -0.8606  0.2351 -0.7323
11020TIP3   OH254550   3.228   2.372  16.340  0.3907 -0.4995  0.0344
11020TIP3    H154551   3.261   2.434  16.276 -1.7445  0.2767 -0.4015
11020TIP3    H254552   3.135   2.363  16.319 -0.0448 -1.4018  2.0853
11021TIP3   OH254553   1.626   0.288  15.206  0.9462 -0.3156  0.1038
11021TIP3    H154554   1.547   0.301  15.154  0.2348  0.4536  1.3239
11021TIP3    H254555   1.691   0.255  15.144  0.4810  1.6593 -1.5111
11022TIP3   OH254556   1.215   2.601  11.863  0.3223  0.0363 -0.3631
11022TIP3    H154557   1.186   2.617  11.773 -0.0489  1.5047 -0.0005
11022TIP3    H254558   1.135   2.599  11.914  0.5473 -0.6312 -0.0198
11023TIP3   OH254559   5.735   0.563   0.123 -0.0989 -0.2894 -0.0394
11023TIP3    H154560   5.796   0.566   0.196  1.3086 -0.6267 -1.1547
11023TIP3    H254561   5.720   0.470   0.107 -1.5913 -0.2158  0.7314
11024TIP3   OH254562   2.634   1.142   1.904 -0.2749  0.0272  0.5591
11024TIP3    H154563   2.573   1.092   1.849  0.6522 -1.6765  0.9839
11024TIP3    H254564   2.580   1.173   1.977 -0.8311 -0.6525  0.4464
11025TIP3   OH254565   3.899   1.472  11.168  0.4700  0.2441 -0.4725
11025TIP3    H154566   3.878   1.380  11.154 -1.0040  0.5241 -0.2916
11025TIP3    H254567   3.889   1.484  11.263  1.9573  0.3093 -0.2992
11026TIP3   OH254568   3.543   5.369   0.844 -0.0459 -0.2129 -0.5311
11026TIP3    H154569   3.588   5.423   0.908  1.4889  1.2278 -2.6953
11026TIP3    H254570   3.550   5.280   0.879  2.2762  0.2970  0.4794
11027TIP3   OH254571   0.689   6.763  10.509  0.5886 -0.1975  0.0300
11027TIP3    H154572   0.755   6.720  10.564  0.5182  1.1532  1.2337
11027TIP3    H254573   0.705   6.729  10.421 -0.0461 -3.3437  1.0212
11028TIP3   OH254574   2.632   4.042  15.412 -0.6478 -0.9197 -0.1546
11028TIP3    H154575   2.581   4.046  15.493 -0.5003  1.6124 -0.1138
11028TIP3    H254576   2.721   4.064  15.439 -0.6589  0.2824 -1.0271
11029TIP3   OH254577   5.903   5.999  14.244 -0.1770 -0.2484  0.1133
11029TIP3    H154578   5.879   6.016  14.335 -1.7241 -2.9580  0.2969
11029TIP3    H254579   5.941   5.911  14.244  0.0344 -0.2204 -1.8362
11030TIP3   OH254580   6.562   4.782   0.889 -0.3027 -0.3335 -0.1779
11030TIP3    H154581   6.537   4.863   0.845 -0.0285  0.0864  0.4134
11030TIP3    H254582   6.601   4.728   0.821 -1.7010 -0.5185 -0.8579
11031TIP3   OH254583   3.231   1.377  16.480  0.3159 -0.1976  0.1477
11031TIP3    H154584   3.243   1.458  16.432  0.6721 -0.1623  0.2884
11031TIP3    H254585   3.226   1.404  16.572  1.3151 -0.4012  0.2742
11032TIP3   OH254586   0.271   5.800   4.719 -0.0681  0.4044 -0.0833
11032TIP3    H154587   0.303   5.815   4.808  0.0672  0.0394 -0.0681
11032TIP3    H254588   0.283   5.885   4.675  1.2037  0.2086 -0.1556
11033TIP3   OH254589   3.592   3.000  11.189  0.2795 -0.6782 -0.3979
11033TIP3    H154590   3.596   2.959  11.103 -0.5767  0.0219 -0.7836
11033TIP3    H254591   3.656   3.071  11.186 -0.6572  0.1656 -0.9180
11034TIP3   OH254592   1.146   3.218  12.335 -0.4754 -0.2399 -0.2698
11034TIP3    H154593   1.211   3.250  12.274 -0.8032 -1.4882 -1.3172
11034TIP3    H254594   1.062   3.240  12.295 -0.7899  2.1310  1.4688
11035TIP3   OH254595   6.342   4.185   0.977  0.4396  0.5558 -0.4042
11035TIP3    H154596   6.386   4.266   1.003  0.9234  0.6173 -1.3625
11035TIP3    H254597   6.255   4.191   1.017  0.2042  1.8880 -1.0437
11036TIP3   OH254598   3.250   1.971   2.800 -0.2378  0.7939  0.3718
11036TIP3    H154599   3.204   2.054   2.811 -0.9594  0.5484 -0.6592
11036TIP3    H254600   3.186   1.904   2.823 -0.6087  0.4283 -1.4984
11037TIP3   OH254601   2.229   2.094   1.658 -0.3292 -0.5205  0.0894
11037TIP3    H154602   2.205   2.049   1.577  1.4901 -0.6778 -0.4042
11037TIP3    H254603   2.259   2.025   1.716  2.0931 -0.0699 -0.5258
11038TIP3   OH254604   3.127   6.668  11.385 -0.3995  0.0180  0.0901
11038TIP3    H154605   3.072   6.651  11.462 -0.5115  0.0907  0.0272
11038TIP3    H254606   3.216   6.649  11.414 -0.6046 -1.6845 -0.2610
11039TIP3   OH254607   1.324   1.735   5.206 -0.7942 -0.4035  0.3682
11039TIP3    H154608   1.338   1.745   5.112  2.8944 -0.4114  0.7518
11039TIP3    H254609   1.384   1.799   5.246 -0.4546 -2.0368  2.6800
11040TIP3   OH254610   3.656   3.115  15.662 -0.0121 -0.2472 -0.2226
11040TIP3    H154611   3.668   3.146  15.572  0.3226 -1.5393 -0.6342
11040TIP3    H254612   3.726   3.158  15.711  0.8475 -0.8207 -0.9083
11041TIP3   OH254613   4.637   6.088   1.558 -0.0414 -0.0123  0.8501
11041TIP3    H154614   4.668   6.153   1.495  0.0538 -0.4205  0.4655
11041TIP3    H254615   4.545   6.075   1.535  0.1123 -0.5007  0.4878
11042TIP3   OH254616   2.696   1.540  15.578 -0.4915  0.1537 -0.3646
11042TIP3    H154617   2.615   1.581  15.548 -0.0204  0.9448 -0.5876
11042TIP3    H254618   2.668   1.463  15.627 -1.4768  1.3583  1.0337
11043TIP3   OH254619   4.264   0.116   2.897  0.0092  0.0180  0.0968
11043TIP3    H154620   4.274   0.170   2.975 -0.4626 -0.3223  0.3929
11043TIP3    H254621   4.287   0.175   2.825 -1.3703  0.8962  0.3457
11044TIP3   OH254622   0.831   0.919  14.855 -0.2384  0.3800 -0.2674
11044TIP3    H154623   0.873   1.003  14.872  1.8423 -0.7519  0.4835
11044TIP3    H254624   0.882   0.882  14.783  0.0176 -0.9943  0.6002
11045TIP3   OH254625   4.298   0.674  12.871 -0.2534  0.0807  0.0141
11045TIP3    H154626   4.339   0.711  12.793 -0.9403 -0.8186 -0.8146
11045TIP3    H254627   4.207   0.658  12.844 -0.3787 -0.6866  0.8527
11046TIP3   OH254628   4.442   2.991   6.597 -0.2177  0.0305 -0.6536
11046TIP3    H154629   4.519   3.047   6.591 -0.3129  0.1799 -0.4626
11046TIP3    H254630   4.400   3.015   6.680 -0.0806 -0.5449 -0.4152
11047TIP3   OH254631   6.676   0.103  15.725  0.2977  0.2386 -0.2389
11047TIP3    H154632   6.712   0.182  15.765  1.0663  0.7393 -1.8217
11047TIP3    H254633   6.619   0.136  15.655  1.2223 -0.5940 -1.4218
11048TIP3   OH254634   6.138   5.450  16.897  0.1885  0.5147  0.7365
11048TIP3    H154635   6.048   5.479  16.911  0.2597  0.5731  1.0859
11048TIP3    H254636   6.186   5.530  16.875 -0.3453  0.1474 -2.1352
11049TIP3   OH254637   4.714   1.554  11.471 -0.0319 -0.0230  0.4649
11049TIP3    H154638   4.710   1.482  11.533  1.4256 -0.5542 -0.0108
11049TIP3    H254639   4.762   1.623  11.518  0.2815 -0.0951  0.2575
11050TIP3   OH254640   6.673   3.551   2.782  0.4980  0.2135 -0.5563
11050TIP3    H154641   6.685   3.640   2.748  2.1015 -0.9180 -3.3595
11050TIP3    H254642   6.755   3.533   2.828 -0.2025  0.4709  0.8186
11051TIP3   OH254643   1.772   2.886  14.383  0.1784  0.0868  0.1407
11051TIP3    H154644   1.778   2.851  14.472 -1.3732 -0.1693  0.1691
11051TIP3    H254645   1.682   2.916  14.375  1.1444  3.2449 -0.2234
11052TIP3   OH254646   5.682   3.556  12.573 -0.1239  0.4574 -0.0865
11052TIP3    H154647   5.769   3.522  12.595  0.1934  2.0479  1.3084
11052TIP3    H254648   5.687   3.575  12.480  0.5348 -0.8189 -0.3335
11053TIP3   OH254649   0.662   3.966  11.379  0.9142  0.0227 -0.3862
11053TIP3    H154650   0.583   3.989  11.331 -0.6932 -0.7413  1.7157
11053TIP3    H254651   0.703   4.050  11.399 -1.4140  0.8118  1.6369
11054TIP3   OH254652   4.444   1.748  13.778  0.9763  0.2058 -0.0537
11054TIP3    H154653   4.475   1.659  13.758 -0.5738 -0.0311 -1.6820
11054TIP3    H254654   4.436   1.790  13.692  0.7472  1.6104  0.6286
11055TIP3   OH254655   6.728   1.321  11.225  0.5252 -0.1853 -0.2046
11055TIP3    H154656   6.744   1.253  11.160  2.1585  1.0408 -1.1739
11055TIP3    H254657   6.722   1.274  11.309 -2.1730 -1.8633 -1.2102
11056TIP3   OH254658   5.676   4.145   1.612 -0.2281 -1.1111  0.4535
11056TIP3    H154659   5.707   4.164   1.700  1.1006 -0.5848 -0.1061
11056TIP3    H254660   5.715   4.214   1.558 -2.7723 -0.0703 -0.2426
11057TIP3   OH254661   6.720   0.375   3.931 -0.4823 -0.6445 -0.2836
11057TIP3    H154662   6.772   0.412   3.860  0.4646 -3.0732 -0.9683
11057TIP3    H254663   6.705   0.284   3.905 -0.1360 -1.6279  2.6113
11058TIP3   OH254664   2.206   1.948   2.933 -0.5228 -0.4448  0.0333
11058TIP3    H154665   2.251   1.897   2.866  0.8838  1.2803 -0.4294
11058TIP3    H254666   2.182   2.029   2.888 -2.1692 -0.4293  0.8736
11059TIP3   OH254667   0.951   3.515  10.788 -0.2326 -0.0808  0.0638
11059TIP3    H154668   1.012   3.581  10.755  1.2790 -1.6283 -0.3743
11059TIP3    H254669   1.000   3.468  10.855 -1.5254 -0.3237  0.8737
11060TIP3   OH254670   4.726   4.014  14.828 -0.7526  0.3405  0.2785
11060TIP3    H154671   4.808   3.976  14.859 -0.9064  1.0053  1.5856
11060TIP3    H254672   4.749   4.104  14.803 -1.0332  0.4581  0.4409
11061TIP3   OH254673   1.637   0.684   2.843 -0.1529  0.3517  0.0039
11061TIP3    H154674   1.672   0.717   2.926 -1.5993  0.0001  0.7908
11061TIP3    H254675   1.645   0.589   2.850 -1.7213  0.2307  0.4406
11062TIP3   OH254676   2.845   3.669  12.582 -0.1035  0.0824 -0.0238
11062TIP3    H154677   2.774   3.624  12.536 -1.0492 -0.4183  1.8220
11062TIP3    H254678   2.886   3.602  12.635  0.6932  0.7164  0.1851
11063TIP3   OH254679   4.687   4.659  11.634  0.0057 -0.6562 -0.3041
11063TIP3    H154680   4.702   4.586  11.573  0.3273 -1.0529  0.2390
11063TIP3    H254681   4.775   4.688  11.658 -0.0911 -1.4929  1.1376
11064TIP3   OH254682   5.026   3.887   6.199  0.3739  0.0367  0.0119
11064TIP3    H154683   4.936   3.890   6.230  0.3873 -0.2829  0.0770
11064TIP3    H254684   5.073   3.949   6.256 -0.2671  2.0535 -1.5488
11065TIP3   OH254685   3.823   0.619  12.830  0.4652 -0.0184  1.0157
11065TIP3    H154686   3.755   0.675  12.792  0.5414 -0.1092  0.7433
11065TIP3    H254687   3.800   0.614  12.922 -2.3433 -3.4022  0.3448
11066TIP3   OH254688   6.854   4.005   4.040 -0.6212 -0.5892  0.3301
11066TIP3    H154689   6.812   4.087   4.013 -1.2496 -0.9237  0.2629
11066TIP3    H254690   6.945   4.015   4.013 -0.9994 -0.4744 -0.9815
11067TIP3   OH254691   0.210   4.153   2.197 -0.0019 -0.3059 -0.2605
11067TIP3    H154692   0.304   4.165   2.181 -0.2604 -0.2240 -1.9585
11067TIP3    H254693   0.205   4.068   2.242  0.9699  0.4121  1.3034
11068TIP3   OH254694   0.665   3.347   1.176 -0.2477 -0.1646 -0.3982
11068TIP3    H154695   0.594   3.411   1.173  0.2289  0.3409 -1.1142
11068TIP3    H254696   0.730   3.386   1.235 -0.8282 -0.9266  0.7928
11069TIP3   OH254697   2.665   3.814  14.160 -0.2709  0.5092  0.9092
11069TIP3    H154698   2.686   3.724  14.137 -1.1883  0.4221  0.3682
11069TIP3    H254699   2.667   3.861  14.077 -0.3994  0.8661  1.1043
11070TIP3   OH254700   3.687   2.283  13.243 -0.0894 -0.0050  0.0294
11070TIP3    H154701   3.642   2.359  13.282  0.7571 -0.0297  1.1262
11070TIP3    H254702   3.708   2.310  13.154 -0.8138  0.6200  0.0400
11071TIP3   OH254703   5.121   2.825   3.169  0.2802  0.0949 -0.1044
11071TIP3    H154704   5.156   2.766   3.103 -0.7200 -0.0578 -0.5152
11071TIP3    H254705   5.105   2.770   3.246 -0.5737 -0.1660 -0.4592
11072TIP3   OH254706   4.321   1.408  16.975 -0.1239 -0.1033 -0.4201
11072TIP3    H154707   4.396   1.384  16.920  0.9672  0.4241  0.7776
11072TIP3    H254708   4.270   1.469  16.922 -0.5103 -1.5677 -1.7952
11073TIP3   OH254709   4.646   2.848   5.421 -1.2687 -0.1561  0.1587
11073TIP3    H154710   4.597   2.829   5.501 -0.9419 -1.0424  0.1611
11073TIP3    H254711   4.606   2.927   5.386 -2.0941 -0.3477  0.6448
11074TIP3   OH254712   6.552   3.596   2.229  0.4173 -0.0520 -0.3066
11074TIP3    H154713   6.641   3.629   2.241  0.0384  0.5581  1.0276
11074TIP3    H254714   6.560   3.501   2.242  0.8901 -0.0073 -0.2528
11075TIP3   OH254715   6.023   6.489   4.096 -0.4155 -0.3511  0.3291
11075TIP3    H154716   5.943   6.536   4.074 -0.2153  0.2065  0.7830
11075TIP3    H254717   6.093   6.551   4.077 -0.1417 -0.4964  0.8585
11076TIP3   OH254718   5.790   6.296  14.666  0.6472  0.2007  0.6987
11076TIP3    H154719   5.810   6.366  14.604  1.4111 -1.0968 -0.5936
11076TIP3    H254720   5.767   6.341  14.747  0.4023  1.9450 -0.2880
11077TIP3   OH254721   3.479   0.210  12.954 -0.0296  0.3617 -0.5342
11077TIP3    H154722   3.400   0.231  13.005 -0.0250  1.2102 -0.8589
11077TIP3    H254723   3.477   0.272  12.881 -0.5423 -1.3990 -2.1215
11078TIP3   OH254724   3.138   5.093   1.347 -0.2177  0.3982  0.1119
11078TIP3    H154725   3.084   5.072   1.423 -0.3964 -0.5327 -0.2702
11078TIP3    H254726   3.216   5.039   1.356 -0.8700 -0.8069 -1.0932
11079TIP3   OH254727   2.171   5.038   4.283 -0.1628 -0.4084  0.5421
11079TIP3    H154728   2.258   5.078   4.285 -1.0594  1.8837 -1.6659
11079TIP3    H254729   2.188   4.944   4.286  2.5835 -0.1512 -2.2223
11080TIP3   OH254730   0.767   5.833  17.044  0.3711  0.1708  0.6178
11080TIP3    H154731   0.754   5.843  16.950 -1.6896 -1.8251  0.6295
11080TIP3    H254732   0.709   5.898  17.083  1.2181  0.9914  0.5644
11081TIP3   OH254733   6.267   6.538  14.417 -0.3891 -0.3776  0.1655
11081TIP3    H154734   6.299   6.551  14.328  0.0125  1.4876  0.5309
11081TIP3    H254735   6.230   6.450  14.417  0.4092 -0.7545 -1.5881
11082TIP3   OH254736   2.244   0.335   1.450 -0.2519  0.3476 -0.1078
11082TIP3    H154737   2.330   0.337   1.492  0.1464 -0.6909 -0.8294
11082TIP3    H254738   2.195   0.406   1.491  0.6657  0.4024  0.9303
11083TIP3   OH254739   3.909   1.648   4.018  0.3386  0.0440  0.3819
11083TIP3    H154740   3.883   1.665   3.927  0.7877 -0.5287  0.1403
11083TIP3    H254741   3.835   1.600   4.056  0.4440 -0.3273  0.1158
11084TIP3   OH254742   1.298   5.342   2.845 -0.1424 -0.3399  0.8703
11084TIP3    H154743   1.261   5.288   2.915 -0.5336 -0.1194  0.8358
11084TIP3    H254744   1.357   5.282   2.797 -1.7400 -1.1893 -0.1261
11085TIP3   OH254745   0.063   2.017  16.363 -0.1315 -0.1711 -0.2642
11085TIP3    H154746   0.115   1.999  16.285 -2.8188 -1.8611 -1.8270
11085TIP3    H254747   0.030   2.106  16.351  1.2245  0.3963  0.0767
11086TIP3   OH254748   3.126   1.763   5.660  0.4997  0.0247  0.2601
11086TIP3    H154749   3.180   1.842   5.662 -0.3008  0.7753 -2.6333
11086TIP3    H254750   3.036   1.795   5.664  0.0284 -0.3167 -3.5329
11087TIP3   OH254751   4.133   5.073  15.929  0.5558  0.3900  0.9000
11087TIP3    H154752   4.058   5.054  15.873  0.7192  0.5529  0.6169
11087TIP3    H254753   4.119   5.163  15.958 -0.4938 -0.3013  2.6772
11088TIP3   OH254754   0.686   1.715  15.096 -0.7897 -0.2391 -0.2403
11088TIP3    H154755   0.646   1.750  15.176  0.0484  0.2457 -0.0231
11088TIP3    H254756   0.664   1.779  15.028  0.5058  0.5980  0.1003
11089TIP3   OH254757   0.352   5.957   2.822  0.2369 -0.1173 -0.1445
11089TIP3    H154758   0.356   6.003   2.905 -1.7786 -0.4296  0.1559
11089TIP3    H254759   0.320   6.022   2.759 -1.0246 -0.6276 -0.0563
11090TIP3   OH254760   0.103   4.020   3.765  0.7604 -0.2394 -0.1746
11090TIP3    H154761   0.041   3.960   3.807  0.2374 -1.2090 -2.2064
11090TIP3    H254762   0.173   3.964   3.733  2.1773  0.7205  1.1005
11091TIP3   OH254763   4.424   1.606  14.940  0.0286 -0.2772 -0.3405
11091TIP3    H154764   4.397   1.520  14.910 -0.1305 -0.5412  0.5302
11091TIP3    H254765   4.508   1.591  14.984  0.2875  0.1080 -0.6964
11092TIP3   OH254766   2.548   2.339  10.758  0.0978 -0.5008 -0.0832
11092TIP3    H154767   2.611   2.334  10.830  0.4084  1.6514 -0.1308
11092TIP3    H254768   2.598   2.379  10.687 -1.4985  2.2894  0.2137
11093TIP3   OH254769   1.904   4.449   4.564  0.0755 -0.1627 -0.0135
11093TIP3    H154770   1.891   4.512   4.635  0.7898 -0.6391  0.5517
11093TIP3    H254771   1.905   4.502   4.484 -0.9228  0.3599  0.2968
11094TIP3   OH254772   2.050   4.890  11.258 -0.0103  0.3337  0.5766
11094TIP3    H154773   2.033   4.796  11.250  0.1412  0.2868  0.7987
11094TIP3    H254774   1.974   4.931  11.217 -0.2910  0.1186  0.8712
11095TIP3   OH254775   3.177   1.012  11.106  0.2120  0.2262  0.0755
11095TIP3    H154776   3.195   1.058  11.024  1.1941 -1.5927 -0.7987
11095TIP3    H254777   3.255   1.026  11.159  0.0296  0.5039  0.2741
11096TIP3   OH254778   3.302   0.951   2.470  0.3456  0.6222 -0.5306
11096TIP3    H154779   3.283   0.934   2.562  0.5120 -0.9312 -0.7660
11096TIP3    H254780   3.386   0.907   2.454  0.3109  0.8622 -1.4272
11097TIP3   OH254781   6.736   3.429   3.960 -0.1103 -0.0674  0.2485
11097TIP3    H154782   6.830   3.414   3.963 -0.3772 -2.1153 -0.1416
11097TIP3    H254783   6.723   3.511   4.007  1.7192 -0.4386  1.4845
11098TIP3   OH254784   1.932   0.356  14.130  0.2014  0.3720  0.4850
11098TIP3    H154785   2.017   0.355  14.173  0.2474 -2.0796  0.4834
11098TIP3    H254786   1.871   0.387  14.197  0.6080 -1.2048  1.6261
11099TIP3   OH254787   6.061   3.045   2.438 -0.1099  0.7466  0.3793
11099TIP3    H154788   6.112   3.067   2.360  2.2367 -2.8907  0.6601
11099TIP3    H254789   6.122   3.055   2.511 -0.4247 -1.4241  1.0072
11100TIP3   OH254790   4.816   0.877   6.004 -0.0129  0.4116  0.1608
11100TIP3    H154791   4.899   0.857   6.047  0.9020  1.1684 -1.1370
11100TIP3    H254792   4.749   0.835   6.058  0.8574  2.6224  3.2101
11101TIP3   OH254793   4.705   3.012  14.781 -0.1760  0.0264 -0.1586
11101TIP3    H154794   4.619   2.970  14.769  1.8281 -4.0291 -2.2595
11101TIP3    H254795   4.754   2.950  14.835  1.5520  2.2165  0.9283
11102TIP3   OH254796   5.627   5.556  13.448 -0.2039  0.2165  0.0955
11102TIP3    H154797   5.548   5.607  13.467 -1.4283 -1.8218  0.7761
11102TIP3    H254798   5.651   5.581  13.359 -0.5493  2.1643  0.4866
11103TIP3   OH254799   0.962   2.610   4.284 -0.6795  0.2270 -0.1299
11103TIP3    H154800   0.988   2.540   4.223 -1.3364  1.0433 -1.3881
11103TIP3    H254801   0.990   2.691   4.240 -2.3059  0.9163  0.0608
11104TIP3   OH254802   6.484   0.374  12.034  0.0888 -0.0521 -0.3813
11104TIP3    H154803   6.485   0.422  11.951  1.1610  0.3356 -0.1561
11104TIP3    H254804   6.453   0.286  12.011  0.0669  0.1469 -1.1322
11105TIP3   OH254805   4.405   2.528  16.454 -0.2447  0.1511 -0.1575
11105TIP3    H154806   4.363   2.464  16.397 -1.5837  0.7545  0.1135
11105TIP3    H254807   4.497   2.501  16.458 -0.1736 -0.0840 -2.3525
11106TIP3   OH254808   4.638   5.751   3.882  0.3850 -0.3835 -0.6903
11106TIP3    H154809   4.703   5.712   3.823  2.3950  0.0796  1.1016
11106TIP3    H254810   4.674   5.836   3.904 -0.7994 -0.1552  0.4443
11107TIP3   OH254811   4.382   3.571  15.618 -0.3521  0.1334 -0.5222
11107TIP3    H154812   4.329   3.531  15.548 -0.1710 -1.5425  0.2366
11107TIP3    H254813   4.350   3.528  15.698  0.2232  1.1834  0.2837
11108TIP3   OH254814   5.098   5.480   5.521  0.0088  0.3927  0.0095
11108TIP3    H154815   5.161   5.408   5.516  1.8300  1.7742  1.5266
11108TIP3    H254816   5.027   5.446   5.576 -0.4997 -1.1002 -1.4914
11109TIP3   OH254817   5.296   1.796   1.973 -0.1009  0.9178 -0.0354
11109TIP3    H154818   5.340   1.878   1.994  1.2679  0.4145 -0.8441
11109TIP3    H254819   5.285   1.797   1.878 -0.9021  0.5640  0.0445
11110TIP3   OH254820   3.895   5.451   0.579  0.3768 -0.2224 -0.3389
11110TIP3    H154821   3.863   5.384   0.519  2.1253 -0.1659 -1.4178
11110TIP3    H254822   3.951   5.402   0.641  0.6289  0.0548 -0.3439
11111TIP3   OH254823   4.154   3.733  12.418 -0.3193  0.0662  0.6161
11111TIP3    H154824   4.230   3.792  12.426 -0.1960 -0.3424  3.2113
11111TIP3    H254825   4.157   3.704  12.327  1.4509  1.6268  0.0885
11112TIP3   OH254826   6.239   2.533  12.419 -0.2851  0.0264  0.4258
11112TIP3    H154827   6.158   2.564  12.378  0.4678  2.6647  0.7358
11112TIP3    H254828   6.229   2.554  12.511  0.2850 -0.7762  0.6829
11113TIP3   OH254829   0.685   4.598  14.552  0.1047 -0.3571 -0.4437
11113TIP3    H154830   0.633   4.526  14.587  2.7620 -2.0154  0.3905
11113TIP3    H254831   0.740   4.626  14.626 -1.3316  3.1192 -0.5070
11114TIP3   OH254832   1.123   5.303  14.695 -0.2098  0.6379  0.1488
11114TIP3    H154833   1.052   5.240  14.683 -0.3553  0.4965  1.5514
11114TIP3    H254834   1.079   5.386  14.714 -0.0857  0.2665  2.4442
11115TIP3   OH254835   4.119   2.079   4.768 -0.4676 -0.2697  0.0167
11115TIP3    H154836   4.201   2.033   4.789  0.2473  0.8482 -0.2402
11115TIP3    H254837   4.064   2.067   4.846  0.0222 -0.8369  0.2839
11116TIP3   OH254838   6.534   4.269   2.926 -0.5206  0.2713  0.2096
11116TIP3    H154839   6.532   4.191   2.981 -0.8972  0.1610  0.0466
11116TIP3    H254840   6.622   4.269   2.887 -0.4028  0.1180  0.4763
11117TIP3   OH254841   2.558   0.913   5.153 -0.2535 -0.6664 -0.6646
11117TIP3    H154842   2.500   0.885   5.224  1.6688 -1.5179  0.6314
11117TIP3    H254843   2.547   0.846   5.085  0.1109 -1.4845  0.0779
11118TIP3   OH254844   1.540   4.901   1.784 -0.2419 -0.2641 -0.0064
11118TIP3    H154845   1.604   4.971   1.776  1.1393 -1.3842  0.8399
11118TIP3    H254846   1.551   4.849   1.704 -2.2009  1.1450 -1.3014
11119TIP3   OH254847   2.218   3.173   1.634 -0.1372  0.2949  0.2284
11119TIP3    H154848   2.147   3.132   1.585 -0.5874 -0.1912  1.2705
11119TIP3    H254849   2.188   3.174   1.725  0.8050  0.9163  0.5538
11120TIP3   OH254850   4.471   1.977  13.553  0.2175  0.0422 -0.2036
11120TIP3    H154851   4.419   1.962  13.475 -0.8521  0.7074  0.3470
11120TIP3    H254852   4.553   1.930  13.538  0.1107  0.3114 -1.7911
11121TIP3   OH254853   5.623   2.019  11.835 -0.0204 -0.3189 -0.5519
11121TIP3    H154854   5.618   2.045  11.927  1.6714 -3.5494  0.6215
11121TIP3    H254855   5.544   1.968  11.820  0.5977 -1.4014 -0.2464
11122TIP3   OH254856   3.911   5.315   0.294 -0.5892 -0.2179 -0.3415
11122TIP3    H154857   3.870   5.311   0.209  0.8729  1.8552 -1.2428
11122TIP3    H254858   3.929   5.224   0.317 -3.8080 -1.0466 -0.7411
11123TIP3   OH254859   0.577   5.511   0.424  0.1003 -0.1779 -0.1543
11123TIP3    H154860   0.570   5.448   0.352 -3.2625  0.6614 -0.7162
11123TIP3    H254861   0.486   5.526   0.452  1.1095  1.2585  2.7829
11124TIP3   OH254862   5.349   5.140  11.741 -0.1024 -0.0294  0.1189
11124TIP3    H154863   5.352   5.188  11.658 -1.5419 -0.2202 -0.0669
11124TIP3    H254864   5.413   5.070  11.731 -0.2865 -0.0728 -0.8615
11125TIP3   OH254865   1.247   0.663  14.557 -0.3713 -0.3957  0.4210
11125TIP3    H154866   1.278   0.573  14.572 -0.0592 -0.5381 -0.9683
11125TIP3    H254867   1.217   0.663  14.466  0.2845  1.0916  0.1744
11126TIP3   OH254868   6.399   1.411   1.299 -0.3699 -0.2435 -0.0851
11126TIP3    H154869   6.409   1.441   1.209 -0.8046  2.1006  0.5712
11126TIP3    H254870   6.391   1.316   1.292  2.8410 -0.5077 -2.2234
11127TIP3   OH254871   2.239   2.064   3.357 -0.5753  0.2123 -0.0540
11127TIP3    H154872   2.268   2.065   3.266 -2.7074 -1.5468 -0.8456
11127TIP3    H254873   2.270   1.980   3.391 -1.5936 -0.0991  0.1491
11128TIP3   OH254874   4.578   4.770  16.486 -0.1607 -0.8397  0.1561
11128TIP3    H154875   4.670   4.745  16.478 -0.4723 -2.1357  0.3760
11128TIP3    H254876   4.581   4.862  16.514  1.1381 -1.5345  2.6433
11129TIP3   OH254877   6.161   0.435  13.792 -0.3638 -0.0559  0.1183
11129TIP3    H154878   6.243   0.405  13.832 -0.4467 -0.4503 -0.0045
11129TIP3    H254879   6.142   0.518  13.836  0.5546  0.4779 -0.4636
11130TIP3   OH254880   6.583   2.079  14.700  0.3014 -0.1282 -0.0106
11130TIP3    H154881   6.653   2.144  14.695  0.8350 -0.4454  2.0944
11130TIP3    H254882   6.617   2.012  14.759 -1.6573 -0.4430  0.8515
11131TIP3   OH254883   6.022   4.267   1.887  0.4667  0.0680 -1.0778
11131TIP3    H154884   6.070   4.199   1.934 -1.5303 -0.2101  0.7265
11131TIP3    H254885   6.078   4.344   1.893  1.2496 -0.5544 -0.1009
11132TIP3   OH254886   4.616   0.046   2.041 -0.5915  0.0900 -0.7983
11132TIP3    H154887   4.676  -0.021   2.072  1.9542  2.1365 -0.9813
11132TIP3    H254888   4.657   0.081   1.962 -1.9593  1.6521 -0.8766
11133TIP3   OH254889   0.059   0.439  11.624  0.1970 -0.2268  0.8486
11133TIP3    H154890   0.099   0.352  11.619 -0.9519 -0.7401  0.2639
11133TIP3    H254891  -0.032   0.426  11.597 -0.0921  1.0998  1.0898
11134TIP3   OH254892   6.258   2.563  11.681  0.2384 -0.1393  0.1858
11134TIP3    H154893   6.296   2.476  11.671 -1.5668 -0.8686 -0.9429
11134TIP3    H254894   6.313   2.607  11.745  0.7788 -2.3564  1.3210
11135TIP3   OH254895   0.489   3.362  12.748  0.0531 -0.3345  0.1955
11135TIP3    H154896   0.436   3.312  12.687 -0.0508 -0.2807  0.2418
11135TIP3    H254897   0.474   3.454  12.724  0.8462 -0.3501 -0.3970
11136TIP3   OH254898   1.595   0.137   4.335 -0.3802 -0.2351 -0.0227
11136TIP3    H154899   1.518   0.194   4.342 -1.1020 -1.1258 -0.4775
11136TIP3    H254900   1.587   0.077   4.410  0.1094 -0.0514  0.1784
11137TIP3   OH254901   3.415   0.661  15.018 -0.4789  0.1626 -0.3013
11137TIP3    H154902   3.351   0.647  14.948 -0.8660  0.8348 -0.0932
11137TIP3    H254903   3.392   0.597  15.085 -1.2699  0.7253 -0.0130
11138TIP3   OH254904   0.951   3.155   4.892  0.3349 -0.1283  0.0716
11138TIP3    H154905   0.920   3.177   4.804  1.1501 -1.0345 -0.4632
11138TIP3    H254906   1.007   3.078   4.879  0.8621  0.0235  1.3213
11139TIP3   OH254907   1.652   3.048   0.070 -0.1481  0.4987 -0.1486
11139TIP3    H154908   1.557   3.039   0.065 -0.2201  0.0170  1.5569
11139TIP3    H254909   1.669   3.137   0.040 -1.1907  0.7768  0.0406
11140TIP3   OH254910   2.787   2.975   3.024  0.2473  0.7155  0.2508
11140TIP3    H154911   2.760   2.886   3.049 -0.6090  1.1907  1.0943
11140TIP3    H254912   2.875   2.985   3.060  1.1897 -0.4750 -1.5766
11141TIP3   OH254913   2.354   0.880  11.330  0.6160 -0.4336 -0.4272
11141TIP3    H154914   2.370   0.801  11.280 -0.1235 -0.9140  0.0820
11141TIP3    H254915   2.283   0.924  11.284 -0.5272 -1.2111  0.5451
11142TIP3   OH254916   3.727   6.038  12.631 -0.4088 -0.1976 -0.1299
11142TIP3    H154917   3.693   6.026  12.543 -0.5646  0.1050 -0.1106
11142TIP3    H254918   3.667   6.099  12.673 -0.5787 -0.6736  0.3296
11143TIP3   OH254919   3.446   6.367   1.654  0.2782 -0.1927  0.3335
11143TIP3    H154920   3.358   6.369   1.617  0.0516 -0.8658  0.8151
11143TIP3    H254921   3.482   6.282   1.627 -0.0964 -0.9553  2.0796
11144TIP3   OH254922   0.226   1.527   2.767 -0.5071 -0.4186  0.2787
11144TIP3    H154923   0.315   1.517   2.800 -0.5865  1.4881  1.1862
11144TIP3    H254924   0.171   1.483   2.832 -0.2256 -2.4064 -0.7420
11145TIP3   OH254925   1.782   4.400  12.721  0.6831  0.1963 -0.1240
11145TIP3    H154926   1.758   4.413  12.813  2.4361 -0.1491  0.4103
11145TIP3    H254927   1.828   4.316  12.720 -0.8482 -0.6996 -1.6503
11146TIP3   OH254928   6.670   2.946   5.488  0.5416 -0.9495 -0.1234
11146TIP3    H154929   6.686   2.953   5.394  0.8758  0.0187 -0.0018
11146TIP3    H254930   6.748   2.902   5.522  1.3701  0.5137 -0.0372
11147TIP3   OH254931   1.040   2.974  10.646 -0.5406 -0.1718 -0.1048
11147TIP3    H154932   1.126   2.947  10.678  0.0228  0.4125 -1.0668
11147TIP3    H254933   1.053   2.987  10.552 -1.7345 -0.2621 -0.3019
11148TIP3   OH254934   6.103   6.789  16.535 -0.1472  0.3645  0.7009
11148TIP3    H154935   6.166   6.859  16.550  1.1825 -0.4444 -0.7196
11148TIP3    H254936   6.028   6.811  16.589  0.2747  2.8064  0.3760
11149TIP3   OH254937   4.621   4.772  16.814 -0.0095 -0.3769 -0.1664
11149TIP3    H154938   4.525   4.771  16.809 -0.0291 -0.9065  0.1876
11149TIP3    H254939   4.647   4.684  16.785  0.2697 -0.8223  1.3365
11150TIP3   OH254940   0.049   2.776   4.990  0.7945  0.8966  0.1171
11150TIP3    H154941   0.029   2.868   5.010  0.9205  1.0814 -0.5943
11150TIP3    H254942   0.022   2.729   5.069  0.4972  1.5142  0.3958
11151TIP3   OH254943   2.341   6.194   3.374 -0.4900  0.3508 -0.9361
11151TIP3    H154944   2.278   6.128   3.404  0.7780 -0.2834  0.4875
11151TIP3    H254945   2.407   6.145   3.326  0.4584  0.5375  0.1243
11152TIP3   OH254946   2.292   5.919  12.863 -0.2832 -0.8829 -0.7011
11152TIP3    H154947   2.263   5.829  12.845 -0.4966 -1.6443  2.8176
11152TIP3    H254948   2.353   5.911  12.936 -0.0566  1.8393 -0.4877
11153TIP3   OH254949   3.464   0.942  13.905 -0.1809 -0.5361  0.3226
11153TIP3    H154950   3.397   0.954  13.838  0.2735 -0.8112 -0.1836
11153TIP3    H254951   3.542   0.984  13.869 -0.2386  0.3586  1.1874
11154TIP3   OH254952   0.441   5.055   5.508 -0.0519 -0.4502 -0.0579
11154TIP3    H154953   0.471   4.967   5.528  0.6853  0.1656  1.7565
11154TIP3    H254954   0.457   5.105   5.588 -0.8969  1.2228 -0.8746
11155TIP3   OH254955   1.453   6.218   1.888  0.0720  0.3098  0.0508
11155TIP3    H154956   1.493   6.203   1.974 -1.4614 -0.4468  0.6641
11155TIP3    H254957   1.433   6.312   1.887 -2.7585 -0.1757  1.8660
11156TIP3   OH254958   4.105   0.719  15.950 -0.1485  0.6111 -0.5236
11156TIP3    H154959   4.149   0.795  15.910 -2.4774  1.8488 -0.9824
11156TIP3    H254960   4.104   0.738  16.044  0.5945  0.3978 -0.4721
11157TIP3   OH254961   5.720   0.118   2.352 -0.0852 -0.1071 -0.1426
11157TIP3    H154962   5.769   0.163   2.282  0.8090 -3.2992 -1.7603
11157TIP3    H254963   5.629   0.121   2.323 -0.0775  0.7545 -0.1189
11158TIP3   OH254964   6.261   2.391   1.332 -0.6360  0.1922 -0.2504
11158TIP3    H154965   6.274   2.474   1.285 -3.2953  1.0278  0.3222
11158TIP3    H254966   6.228   2.417   1.418  0.5521 -1.4395  0.7502
11159TIP3   OH254967   4.756   3.972   0.444  0.1680  0.2647  0.6277
11159TIP3    H154968   4.809   3.968   0.364 -0.1876  0.5092  0.3750
11159TIP3    H254969   4.783   4.054   0.486  1.1661 -0.4136  1.3397
11160TIP3   OH254970   0.647   0.749  16.129  0.4729 -0.1680 -0.1847
11160TIP3    H154971   0.694   0.682  16.178  1.6145 -0.7232 -1.9505
11160TIP3    H254972   0.609   0.703  16.054 -1.9106  0.5052  0.5074
11161TIP3   OH254973   3.113   3.396  14.199  0.5638  0.6486 -0.1211
11161TIP3    H154974   3.110   3.352  14.284  0.2582 -0.3024 -0.6142
11161TIP3    H254975   3.197   3.370  14.162  0.2268  0.1783 -0.5674
11162TIP3   OH254976   0.510   0.218   3.774  0.8427  0.3440 -0.5543
11162TIP3    H154977   0.568   0.286   3.739  1.1841  0.3472  0.0107
11162TIP3    H254978   0.459   0.261   3.842 -0.9271  0.7359 -2.0311
11163TIP3   OH254979   3.137   3.911   2.956 -0.1965 -0.4061  0.2551
11163TIP3    H154980   3.171   3.972   3.022  1.4975  0.0616 -0.9538
11163TIP3    H254981   3.113   3.967   2.882  1.2800 -1.1446 -0.8375
11164TIP3   OH254982   2.487   5.701  12.994 -0.0742  0.0341 -0.6808
11164TIP3    H154983   2.486   5.621  12.942 -0.1119 -0.9470  0.7626
11164TIP3    H254984   2.426   5.683  13.066 -1.2250  1.9202 -1.0985
11165TIP3   OH254985   6.318   2.580   0.534 -0.4698  0.1012  0.0481
11165TIP3    H154986   6.296   2.645   0.467 -3.3043 -1.3535 -0.5747
11165TIP3    H254987   6.370   2.515   0.487 -0.8366  0.0319 -0.2657
11166TIP3   OH254988   4.248   5.749   2.779  0.3902  0.2621  0.3904
11166TIP3    H154989   4.308   5.772   2.708 -1.0923 -0.1015 -1.0315
11166TIP3    H254990   4.287   5.789   2.856  1.6259  1.3754 -0.7515
11167TIP3   OH254991   4.006   2.410   6.030 -0.2609 -0.2963  0.5892
11167TIP3    H154992   3.923   2.421   5.984 -0.9605  0.8845  2.0480
11167TIP3    H254993   3.982   2.397   6.122  1.1620  1.5900  1.3114
11168TIP3   OH254994   5.408   5.677   3.701  0.2515  0.8115  0.6928
11168TIP3    H154995   5.442   5.688   3.790 -0.6357  4.6173  0.7421
11168TIP3    H254996   5.320   5.715   3.703  0.3562  1.4121 -1.8554
11169TIP3   OH254997   3.420   0.211  10.399 -0.7145  0.1424 -0.3842
11169TIP3    H154998   3.344   0.222  10.343  0.9511  1.7820 -2.5110
11169TIP3    H254999   3.471   0.141  10.358  0.7272  1.6441 -1.3125
11170TIP3   OH255000   4.571   6.163   4.939  0.0291  0.4975 -0.2800
11170TIP3    H155001   4.605   6.245   4.903  1.1470  0.2163  0.1105
11170TIP3    H255002   4.486   6.187   4.977  0.2299  1.4087 -0.3961
11171TIP3   OH255003   0.646   3.931  14.714  0.3682 -0.1334 -0.4744
11171TIP3    H155004   0.705   3.959  14.643  0.3199  0.1370 -0.4080
11171TIP3    H255005   0.699   3.873  14.767 -0.1630 -1.9445 -1.8336
11172TIP3   OH255006   6.126   4.046  14.044 -0.1750 -0.5164  0.0965
11172TIP3    H155007   6.040   4.030  14.085 -0.1899 -0.9097 -0.0814
11172TIP3    H255008   6.153   3.959  14.013  1.0849 -0.7420  1.6952
11173TIP3   OH255009   1.285   4.955  16.191  0.3970  0.1464  0.1436
11173TIP3    H155010   1.191   4.969  16.176 -0.0396 -0.0153  2.3850
11173TIP3    H255011   1.320   4.931  16.104 -1.3446  1.5381 -1.0132
11174TIP3   OH255012   1.134   3.714  11.445 -1.3781  0.1672  0.8900
11174TIP3    H155013   1.097   3.799  11.424 -3.4088 -0.7149  0.6123
11174TIP3    H255014   1.090   3.653  11.386 -0.2404 -1.1311  1.3223
11175TIP3   OH255015   4.510   2.826   1.619 -0.6627  0.0128  0.1109
11175TIP3    H155016   4.445   2.782   1.673 -0.6541 -0.5455 -0.3156
11175TIP3    H255017   4.594   2.799   1.657 -0.6686  0.0519  0.1510
11176TIP3   OH255018   2.642   3.238   0.443 -1.0584  0.4513 -0.0625
11176TIP3    H155019   2.635   3.271   0.533  3.2608 -2.0940  1.5296
11176TIP3    H255020   2.562   3.187   0.431 -1.1310 -0.4021  3.0226
11177TIP3   OH255021   5.987   3.713  16.991 -0.1327 -0.4775  0.6921
11177TIP3    H155022   6.041   3.734  16.914  0.5659  0.2815  1.3635
11177TIP3    H255023   5.944   3.631  16.969 -2.2898  1.1630 -1.7432
11178TIP3   OH255024   5.838   3.953  11.630 -0.3055  0.0155  0.3370
11178TIP3    H155025   5.812   4.004  11.554  0.4332  0.0176  0.0810
11178TIP3    H255026   5.902   3.889  11.596  1.3754  1.1483  1.2229
11179TIP3   OH255027   1.315   1.433  14.073  0.1733 -0.2232 -0.6671
11179TIP3    H155028   1.406   1.404  14.087  0.0017 -0.6513 -0.4338
11179TIP3    H255029   1.323   1.504  14.009  0.7470  0.2177 -0.1268
11180TIP3   OH255030   6.191   4.491   5.077 -0.1840  0.2380  0.0656
11180TIP3    H155031   6.108   4.491   5.031  0.3873  2.3121 -1.0821
11180TIP3    H255032   6.188   4.569   5.133  1.4821  1.1600 -1.0421
11181TIP3   OH255033   6.109   5.777  15.655 -0.3241 -0.1966 -0.5456
11181TIP3    H155034   6.143   5.862  15.684 -1.6081 -0.5154  2.2072
11181TIP3    H255035   6.014   5.783  15.669 -0.4292 -2.0893 -0.1609
11182TIP3   OH255036   1.989   5.789   3.955 -0.5601 -0.1967 -0.4618
11182TIP3    H155037   1.924   5.844   3.999 -0.3326 -0.0490 -0.3028
11182TIP3    H255038   2.053   5.769   4.024 -0.8223 -0.9497 -0.4300
11183TIP3   OH255039   5.520   3.074  10.379  0.5537 -0.1128  0.5639
11183TIP3    H155040   5.428   3.071  10.405  0.6232  1.1330  1.0352
11183TIP3    H255041   5.567   3.041  10.455  0.6507  1.9995  1.4919
11184TIP3   OH255042   2.994   6.056   1.115  0.7958 -0.2255 -0.1327
11184TIP3    H155043   3.034   6.028   1.197  1.9414  1.0550 -0.2170
11184TIP3    H255044   3.043   6.011   1.046  0.4710 -0.5489 -0.1561
11185TIP3   OH255045   6.403   1.489   1.765  0.1363  0.1318 -0.1057
11185TIP3    H155046   6.360   1.403   1.775 -0.3087  0.2465 -0.9784
11185TIP3    H255047   6.408   1.502   1.671  1.7079  0.3342 -0.0119
11186TIP3   OH255048   5.172   3.405   4.631 -0.1894 -0.4439  0.3161
11186TIP3    H155049   5.136   3.391   4.719 -2.1102 -0.4526 -0.4141
11186TIP3    H255050   5.095   3.414   4.575  0.7930  4.1482 -0.7294
11187TIP3   OH255051   3.135   1.290   0.669  0.1615  0.3927  0.3483
11187TIP3    H155052   3.092   1.330   0.746 -0.9809  0.1815 -0.1530
11187TIP3    H255053   3.225   1.273   0.698 -0.0631  0.9156  1.4277
11188TIP3   OH255054   5.424   4.456  16.008 -0.0928  0.1308  0.2560
11188TIP3    H155055   5.442   4.461  16.102  0.0448 -0.3374  0.2613
11188TIP3    H255056   5.328   4.450  16.003 -0.2299  1.8511  0.2697
11189TIP3   OH255057   0.762   3.659   2.507 -0.1125  0.5305  0.7450
11189TIP3    H155058   0.691   3.597   2.524  0.5858 -0.5398 -0.1054
11189TIP3    H255059   0.793   3.684   2.594 -1.4764  0.9605  1.1255
11190TIP3   OH255060   3.498   5.309  12.887  0.1516 -0.2573 -0.2196
11190TIP3    H155061   3.566   5.285  12.824 -0.1429 -3.1656  0.4071
11190TIP3    H255062   3.469   5.396  12.860  4.0334  1.1319 -0.5317
11191TIP3   OH255063   5.671   2.112  11.548 -0.0233 -0.3078 -0.7204
11191TIP3    H155064   5.671   2.059  11.627  1.2017  0.0355 -0.4572
11191TIP3    H255065   5.643   2.199  11.576  1.9172  0.2315 -0.3121
11192TIP3   OH255066   2.085   0.659  13.729  0.0613 -0.3231 -0.6578
11192TIP3    H155067   2.142   0.590  13.695 -1.3916 -1.3779 -1.0504
11192TIP3    H255068   2.127   0.687  13.811  0.9868 -1.2519 -0.8019
11193TIP3   OH255069   4.175   0.634  14.310 -0.7517 -0.0955 -0.2385
11193TIP3    H155070   4.176   0.623  14.405 -0.4706  2.3297  0.0993
11193TIP3    H255071   4.101   0.580  14.281 -2.2610  0.8136  1.6352
11194TIP3   OH255072   0.125   5.320  15.500 -0.6589 -0.5272  0.3852
11194TIP3    H155073   0.186   5.302  15.570 -0.1200 -0.2518 -0.0060
11194TIP3    H255074   0.056   5.255  15.510  0.4084 -1.7598 -0.0130
11195TIP3   OH255075   3.689   3.258  13.618  0.3308  0.2451 -0.0205
11195TIP3    H155076   3.728   3.326  13.673  0.1645  2.6451 -2.5951
11195TIP3    H255077   3.746   3.254  13.542 -0.4121 -1.6033 -0.5305
11196TIP3   OH255078   3.216   4.178   6.004  0.2937 -0.2947  0.0164
11196TIP3    H155079   3.159   4.102   6.009  0.5516 -0.4371  0.9270
11196TIP3    H255080   3.239   4.198   6.095  1.7576 -0.3006 -0.3192
11197TIP3   OH255081   1.403   2.921   4.388 -0.0562  0.2432  0.4788
11197TIP3    H155082   1.481   2.970   4.361  1.0567 -0.4255  2.3194
11197TIP3    H255083   1.391   2.856   4.319  0.0464  1.3517 -0.6224
11198TIP3   OH255084   6.356   1.693   4.740 -0.4855 -0.6366 -0.1093
11198TIP3    H155085   6.336   1.628   4.807 -4.3380  0.7179  0.3609
11198TIP3    H255086   6.419   1.752   4.780 -0.6383 -1.4010  1.2888
11199TIP3   OH255087   5.574   6.783   1.665 -0.1694 -0.1461  0.0374
11199TIP3    H155088   5.506   6.722   1.693  0.0247  0.4357  1.9419
11199TIP3    H255089   5.655   6.749   1.703  0.5302 -0.4310 -1.5985
11200TIP3   OH255090   5.863   5.136   4.989 -1.0849  0.1111  0.5935
11200TIP3    H155091   5.787   5.122   4.933  0.2721  0.5108 -1.4404
11200TIP3    H255092   5.885   5.048   5.021 -2.1367 -0.0594  0.8868
11201TIP3   OH255093   1.697   1.924  14.789 -0.4548 -0.1744  0.3734
11201TIP3    H155094   1.632   1.857  14.811  0.9808 -1.2231  1.5598
11201TIP3    H255095   1.778   1.876  14.772  0.3283  1.1763  0.0494
11202TIP3   OH255096   5.222   3.179   2.709  0.2287  0.0051 -0.0664
11202TIP3    H155097   5.144   3.205   2.660  0.4160  1.1008  0.1819
11202TIP3    H255098   5.245   3.092   2.675 -0.4205  0.1719 -0.9576
11203TIP3   OH255099   5.016   1.018  16.365 -1.0293  0.4013  0.4990
11203TIP3    H155100   5.022   1.035  16.271 -1.2826  0.9815  0.5853
11203TIP3    H255101   5.069   1.087  16.406  0.7176 -0.9726  0.7007
11204TIP3   OH255102   5.497   3.734  13.887  0.4601 -0.0021  0.1908
11204TIP3    H155103   5.413   3.762  13.925 -0.0023 -0.1756 -0.6639
11204TIP3    H255104   5.562   3.789  13.931 -0.3892  2.4476 -1.3586
11205TIP3   OH255105   5.709   1.772   5.926  0.3722  0.0192 -0.0934
11205TIP3    H155106   5.660   1.849   5.896  1.1449  0.5935  0.1057
11205TIP3    H255107   5.643   1.718   5.971 -0.2230  0.4403 -0.4494
11206TIP3   OH255108   4.787   3.099  15.702 -0.6349  0.4748 -0.2712
11206TIP3    H155109   4.772   3.008  15.678  0.6804  0.0172  0.5399
11206TIP3    H255110   4.813   3.142  15.620  0.4972 -0.2886 -0.3253
11207TIP3   OH255111   0.834   2.222   1.845  0.1507 -0.2104  0.3683
11207TIP3    H155112   0.904   2.203   1.783  0.5760  1.1076  0.4323
11207TIP3    H255113   0.780   2.142   1.844  0.2059 -0.2778 -1.5814
11208TIP3   OH255114   4.437   2.920  15.079 -0.3174  0.0006 -0.3529
11208TIP3    H155115   4.440   3.005  15.124  0.2623 -0.3020  0.1845
11208TIP3    H255116   4.385   2.864  15.136 -2.0111  0.3935 -1.4309
11209TIP3   OH255117   0.585   1.544  14.293  0.3418  0.0320  0.4589
11209TIP3    H155118   0.505   1.492  14.293  0.1095  0.3752 -0.1904
11209TIP3    H255119   0.582   1.592  14.376  0.6310 -1.0799  1.1248
11210TIP3   OH255120   6.631   2.759   3.682 -1.0396  0.4098  0.3201
11210TIP3    H155121   6.622   2.725   3.771  0.7900  1.9158  1.1663
11210TIP3    H255122   6.724   2.779   3.673 -0.7484 -1.5752 -2.7190
11211TIP3   OH255123   4.010   3.838   4.525  0.0186 -0.2290 -0.4372
11211TIP3    H155124   4.085   3.799   4.480 -1.0675 -0.5856 -2.0138
11211TIP3    H255125   3.934   3.815   4.471 -1.2975 -0.1976  1.3055
11212TIP3   OH255126   1.464   3.096  12.362 -0.7646 -0.8849 -0.5496
11212TIP3    H155127   1.476   3.187  12.334  0.7889 -1.0246 -0.4057
11212TIP3    H255128   1.414   3.102  12.444 -0.4274 -0.1472 -0.3917
11213TIP3   OH255129   2.555   4.276   3.138  0.0621 -0.2126  0.1181
11213TIP3    H155130   2.525   4.258   3.049  0.6334 -1.3316  0.1334
11213TIP3    H255131   2.595   4.194   3.167 -0.4401  0.0236  1.5477
11214TIP3   OH255132   4.724   2.239  12.413 -0.2705  0.0351 -0.1435
11214TIP3    H155133   4.801   2.192  12.379 -0.7876 -0.9360 -0.0097
11214TIP3    H255134   4.649   2.191  12.377 -0.9016 -1.7089  3.1138
11215TIP3   OH255135   2.382   2.993   2.071 -0.1076 -0.4382  0.1330
11215TIP3    H155136   2.295   2.955   2.060 -0.2650  0.1872 -0.9021
11215TIP3    H255137   2.386   3.064   2.007  1.5676 -1.1650 -0.6405
11216TIP3   OH255138   5.148   4.334  16.722  0.1596  0.6843  0.2148
11216TIP3    H155139   5.067   4.364  16.764 -0.4054 -0.2920 -0.1274
11216TIP3    H255140   5.213   4.335  16.792 -0.3766  0.6044  0.7248
11217TIP3   OH255141   4.674   5.754   3.482 -0.1307 -0.0894 -0.2615
11217TIP3    H155142   4.714   5.736   3.567 -1.5174  0.1823  0.4787
11217TIP3    H255143   4.683   5.849   3.472  0.3875 -0.1709 -0.6202
11218TIP3   OH255144   4.792   5.607  16.850  0.2508 -0.1232  0.3363
11218TIP3    H155145   4.859   5.640  16.911  0.0098 -0.1732  0.6303
11218TIP3    H255146   4.726   5.567  16.907  0.6603 -1.3621 -0.0275
11219TIP3   OH255147   5.735   5.850  13.112 -0.5974  0.5071  0.1413
11219TIP3    H155148   5.641   5.847  13.097 -0.3443 -1.4430 -1.4195
11219TIP3    H255149   5.763   5.933  13.074 -1.6777  1.1471  0.7078
11220TIP3   OH255150   0.569   5.953  16.273 -0.4934 -0.0641  0.0906
11220TIP3    H155151   0.499   5.905  16.228  1.1432 -1.2801 -1.2763
11220TIP3    H255152   0.530   6.037  16.295 -3.1238 -1.5084  1.4896
11221TIP3   OH255153   2.727   5.871  15.376  0.1305 -0.2801  0.3850
11221TIP3    H155154   2.681   5.858  15.459 -0.1283 -0.4799  0.2116
11221TIP3    H255155   2.800   5.810  15.379  0.6615  0.3611  0.8599
11222TIP3   OH255156   5.308   0.068  11.479  0.0186 -0.8506 -0.3637
11222TIP3    H155157   5.323   0.103  11.391 -1.9790  0.5635 -0.2160
11222TIP3    H255158   5.219   0.031  11.475  0.2968 -1.6909  0.7976
11223TIP3   OH255159   5.196   1.410   1.463 -0.1513 -0.5545  0.4641
11223TIP3    H155160   5.158   1.488   1.422  0.7476  0.8582  2.1772
11223TIP3    H255161   5.289   1.414   1.440  0.1841 -0.2584  1.7974
11224TIP3   OH255162   2.745   3.734   1.016 -0.6678 -0.2004 -0.5805
11224TIP3    H155163   2.783   3.822   1.018 -2.1025  0.4393  0.9258
11224TIP3    H255164   2.808   3.682   0.965 -0.6205  2.0488 -3.0603
11225TIP3   OH255165   3.124   2.755  14.333  0.3278 -0.3399  0.1831
11225TIP3    H155166   3.136   2.690  14.264 -0.8552  1.1876 -1.5344
11225TIP3    H255167   3.031   2.776  14.331  0.6259  1.1944  0.9029
11226TIP3   OH255168   4.279   4.394   4.872 -0.0968  0.4994 -0.5488
11226TIP3    H155169   4.363   4.434   4.894 -0.1215  0.5813 -0.6030
11226TIP3    H255170   4.227   4.401   4.952  0.3304 -0.5531 -0.1625
11227TIP3   OH255171   0.413   6.847   5.339 -0.3269 -0.4749  0.4611
11227TIP3    H155172   0.342   6.867   5.401  1.2382  3.0901  1.3520
11227TIP3    H255173   0.485   6.817   5.393  0.2645  0.2849  0.1147
11228TIP3   OH255174   5.722   4.508   2.491  0.0379 -0.4325  0.2510
11228TIP3    H155175   5.648   4.569   2.491 -0.4319 -0.9534  1.8605
11228TIP3    H255176   5.798   4.563   2.512  0.4521  0.3925 -2.9372
11229TIP3   OH255177   3.054   4.372   0.711 -0.0039  0.3730 -0.1495
11229TIP3    H155178   3.139   4.354   0.749 -1.2279 -1.6693  1.8969
11229TIP3    H255179   2.991   4.341   0.776 -2.4212  3.7335 -0.6116
11230TIP3   OH255180   6.375   4.363  16.747 -0.2410 -0.5463  0.6757
11230TIP3    H155181   6.451   4.315  16.716 -0.5827 -2.8152  3.0290
11230TIP3    H255182   6.300   4.310  16.719 -0.6918 -0.8047  2.2744
11231TIP3   OH255183   1.914   6.139  14.554  0.0917 -0.0984  0.0790
11231TIP3    H155184   1.973   6.204  14.517 -1.1154  0.2444 -1.3631
11231TIP3    H255185   1.896   6.170  14.643  1.9007 -0.1294  0.4805
11232TIP3   OH255186   3.030   0.506   4.933  0.6807  0.0152  0.2525
11232TIP3    H155187   2.988   0.588   4.958  2.4250  1.1771 -0.4033
11232TIP3    H255188   2.981   0.476   4.856 -0.2023  0.2226  0.7240
11233TIP3   OH255189   2.986   2.452  13.000 -0.1002  0.9584 -0.0932
11233TIP3    H155190   2.980   2.535  12.954 -0.5445  1.0554  0.1423
11233TIP3    H255191   2.896   2.424  13.013  0.0424  0.4157 -0.2079
11234TIP3   OH255192   2.486   6.689  13.316  0.4394 -0.0444 -0.1921
11234TIP3    H155193   2.460   6.605  13.355  1.7309 -0.0200  0.7804
11234TIP3    H255194   2.456   6.754  13.379  1.0562  0.1028 -0.0445
11235TIP3   OH255195   5.902   5.315   2.382 -0.2445  0.3277  0.3456
11235TIP3    H155196   5.837   5.318   2.452  0.0016  1.5372  0.5490
11235TIP3    H255197   5.875   5.383   2.321  1.2519  1.4487  0.8491
11236TIP3   OH255198   0.146   2.501  12.357 -0.1854  0.4675  0.4045
11236TIP3    H155199   0.197   2.575  12.323  0.9569 -0.9713 -1.2014
11236TIP3    H255200   0.117   2.455  12.279 -0.6058 -0.9599  1.3728
11237TIP3   OH255201   6.058   6.712  15.374 -0.1417  0.2281  0.3027
11237TIP3    H155202   6.051   6.802  15.405 -2.2288 -0.1370  1.0065
11237TIP3    H255203   6.036   6.717  15.281 -2.1369  0.2355  0.7402
11238TIP3   OH255204   4.964   3.670   1.493 -0.1289 -0.1978 -0.1569
11238TIP3    H155205   5.019   3.748   1.501 -1.1941  0.5001  0.6527
11238TIP3    H255206   5.020   3.605   1.450  0.9432  0.8441 -0.3805
11239TIP3   OH255207   3.247   4.674  14.661 -0.7616  0.2627  0.3774
11239TIP3    H155208   3.309   4.630  14.719 -1.8556 -1.5622  0.2464
11239TIP3    H255209   3.280   4.656  14.573 -1.2392 -0.3915  0.3218
11240TIP3   OH255210   2.935   5.472   5.285 -1.0465 -0.5309 -0.6334
11240TIP3    H155211   2.908   5.448   5.374  0.4717 -2.5140 -0.6361
11240TIP3    H255212   2.990   5.549   5.297 -1.2834 -0.4608  0.0966
11241TIP3   OH255213   3.150   0.386   2.604 -0.3881 -0.1196 -0.0366
11241TIP3    H155214   3.109   0.304   2.631 -1.0640  0.2502  0.0743
11241TIP3    H255215   3.089   0.424   2.541  0.2857 -0.0674 -0.6648
11242TIP3   OH255216   3.221   1.039   4.596  0.2048  0.6347  0.4107
11242TIP3    H155217   3.216   1.066   4.688 -0.3162  1.4142  0.1623
11242TIP3    H255218   3.143   1.077   4.555  1.4701  2.0550 -0.7941
11243TIP3   OH255219   4.165   5.493  15.481  0.1563 -0.2494 -0.2933
11243TIP3    H155220   4.087   5.444  15.455  0.3549  0.0921 -1.6094
11243TIP3    H255221   4.238   5.444  15.442  0.2727  1.8009 -2.9762
11244TIP3   OH255222   2.581   6.565  10.338  0.0078 -0.2192 -0.3037
11244TIP3    H155223   2.582   6.494  10.402  1.8332  0.3696  0.3864
11244TIP3    H255224   2.489   6.576  10.315 -0.3761 -2.3877  0.0218
11245TIP3   OH255225   4.997   2.789   5.755 -0.6747  0.5569  0.9812
11245TIP3    H155226   4.960   2.757   5.672  0.1892 -0.6846  1.0363
11245TIP3    H255227   4.950   2.740   5.822 -1.1698  1.3511  1.2290
11246TIP3   OH255228   1.912   1.535   5.609 -0.3910 -0.3940 -0.2513
11246TIP3    H155229   1.879   1.517   5.697  0.2536  0.8141  0.2633
11246TIP3    H255230   1.836   1.526   5.552 -0.3691 -3.6107  0.0328
11247TIP3   OH255231   3.859   0.697  11.433  0.4090 -0.4742  0.2122
11247TIP3    H155232   3.898   0.742  11.508  0.8139 -0.6038  0.0830
11247TIP3    H255233   3.932   0.650  11.393  0.0852 -0.8473  0.0572
11248TIP3   OH255234   5.530   5.886  16.686  0.2381  0.0079  0.0695
11248TIP3    H155235   5.462   5.819  16.686  1.0188 -0.8057  0.4686
11248TIP3    H255236   5.486   5.964  16.653 -0.8561 -0.5246  0.1992
11249TIP3   OH255237   3.584   3.768  13.316  0.3881  0.3465 -0.4803
11249TIP3    H155238   3.495   3.777  13.349  0.3726 -0.2267 -0.3552
11249TIP3    H255239   3.594   3.674  13.300  0.8194  0.4675 -0.9144
11250TIP3   OH255240   3.998   5.756   1.547 -0.2645 -0.0146  0.7140
11250TIP3    H155241   3.974   5.700   1.472  2.0803 -1.1078  0.7090
11250TIP3    H255242   3.982   5.845   1.515 -2.8060 -0.5347  0.2554
11251TIP3   OH255243   2.586   2.959   0.664 -0.3675  0.4113 -0.5954
11251TIP3    H155244   2.544   2.988   0.583 -1.8460 -0.3724 -0.1497
11251TIP3    H255245   2.535   2.882   0.691 -0.2734  0.9762  1.3594
11252TIP3   OH255246   1.714   6.468  15.191  0.2779 -0.2543 -0.3330
11252TIP3    H155247   1.758   6.526  15.253  0.2487  0.1021 -0.6431
11252TIP3    H255248   1.739   6.380  15.219 -0.4282 -0.1319  0.6993
11253TIP3   OH255249   5.512   6.270  13.712  0.4078  0.0176 -0.5269
11253TIP3    H155250   5.543   6.354  13.746 -0.1704 -0.7218  2.0171
11253TIP3    H255251   5.417   6.273  13.724  0.3260 -0.8039 -0.9134
11254TIP3   OH255252   1.179   3.020  11.007  0.0298  0.6754 -0.4446
11254TIP3    H155253   1.257   3.071  11.029  0.3841  0.1647 -0.4891
11254TIP3    H255254   1.181   3.011  10.912  1.5246 -1.7639 -0.2855
11255TIP3   OH255255   4.822   2.645  16.808 -0.1691  0.5492  0.1098
11255TIP3    H155256   4.818   2.595  16.889  3.2770  0.2682  0.2635
11255TIP3    H255257   4.798   2.582  16.739  0.6018 -0.3102  0.6098
11256TIP3   OH255258   6.725   1.297   2.873 -0.1895  0.4460  0.2166
11256TIP3    H155259   6.768   1.379   2.895  1.4183 -0.3873  0.3877
11256TIP3    H255260   6.747   1.238   2.945 -0.9513 -0.2569 -0.1095
11257TIP3   OH255261   5.196   3.317  13.589 -0.5687 -0.5040 -0.4031
11257TIP3    H155262   5.152   3.333  13.506  0.1080 -1.5468 -0.9782
11257TIP3    H255263   5.256   3.391  13.599 -2.0365  0.6725  0.1532
11258TIP3   OH255264   6.543   3.541  15.812 -0.1068 -0.0692 -0.2860
11258TIP3    H155265   6.577   3.590  15.888  2.1125 -0.3212 -1.0330
11258TIP3    H255266   6.515   3.457  15.848  1.6808 -0.4983  0.2002
11259TIP3   OH255267   4.684   3.130  12.475 -0.1751  0.3368 -0.4987
11259TIP3    H155268   4.619   3.173  12.531 -0.5561 -0.5679 -0.2312
11259TIP3    H255269   4.634   3.104  12.398 -0.1710 -0.4838 -0.2324
11260TIP3   OH255270   5.024   4.434  14.095 -0.1131  0.0728 -0.3753
11260TIP3    H155271   5.035   4.383  14.015  0.0240 -1.2266  0.4514
11260TIP3    H255272   5.091   4.502  14.089  0.9688 -0.9847 -0.6169
11261TIP3   OH255273   3.327   5.045  15.736 -0.6112 -1.1419  0.2859
11261TIP3    H155274   3.279   5.125  15.714  0.0183 -0.5191  1.1036
11261TIP3    H255275   3.302   4.983  15.668 -2.8332 -0.9664  0.8708
11262TIP3   OH255276   2.861   3.736   2.525 -0.2851  0.0310  0.2198
11262TIP3    H155277   2.777   3.762   2.486 -0.0482  0.7327  0.1637
11262TIP3    H255278   2.861   3.641   2.520 -1.5833 -0.0536  1.2444
11263TIP3   OH255279   6.306   0.022   3.425 -0.5925  0.6224 -0.6933
11263TIP3    H155280   6.393   0.041   3.461 -0.9645  0.5844  0.2568
11263TIP3    H255281   6.282  -0.062   3.464 -2.3759  2.0944  1.6359
11264TIP3   OH255282   0.175   5.208   2.007 -0.0343  0.2461 -0.4427
11264TIP3    H155283   0.259   5.240   2.040 -1.3594  3.4655  0.1627
11264TIP3    H255284   0.148   5.142   2.072  1.6591 -0.3706 -0.3038
11265TIP3   OH255285   4.973   6.382  11.634 -0.1701 -0.2824 -0.2290
11265TIP3    H155286   4.879   6.402  11.639 -0.0935  0.5362 -1.4507
11265TIP3    H255287   4.982   6.330  11.554  0.4059 -0.5010 -0.0279
11266TIP3   OH255288   0.363   2.506  14.610  0.1274  0.5530 -0.0672
11266TIP3    H155289   0.298   2.529  14.544 -2.1296  0.6463  2.0384
11266TIP3    H255290   0.313   2.464  14.680  2.2846  0.8735  1.8126
11267TIP3   OH255291   1.627   0.741  10.000 -0.3794 -0.0660 -0.0158
11267TIP3    H155292   1.580   0.793   9.935  1.4150  0.9122 -0.5998
11267TIP3    H255293   1.631   0.653   9.963  1.7092  0.7349 -1.9303
11268TIP3   OH255294   4.017   4.971  14.573  0.1116  0.2229 -0.1750
11268TIP3    H155295   4.069   5.044  14.539  0.1025  0.9761  1.3089
11268TIP3    H255296   4.070   4.893  14.555  0.2512  0.6110 -1.5429
11269TIP3   OH255297   4.354   3.171  11.018  0.3421 -0.3130 -0.1362
11269TIP3    H155298   4.268   3.142  10.987  0.9631 -1.4008 -0.9338
11269TIP3    H255299   4.401   3.195  10.938  0.5005  1.1414  0.3604
11270TIP3   OH255300   4.496   6.067  15.155 -0.0299 -0.4851 -0.4481
11270TIP3    H155301   4.474   5.974  15.164  3.4980 -1.3111  1.1321
11270TIP3    H255302   4.530   6.075  15.066  1.4902 -1.2401  0.0227
11271TIP3   OH255303   0.842   1.133   2.596  0.6887 -0.0094 -0.2582
11271TIP3    H155304   0.756   1.175   2.596  0.8290  0.2899 -0.8961
11271TIP3    H255305   0.823   1.039   2.594  0.3786  0.0460  0.0240
11272TIP3   OH255306   1.478   2.721   4.589  0.0758 -0.5553 -0.1874
11272TIP3    H155307   1.446   2.774   4.516 -0.1893  2.0815  1.6916
11272TIP3    H255308   1.573   2.733   4.588 -0.1068  1.9087  1.4480
11273TIP3   OH255309   1.794   4.281   3.046  0.5908 -0.2714  0.1822
11273TIP3    H155310   1.886   4.273   3.022  0.8105  1.5805  0.3021
11273TIP3    H255311   1.760   4.351   2.990 -0.5929 -0.4843  0.5943
11274TIP3   OH255312   6.023   0.777  16.769  0.2384 -0.2346  0.6133
11274TIP3    H155313   6.048   0.795  16.859 -2.2989  0.1142  1.3476
11274TIP3    H255314   5.930   0.799  16.766  0.0571 -1.0455 -1.8792
11275TIP3   OH255315   2.831   4.159  12.278 -0.0220  0.1008 -0.1630
11275TIP3    H155316   2.794   4.148  12.191 -0.6030  2.5820 -0.3239
11275TIP3    H255317   2.922   4.184  12.263 -0.6097  2.4417 -0.2406
11276TIP3   OH255318   3.006   1.287  12.323  0.5081 -0.3743 -0.7581
11276TIP3    H155319   2.910   1.292  12.324  0.5706  1.4305 -0.2113
11276TIP3    H255320   3.028   1.279  12.230 -0.1435  0.7831 -1.0347
11277TIP3   OH255321   2.730   6.714   1.340  0.1580 -0.4941 -0.2606
11277TIP3    H155322   2.696   6.700   1.251  0.2089  0.6417 -0.4652
11277TIP3    H255323   2.802   6.776   1.329 -0.0549 -0.0768  0.6189
11278TIP3   OH255324   2.701   5.584  14.255  0.0946  0.4227 -0.8539
11278TIP3    H155325   2.736   5.584  14.166 -1.4229 -0.0817 -1.4998
11278TIP3    H255326   2.643   5.508  14.257  0.0931  0.4434  0.5719
11279TIP3   OH255327   2.572   3.301   3.574 -0.0352 -0.4882 -0.1526
11279TIP3    H155328   2.570   3.259   3.488 -2.0623  0.8728 -0.8370
11279TIP3    H255329   2.660   3.282   3.607  0.8335 -1.0080 -2.5374
11280TIP3   OH255330   4.010   2.514   1.519  0.0366  0.0729  0.5605
11280TIP3    H155331   4.093   2.466   1.519  0.5943  1.0077  0.5074
11280TIP3    H255332   3.974   2.500   1.606  0.3908 -0.1071  0.6819
11281TIP3   OH255333   2.097   0.129   1.373  1.0178  0.0483 -0.7868
11281TIP3    H155334   2.145   0.201   1.413  0.9832 -0.3860  0.0748
11281TIP3    H255335   2.009   0.164   1.357  0.8902  0.0897 -0.0239
11282TIP3   OH255336   1.899   2.276   0.504  0.4035  0.5809  0.0877
11282TIP3    H155337   1.819   2.251   0.550  0.5687 -0.2525 -0.0658
11282TIP3    H255338   1.900   2.222   0.425  0.4315  1.5712 -0.5965
11283TIP3   OH255339   3.278   3.785   2.417 -0.4166  0.0291 -0.8819
11283TIP3    H155340   3.254   3.875   2.442  0.1039 -0.0804  0.0541
11283TIP3    H255341   3.372   3.789   2.402  0.4453 -1.0977  2.9587
11284TIP3   OH255342   0.201   2.998   5.516 -0.2034  0.2628  0.3006
11284TIP3    H155343   0.215   2.974   5.608  3.6806  2.4456  0.4914
11284TIP3    H255344   0.200   3.094   5.516 -1.0086  0.3198 -1.8885
11285TIP3   OH255345   3.569   5.966   5.703  0.6639  0.6644  0.0466
11285TIP3    H155346   3.523   5.885   5.680  1.0213  0.4923 -0.0704
11285TIP3    H255347   3.549   5.980   5.795 -1.7443  1.9735 -0.5700
11286TIP3   OH255348   4.371   4.425   0.160  0.0851  0.0328  0.5405
11286TIP3    H155349   4.310   4.482   0.208 -2.0369 -1.1268 -0.6627
11286TIP3    H255350   4.366   4.341   0.205 -0.2704 -0.4492 -0.3738
11287TIP3   OH255351   1.237   6.144   1.250 -0.7731 -0.7408 -0.2430
11287TIP3    H155352   1.192   6.213   1.201  0.3677  0.0232 -0.2518
11287TIP3    H255353   1.297   6.105   1.186  0.2775 -0.1514  0.3644
11288TIP3   OH255354   4.684   2.215   5.558 -0.3117  0.4555  0.2992
11288TIP3    H155355   4.680   2.184   5.649 -0.3350  1.0700  0.5097
11288TIP3    H255356   4.737   2.149   5.513 -1.1455 -0.3883  0.5333
11289TIP3   OH255357   3.306   5.847  13.598  0.3401 -0.4313  0.2017
11289TIP3    H155358   3.394   5.818  13.621 -0.3366 -0.9544  2.4317
11289TIP3    H255359   3.278   5.786  13.530  1.1381 -1.2610  0.5930
11290TIP3   OH255360   2.548   1.858   3.889  0.7108 -0.0375 -0.3814
11290TIP3    H155361   2.462   1.884   3.857 -0.0027  1.2082  2.2568
11290TIP3    H255362   2.579   1.933   3.939  2.1864 -1.3764  0.8344
11291TIP3   OH255363   6.501   2.816  11.312  0.3535  0.2184 -0.0006
11291TIP3    H155364   6.495   2.912  11.308  0.2518  0.2347  0.5665
11291TIP3    H255365   6.503   2.789  11.220 -2.0204  0.6171 -0.2359
11292TIP3   OH255366   1.580   4.313   1.285  0.4206 -0.2298  0.7942
11292TIP3    H155367   1.656   4.305   1.342  0.2051 -0.4944  1.0446
11292TIP3    H255368   1.536   4.228   1.291 -0.6981  0.3826  1.7839
11293TIP3   OH255369   5.124   4.595   0.452 -0.1702 -0.6138 -0.3236
11293TIP3    H155370   5.100   4.571   0.363  0.7853  0.3191 -0.8519
11293TIP3    H255371   5.067   4.669   0.474 -0.5112 -0.9388 -0.0842
11294TIP3   OH255372   0.405   1.849   3.491  0.3505  0.1190 -0.1218
11294TIP3    H155373   0.462   1.785   3.448 -0.7388 -0.4046 -0.8481
11294TIP3    H255374   0.465   1.911   3.532  1.4466 -0.2547 -1.0891
11295TIP3   OH255375   6.004   5.416  15.595 -0.3066 -0.4003 -0.6991
11295TIP3    H155376   5.979   5.338  15.546 -0.6691  0.2381 -1.5705
11295TIP3    H255377   5.947   5.485  15.560 -0.2877  0.1694  0.3436
11296TIP3   OH255378   2.444   3.071  12.207  0.4556 -0.0828  0.3326
11296TIP3    H155379   2.469   2.988  12.166 -0.6950  0.3983 -1.4318
11296TIP3    H255380   2.406   3.046  12.291  1.3696 -1.2151  0.4347
11297TIP3   OH255381   0.513   6.111  14.706 -0.1054  0.5580  0.2121
11297TIP3    H155382   0.536   6.108  14.614 -0.1247  0.4340  0.2110
11297TIP3    H255383   0.568   6.180  14.742  0.9164 -0.3111  0.3827
11298TIP3   OH255384   0.777   5.617  14.024  0.9549  0.6506 -0.4774
11298TIP3    H155385   0.851   5.575  13.980  0.8410 -0.4093  0.2884
11298TIP3    H255386   0.774   5.575  14.110 -0.9544  0.1642 -0.7276
11299TIP3   OH255387   2.408   2.902   0.059 -0.0037  0.4856 -0.5532
11299TIP3    H155388   2.365   2.929   0.140  0.9982  1.2549 -0.2514
11299TIP3    H255389   2.340   2.913  -0.009 -0.6332  0.5151  0.0724
11300TIP3   OH255390   1.796   4.134   5.739 -0.0779  0.5357 -0.0813
11300TIP3    H155391   1.873   4.172   5.698 -0.3165 -1.1354 -2.2309
11300TIP3    H255392   1.738   4.111   5.666 -1.9647  0.3450  1.3798
11301TIP3   OH255393   2.981   4.000   5.129  0.0664 -0.0719  0.2789
11301TIP3    H155394   2.996   3.913   5.093 -1.0120 -1.2151  2.4160
11301TIP3    H255395   3.063   4.047   5.112  1.5261 -2.2141  0.9710
11302TIP3   OH255396   6.409   4.222  15.571  0.0955  0.0234 -0.2462
11302TIP3    H155397   6.428   4.137  15.532  0.8488  0.3792 -0.6853
11302TIP3    H255398   6.485   4.276  15.548  0.1391  0.4971  0.9548
11303TIP3   OH255399   2.639   4.990   5.530 -0.5234  0.2091  0.4441
11303TIP3    H155400   2.702   4.984   5.458  0.9239  0.3054  1.6512
11303TIP3    H255401   2.564   5.036   5.492 -2.1913 -4.2504 -2.5492
11304TIP3   OH255402   5.765   1.719  11.948 -0.3566  0.1167  0.0753
11304TIP3    H155403   5.800   1.794  11.995  1.0029  0.3369 -1.2097
11304TIP3    H255404   5.741   1.656  12.016 -1.0491  1.4858  1.1510
11305TIP3   OH255405   2.024   6.284   1.225  0.1249  0.6559 -0.0008
11305TIP3    H155406   1.969   6.249   1.156 -0.6376 -1.6370  1.6520
11305TIP3    H255407   1.970   6.352   1.266  0.1499  1.2393 -0.8982
11306TIP3   OH255408   0.207   4.011  12.998  0.1212  0.0956 -0.3626
11306TIP3    H155409   0.143   4.081  13.005 -0.7502 -0.6767 -0.3198
11306TIP3    H255410   0.240   4.017  12.909  0.4309  0.8720 -0.1995
11307TIP3   OH255411   3.885   1.390  12.239 -0.2347  0.3091 -0.0601
11307TIP3    H155412   3.897   1.399  12.145  0.5854  0.7896  0.0786
11307TIP3    H255413   3.824   1.317  12.249  0.4637 -0.4154 -0.9247
11308TIP3   OH255414   1.856   2.763   2.589  0.4563  0.6205  0.2013
11308TIP3    H155415   1.857   2.783   2.682 -0.8306  0.5249  0.2533
11308TIP3    H255416   1.856   2.848   2.546  1.5586  0.6660  0.2568
11309TIP3   OH255417   6.536   1.479  11.689 -0.1409  0.3166 -0.1787
11309TIP3    H155418   6.460   1.506  11.741  1.0137  0.3147  1.5930
11309TIP3    H255419   6.538   1.383  11.697  0.5481  0.3816  0.5558
11310TIP3   OH255420   1.085   6.623   5.827 -0.8533 -0.6629  0.0306
11310TIP3    H155421   1.163   6.629   5.881 -0.3188 -1.1553 -0.6790
11310TIP3    H255422   1.117   6.614   5.738 -1.6128  3.8126 -0.9580
11311TIP3   OH255423   2.363   3.213  11.989 -0.0160  0.0764 -0.3996
11311TIP3    H155424   2.448   3.255  12.005 -0.5531  1.4134 -0.9187
11311TIP3    H255425   2.353   3.152  12.062  1.7571 -0.7229 -0.7553
11312TIP3   OH255426   4.394   1.494   4.236  0.2854  0.5107  0.4625
11312TIP3    H155427   4.303   1.495   4.266  0.3218 -2.0440  0.8820
11312TIP3    H255428   4.444   1.532   4.309 -0.2303 -0.2029  1.1990
11313TIP3   OH255429   3.243   0.183  11.967  0.5246  1.0225  0.5346
11313TIP3    H155430   3.257   0.248  11.899  1.4318 -1.9068 -2.3372
11313TIP3    H255431   3.331   0.159  11.995  0.3361 -0.4288 -0.0372
11314TIP3   OH255432   0.838   2.020   3.745  0.1584 -0.2702 -0.0411
11314TIP3    H155433   0.843   1.927   3.763 -0.0208 -0.2656  0.0340
11314TIP3    H255434   0.750   2.033   3.710  0.7744 -0.4153 -1.7157
11315TIP3   OH255435   6.322   2.415  14.757 -0.5950  0.1782 -0.2317
11315TIP3    H155436   6.240   2.455  14.784  0.2319  0.5054  2.0605
11315TIP3    H255437   6.389   2.482  14.773  0.2472 -0.4768 -0.8963
11316TIP3   OH255438   3.566   5.276  13.361 -0.2919 -0.3368 -0.0423
11316TIP3    H155439   3.581   5.370  13.351  0.3833 -0.3327  0.8175
11316TIP3    H255440   3.536   5.266  13.451 -2.0158 -0.7813 -0.6305
11317TIP3   OH255441   0.706   4.725  12.909 -0.3607  0.2465 -0.2498
11317TIP3    H155442   0.771   4.762  12.850  0.7929 -1.3183 -0.0223
11317TIP3    H255443   0.745   4.643  12.940 -2.5816 -0.9222 -0.3578
11318TIP3   OH255444   2.972   2.508  12.025 -0.0784 -0.2503  0.0261
11318TIP3    H155445   3.053   2.552  12.000  0.8755 -1.1939  1.3007
11318TIP3    H255446   2.997   2.416  12.034 -1.6632 -0.8249 -1.0622
11319TIP3   OH255447   5.238   5.058   2.231  0.4400  0.0754 -0.1966
11319TIP3    H155448   5.172   5.041   2.299  0.4049  2.5974  0.5027
11319TIP3    H255449   5.282   5.138   2.260  2.7001 -0.6043 -1.5184
11320TIP3   OH255450   1.199   1.350   6.455  0.6551 -0.3180  0.2426
11320TIP3    H155451   1.107   1.361   6.430  0.4559  1.2947  1.4433
11320TIP3    H255452   1.242   1.431   6.426  1.1156  0.0896  1.9156
11321TIP3   OH255453   0.968   5.818   4.461  0.0497 -0.8006 -0.2469
11321TIP3    H155454   0.904   5.862   4.406  0.9801 -0.6989 -1.2741
11321TIP3    H255455   1.024   5.887   4.493 -0.3402 -0.8894  0.6639
11322TIP3   OH255456   1.815   5.339   3.250 -0.3113 -0.2900  0.3024
11322TIP3    H155457   1.790   5.328   3.342 -3.5335  0.7004 -0.3362
11322TIP3    H255458   1.834   5.250   3.220 -2.4586 -1.1084  1.1553
11323TIP3   OH255459   0.496   5.991   4.145  0.4077  0.5319  0.4056
11323TIP3    H155460   0.477   6.083   4.163 -0.8967  0.7911 -1.9110
11323TIP3    H255461   0.448   5.943   4.212  1.9896  1.5005  2.3346
11324TIP3   OH255462   5.730   0.892   2.522  0.1678 -0.2858 -0.1829
11324TIP3    H155463   5.771   0.952   2.584 -1.2216 -0.5131  1.0112
11324TIP3    H255464   5.642   0.927   2.510 -0.4296 -1.6764 -0.0314
11325TIP3   OH255465   1.000   1.665   0.406 -0.1712 -0.1770  0.3417
11325TIP3    H155466   0.934   1.629   0.347  1.4845 -0.9527 -1.1722
11325TIP3    H255467   1.079   1.615   0.385  1.8152  2.9922 -0.4907
11326TIP3   OH255468   0.515   6.431   2.242  0.4954 -0.2694 -0.0147
11326TIP3    H155469   0.559   6.476   2.314  2.1684  0.4233 -1.4059
11326TIP3    H255470   0.523   6.338   2.265 -1.6733 -0.0124  2.1322
11327TIP3   OH255471   3.779   6.166  13.312  0.5533  0.1794  0.4538
11327TIP3    H155472   3.737   6.176  13.227  2.0039  1.1909 -0.1862
11327TIP3    H255473   3.756   6.077  13.340  1.5191 -0.8675 -1.8349
11328TIP3   OH255474   5.155   4.322  11.961  0.2361 -0.5487 -0.8371
11328TIP3    H155475   5.173   4.380  12.035  2.2190 -0.4626 -1.3368
11328TIP3    H255476   5.078   4.272  11.988 -0.0288  0.5814  0.6212
11329TIP3   OH255477   4.558   0.968  16.539  0.2605 -0.4159  0.3422
11329TIP3    H155478   4.563   0.882  16.582  0.3902 -1.1602 -1.1220
11329TIP3    H255479   4.627   0.966  16.473 -1.3659 -0.1756 -1.4260
11330TIP3   OH255480   5.993   1.026   5.533  0.1935 -0.1068  0.3704
11330TIP3    H155481   6.050   0.949   5.532  0.6080  0.1818 -1.3151
11330TIP3    H255482   5.907   0.993   5.557 -0.1405 -1.5389 -2.3527
11331TIP3   OH255483   5.925   6.279  12.768  0.4598  0.0811 -0.0140
11331TIP3    H155484   5.935   6.216  12.840 -1.5189  0.4564  0.6342
11331TIP3    H255485   6.006   6.270  12.718  0.7384 -2.1530  0.7099
11332TIP3   OH255486   2.293   1.238  16.884 -0.4223  0.0615  0.3284
11332TIP3    H155487   2.339   1.162  16.849 -0.1292  1.1027 -1.6977
11332TIP3    H255488   2.212   1.242  16.833 -0.2405  1.3421  0.1195
11333TIP3   OH255489   1.260   0.847   6.299  0.0155  0.0668 -0.9955
11333TIP3    H155490   1.276   0.924   6.352  0.2639  0.9047 -2.2444
11333TIP3    H255491   1.334   0.844   6.238 -1.0214  0.0258 -2.2921
11334TIP3   OH255492   1.906   3.290  15.762 -0.6262  0.4856  0.3106
11334TIP3    H155493   1.856   3.211  15.740 -0.8875  0.1056  2.0896
11334TIP3    H255494   1.963   3.304  15.687 -1.1837 -0.8989 -0.4109
11335TIP3   OH255495   2.435   2.306  14.143  0.5286 -0.1518  0.1474
11335TIP3    H155496   2.363   2.285  14.085  0.2043  0.0130  0.4895
11335TIP3    H255497   2.508   2.327  14.085  0.2694 -0.2029 -0.1952
11336TIP3   OH255498   3.735   4.529  14.011  0.1758  0.5016  0.5400
11336TIP3    H155499   3.700   4.587  13.944 -3.1067 -1.7957  0.0147
11336TIP3    H255500   3.763   4.451  13.963  1.0614  0.1956  1.5254
11337TIP3   OH255501   0.348   5.719   2.306  0.4561 -0.1563  0.5412
11337TIP3    H155502   0.345   5.716   2.211  0.4462  2.6874  0.3591
11337TIP3    H255503   0.413   5.653   2.331  0.4929 -0.9104 -1.4107
11338TIP3   OH255504   4.680   0.721   5.013  0.2339 -0.0379 -0.0811
11338TIP3    H155505   4.684   0.774   4.934 -1.5572 -0.1529 -0.2852
11338TIP3    H255506   4.609   0.759   5.065  1.0872 -0.2288  1.2833
11339TIP3   OH255507   3.781   4.273  17.021 -0.0412  0.2460 -0.1440
11339TIP3    H155508   3.852   4.276  17.085 -1.8266  0.6697  1.9427
11339TIP3    H255509   3.711   4.325  17.060 -1.3877  0.2003 -2.3055
11340TIP3   OH255510   1.046   0.773   6.092 -0.1241  0.5475 -0.1070
11340TIP3    H155511   1.057   0.780   6.187  0.1092  0.6905 -0.1440
11340TIP3    H255512   1.107   0.704   6.066 -0.6203  0.0916 -0.0747
11341TIP3   OH255513   4.530   1.957   2.094  0.2714  0.2245  0.1854
11341TIP3    H155514   4.538   1.862   2.089  1.9905  0.3866 -2.3161
11341TIP3    H255515   4.436   1.973   2.086 -0.1627 -1.2480  1.7497
11342TIP3   OH255516   4.063   1.337   3.538 -0.0075  0.2539  0.1678
11342TIP3    H155517   4.139   1.358   3.591 -1.1965  0.3228  1.9231
11342TIP3    H255518   4.014   1.273   3.590  0.0709 -1.7312 -2.0192
11343TIP3   OH255519   2.282   5.850  12.428  0.3764 -0.1198 -0.7459
11343TIP3    H155520   2.291   5.758  12.403 -0.0157 -0.5190  0.5125
11343TIP3    H255521   2.224   5.849  12.504  0.6051  1.1491 -0.5313
11344TIP3   OH255522   0.047   2.758  11.915 -0.1787 -0.2930  0.4803
11344TIP3    H155523   0.054   2.763  11.819 -1.8223  2.8460  0.4203
11344TIP3    H255524  -0.042   2.728  11.931  0.3132 -1.4805  1.0654
11345TIP3   OH255525   3.687   3.792  15.182  0.0585 -0.0792  0.1185
11345TIP3    H155526   3.718   3.876  15.216 -0.5934  0.3093 -0.2358
11345TIP3    H255527   3.606   3.812  15.136  0.6952 -0.6451 -1.3344
11346TIP3   OH255528   4.545   4.950   1.612  0.5324 -0.9856  0.2423
11346TIP3    H155529   4.512   4.979   1.697 -1.2302  1.4000 -1.1442
11346TIP3    H255530   4.640   4.948   1.624  0.2894 -2.4409  2.7180
11347TIP3   OH255531   1.320   3.925  16.597 -0.3390  0.5323  0.7116
11347TIP3    H155532   1.261   3.907  16.523  0.5534  0.6324 -0.0474
11347TIP3    H255533   1.355   4.012  16.578  1.8635 -0.4820 -0.1243
11348TIP3   OH255534   2.335   6.750  15.189 -0.2414  0.1594 -0.3517
11348TIP3    H155535   2.380   6.674  15.151  0.1879  0.1335  0.1915
11348TIP3    H255536   2.344   6.818  15.123  0.7265  0.1935 -0.1904
11349TIP3   OH255537   1.681   2.930   3.412 -0.5935  0.2228  0.2559
11349TIP3    H155538   1.652   2.915   3.501  2.6948  1.9805  1.8198
11349TIP3    H255539   1.739   3.006   3.418  2.8248 -1.8282 -2.6457
11350TIP3   OH255540   1.440   0.973   5.378 -0.3641 -0.1597 -0.1674
11350TIP3    H155541   1.435   0.895   5.434 -0.1791 -0.7298 -0.9229
11350TIP3    H255542   1.386   1.038   5.423  1.7867  0.2542  1.9748
11351TIP3   OH255543   1.025   6.588   0.591  0.3006 -0.3581 -0.6942
11351TIP3    H155544   0.951   6.538   0.555  0.9820 -0.5526 -1.8978
11351TIP3    H255545   1.047   6.651   0.522  0.8185  0.1611 -0.0640
11352TIP3   OH255546   6.199   0.696  13.478 -0.1665 -0.1973  0.0214
11352TIP3    H155547   6.218   0.644  13.400  1.2185 -0.8157  0.7407
11352TIP3    H255548   6.121   0.656  13.515 -0.3374 -0.4357 -0.5820
11353TIP3   OH255549   1.871   6.110  15.561 -0.0002  0.2801 -0.3267
11353TIP3    H155550   1.921   6.050  15.505  2.3323  0.6122  1.2439
11353TIP3    H255551   1.805   6.054  15.602  0.5186 -0.7002 -0.7813
11354TIP3   OH255552   2.948   3.570   4.798  0.4569 -0.0635  0.8397
11354TIP3    H155553   3.040   3.587   4.775  0.3082  0.2756  0.4934
11354TIP3    H255554   2.950   3.483   4.838  0.8036 -0.4435  0.0319
11355TIP3   OH255555   5.482   1.611   2.764 -0.0338  0.4444  0.3491
11355TIP3    H155556   5.397   1.569   2.752 -0.5531  1.2095  1.1720
11355TIP3    H255557   5.531   1.589   2.685 -0.7727 -0.5226  0.1348
11356TIP3   OH255558   3.784   2.174  12.714  0.2542 -0.0443  0.1853
11356TIP3    H155559   3.778   2.141  12.624  0.0146  2.2222 -0.7107
11356TIP3    H255560   3.876   2.197  12.725  0.0872  0.6920  0.1028
11357TIP3   OH255561   5.333   0.589  15.541 -0.1607 -0.2526  0.3157
11357TIP3    H155562   5.272   0.661  15.559 -0.5985  0.3387 -2.8590
11357TIP3    H255563   5.339   0.541  15.623 -1.3012  2.3335  2.0471
11358TIP3   OH255564   1.508   0.026  13.405 -0.2384 -0.4654 -0.5203
11358TIP3    H155565   1.460   0.108  13.421  0.6012 -0.0908  0.1163
11358TIP3    H255566   1.513  -0.016  13.490  2.7146  0.6978 -0.0281
11359TIP3   OH255567   4.486   6.691   2.595 -0.3321 -0.3457  0.0076
11359TIP3    H155568   4.434   6.701   2.675  2.5538 -0.5211  2.0887
11359TIP3    H255569   4.511   6.780   2.571  1.1060 -0.4457  1.0281
11360TIP3   OH255570   3.961   1.767  11.807 -0.5936 -0.8774  0.5996
11360TIP3    H155571   4.037   1.802  11.760 -0.6820 -0.4287  0.7908
11360TIP3    H255572   3.891   1.829  11.789 -0.5466 -0.5187  1.5864
11361TIP3   OH255573   4.438   1.241  14.976 -0.1117 -0.2447 -0.0005
11361TIP3    H155574   4.368   1.240  14.911 -0.2847 -0.9281  0.1849
11361TIP3    H255575   4.515   1.269  14.927 -0.5049  0.5024 -0.2078
11362TIP3   OH255576   1.343   0.335  16.317 -0.6093  0.1219 -0.5306
11362TIP3    H155577   1.422   0.290  16.346 -1.5304 -0.0498  1.9986
11362TIP3    H255578   1.282   0.265  16.295 -0.8375  0.1936 -0.1377
11363TIP3   OH255579   4.746   0.620   0.814  0.1088  0.0275 -0.0123
11363TIP3    H155580   4.770   0.528   0.822  1.5284  0.5360  2.4317
11363TIP3    H255581   4.681   0.621   0.743 -0.9817 -3.0192  0.7810
11364TIP3   OH255582   1.304   2.200   4.816 -0.4532 -0.0948  0.4346
11364TIP3    H155583   1.310   2.192   4.721 -0.2519 -0.9051  0.5058
11364TIP3    H255584   1.327   2.113   4.849  1.2322  0.6225  1.2889
11365TIP3   OH255585   5.828   2.351  14.616 -0.2568  0.2342 -0.5848
11365TIP3    H155586   5.854   2.335  14.525  2.5805 -1.6366  0.4400
11365TIP3    H255587   5.895   2.307  14.669 -3.3493 -1.3492  2.4346
11366TIP3   OH255588   5.129   4.266   3.919  0.2851  0.0236 -0.3478
11366TIP3    H155589   5.054   4.246   3.863 -0.3795  0.5861  0.3252
11366TIP3    H255590   5.166   4.180   3.940  1.0435 -0.1683 -2.2857
11367TIP3   OH255591   5.891   3.443   5.930  0.5620  0.0899  0.1190
11367TIP3    H155592   5.862   3.434   5.839  1.4312 -0.4245 -0.1238
11367TIP3    H255593   5.876   3.357   5.968  1.0303  0.0408  0.2035
11368TIP3   OH255594   3.122   4.780   5.669  0.2904  0.2515 -0.3808
11368TIP3    H155595   3.114   4.687   5.648  2.4383 -0.1986  0.5598
11368TIP3    H255596   3.186   4.783   5.740  1.5127  2.5567 -1.4663
11369TIP3   OH255597   0.059   1.694   4.512 -0.2331 -0.3789  0.6557
11369TIP3    H155598   0.145   1.726   4.541 -1.0210  3.7796 -0.8992
11369TIP3    H255599   0.078   1.639   4.436  1.1026 -1.2136  1.5465
11370TIP3   OH255600   0.570   0.374   0.153  0.7089 -0.4227  0.2762
11370TIP3    H155601   0.605   0.434   0.218  1.9003 -1.4071  0.5786
11370TIP3    H255602   0.634   0.375   0.082 -0.4150  0.4002 -0.7820
11371TIP3   OH255603   4.717   0.052   0.087  0.1567 -0.3192  0.0610
11371TIP3    H155604   4.759   0.108   0.152  0.2357  0.7423 -0.8786
11371TIP3    H255605   4.697   0.111   0.014 -0.6783 -1.3148 -0.5383
11372TIP3   OH255606   5.689   3.098   6.265  0.2507 -0.1348  0.0226
11372TIP3    H155607   5.666   3.074   6.355 -0.4954  2.6119  0.6493
11372TIP3    H255608   5.780   3.126   6.270 -0.0798  0.9583  0.1605
11373TIP3   OH255609   6.153   5.938  11.896 -0.4056  0.4444 -0.2516
11373TIP3    H155610   6.233   5.964  11.850 -0.5759  2.0349  0.2861
11373TIP3    H255611   6.144   6.003  11.966 -2.4318  0.5858 -0.5946
11374TIP3   OH255612   0.685   1.192   2.158 -0.3590 -0.1035 -0.3633
11374TIP3    H155613   0.741   1.174   2.233  1.0428 -1.0559 -1.5783
11374TIP3    H255614   0.734   1.159   2.083 -1.6770  0.8721 -1.7213
11375TIP3   OH255615   3.395   6.023   1.207  0.8363 -0.0646 -0.4137
11375TIP3    H155616   3.397   6.005   1.301 -0.6811 -0.0731 -0.3608
11375TIP3    H255617   3.431   5.944   1.166 -1.8082 -1.6021  0.0137
11376TIP3   OH255618   5.767   0.466   5.818 -0.0907  0.2388 -0.3166
11376TIP3    H155619   5.816   0.385   5.832  0.2462  0.6598  1.1118
11376TIP3    H255620   5.810   0.507   5.742  0.3246 -0.4727 -0.4735
11377TIP3   OH255621   6.535   3.390   1.048  0.1728  0.0464  0.0555
11377TIP3    H155622   6.611   3.333   1.033  1.4520  1.4039  1.0864
11377TIP3    H255623   6.516   3.379   1.141 -2.5528 -2.1695 -0.6437
11378TIP3   OH255624   6.647   3.700  14.688 -0.7021 -0.2293 -0.3102
11378TIP3    H155625   6.628   3.758  14.762 -1.5201 -0.5132 -0.2922
11378TIP3    H255626   6.609   3.616  14.712  0.4471 -0.7885 -0.3532
11379TIP3   OH255627   2.316   6.335  17.057  0.3986 -0.6545  0.3220
11379TIP3    H155628   2.241   6.298  17.103 -1.3107 -0.2494 -1.9373
11379TIP3    H255629   2.287   6.422  17.029  1.9610 -0.2122 -0.0557
11380TIP3   OH255630   4.736   0.189  15.290  0.4868  0.0243  0.2893
11380TIP3    H155631   4.686   0.229  15.218 -1.3155  0.1287  1.5436
11380TIP3    H255632   4.740   0.257  15.357  1.3944 -0.3818  0.6614
11381TIP3   OH255633   2.929   4.875  14.623 -0.2218 -0.1118 -0.2781
11381TIP3    H155634   2.996   4.893  14.689  0.6281  0.5423 -1.2750
11381TIP3    H255635   2.944   4.784  14.598 -0.0785 -0.1475 -0.0633
11382TIP3   OH255636   6.296   5.727  11.467 -0.1874 -0.0057 -0.1010
11382TIP3    H155637   6.316   5.770  11.384  0.0652  1.1880  0.5533
11382TIP3    H255638   6.372   5.672  11.485  0.0825  0.2945 -0.3072
11383TIP3   OH255639   3.582   1.553  16.978 -0.0691  0.5522  0.3046
11383TIP3    H155640   3.611   1.465  17.002  1.3633  0.6311 -0.9552
11383TIP3    H255641   3.592   1.605  17.058  1.9603  0.2214  0.3174
11384TIP3   OH255642   0.125   5.264  13.064  0.6531 -0.5847 -0.0498
11384TIP3    H155643   0.155   5.184  13.020  0.0592 -2.0267  2.0028
11384TIP3    H255644   0.111   5.326  12.993 -1.0666 -2.9986 -2.0368
11385TIP3   OH255645   0.696   3.403  10.872  0.3319 -0.7541 -0.3999
11385TIP3    H155646   0.780   3.429  10.833 -0.1048  1.3193 -0.0758
11385TIP3    H255647   0.663   3.335  10.814  0.5175  1.0132 -2.7398
11386TIP3   OH255648   1.007   1.276   2.423  0.0511  0.2305 -0.3219
11386TIP3    H155649   0.960   1.219   2.483  0.6177  0.1355  0.0346
11386TIP3    H255650   1.070   1.323   2.477 -0.9112  1.7762 -0.4715
11387TIP3   OH255651   2.725   3.640  12.284  0.9774  0.5859  0.3470
11387TIP3    H155652   2.766   3.564  12.245 -1.0001 -0.6156  0.4681
11387TIP3    H255653   2.783   3.713  12.262  2.6827 -0.8628 -0.1544
11388TIP3   OH255654   3.719   1.485   0.924 -0.6524 -0.2831 -0.4391
11388TIP3    H155655   3.680   1.511   1.008  0.0325 -1.0040  0.1209
11388TIP3    H255656   3.662   1.417   0.891 -0.6812 -0.3069 -0.3420
11389TIP3   OH255657   0.180   1.201  11.995  1.0126  0.3787  0.1454
11389TIP3    H155658   0.267   1.241  11.993  0.7182  1.0225 -0.6910
11389TIP3    H255659   0.197   1.107  11.986  1.5588  0.6522 -2.8464
11390TIP3   OH255660   4.114   0.326   0.657  0.4800  0.4015 -0.4735
11390TIP3    H155661   4.184   0.388   0.638  0.1932  1.1343  0.7394
11390TIP3    H255662   4.043   0.381   0.691 -0.3236 -0.4343 -0.7697
11391TIP3   OH255663   6.356   0.986   4.826  0.5150  0.2949 -0.4797
11391TIP3    H155664   6.327   1.053   4.764  0.8995  1.8477  0.9356
11391TIP3    H255665   6.442   1.017   4.855 -0.3461  0.5077  2.0257
11392TIP3   OH255666   4.758   3.089  14.526  0.7548 -0.0238 -0.3039
11392TIP3    H155667   4.759   3.035  14.606  3.0449  0.6083  0.1624
11392TIP3    H255668   4.755   3.026  14.455  1.9377 -0.7652  0.2647
11393TIP3   OH255669   0.921   0.580   0.444  0.1359 -0.0177  0.0403
11393TIP3    H155670   0.929   0.638   0.368  1.0726 -0.2750 -0.0783
11393TIP3    H255671   0.998   0.523   0.438  1.1354  1.0078  2.0670
11394TIP3   OH255672   4.055   4.963  13.038  0.9106 -0.2482  0.7424
11394TIP3    H155673   4.068   4.872  13.011 -0.0292  0.4191 -2.3737
11394TIP3    H255674   4.078   5.015  12.961  2.0325  2.2789  2.6005
11395TIP3   OH255675   2.062   2.664  13.410 -0.3305 -0.0930 -0.6225
11395TIP3    H155676   2.092   2.577  13.386 -0.1348  0.1712 -1.3422
11395TIP3    H255677   2.134   2.701  13.462 -0.2296 -0.1862 -0.6968
11396TIP3   OH255678   5.190   5.319   4.919  0.3665  0.2146  0.5481
11396TIP3    H155679   5.097   5.296   4.923  0.5114 -0.4982 -0.0033
11396TIP3    H255680   5.210   5.352   5.007 -0.9115  2.4876  0.0718
11397TIP3   OH255681   1.055   1.641   3.593  0.0354  0.3572 -0.4666
11397TIP3    H155682   1.135   1.639   3.539  0.2434  0.1440 -0.1557
11397TIP3    H255683   1.001   1.709   3.553 -0.0611 -0.1946 -1.2911
11398TIP3   OH255684   0.642   3.570  17.028  0.0345  0.1048  0.3360
11398TIP3    H155685   0.656   3.480  16.998  0.0612 -0.2547  1.3788
11398TIP3    H255686   0.664   3.568  17.121  0.6445  1.3363  0.2428
11399TIP3   OH255687   1.420   5.009   5.175  0.3272  0.0676  0.0064
11399TIP3    H155688   1.497   4.953   5.176  0.1283 -0.2046  0.2565
11399TIP3    H255689   1.377   4.990   5.091  0.5493  0.2463 -0.1486
11400TIP3   OH255690   3.984   5.796   5.387 -0.1289 -0.0319  1.0645
11400TIP3    H155691   3.965   5.859   5.318  1.9227 -0.6415 -0.1483
11400TIP3    H255692   4.004   5.850   5.463 -2.2321  0.6504  1.2086
11401TIP3   OH255693   6.176   4.686   0.409  0.3685 -0.4583 -0.0195
11401TIP3    H155694   6.127   4.724   0.336  0.4117  0.4952  0.4303
11401TIP3    H255695   6.264   4.722   0.399  0.9058 -1.8613 -0.6016
11402TIP3   OH255696   6.663   5.438  11.859 -0.4670 -0.0297 -0.1452
11402TIP3    H155697   6.568   5.443  11.867 -0.5936  3.1703 -2.1948
11402TIP3    H255698   6.681   5.459  11.767  2.2515 -0.6058  0.1671
11403TIP3   OH255699   1.553   6.683  10.838  0.5870  0.4908  0.2774
11403TIP3    H155700   1.647   6.670  10.832  0.5531  0.3543 -0.0248
11403TIP3    H255701   1.526   6.702  10.748  0.3497  0.6819  0.3868
11404TIP3   OH255702   3.814   1.199   0.842  0.0614 -0.3018 -0.0865
11404TIP3    H155703   3.834   1.270   0.781 -0.7752 -1.6689 -2.0471
11404TIP3    H255704   3.884   1.203   0.907  1.6519  0.5230 -1.7602
11405TIP3   OH255705   2.596   6.840   4.080 -0.4341  0.2771  0.5416
11405TIP3    H155706   2.682   6.858   4.118  0.0065 -2.8475  1.2492
11405TIP3    H255707   2.559   6.771   4.134 -2.1262 -0.5739 -1.5490
11406TIP3   OH255708   3.066   0.596   1.692  0.5264  0.0701 -0.5351
11406TIP3    H155709   3.144   0.600   1.638 -0.4019  0.1578 -1.9359
11406TIP3    H255710   3.097   0.570   1.779  2.0836  0.1043 -1.0600
11407TIP3   OH255711   3.416   5.826   3.134 -0.4933 -0.0977  0.1523
11407TIP3    H155712   3.483   5.783   3.188  1.7786  2.4422 -0.4095
11407TIP3    H255713   3.440   5.919   3.136 -3.2712  0.7563 -1.2216
11408TIP3   OH255714   0.235   0.244  12.770  0.1111 -0.3566 -0.1993
11408TIP3    H155715   0.151   0.254  12.726  1.6883  1.3157 -3.1936
11408TIP3    H255716   0.250   0.150  12.773 -1.2623 -0.6183 -0.8134
11409TIP3   OH255717   3.755   2.661  12.871 -0.2312  0.1991 -0.3110
11409TIP3    H155718   3.662   2.682  12.862  0.1761  2.1772 -0.4524
11409TIP3    H255719   3.769   2.655  12.965 -0.8423 -2.0678 -0.3072
11410TIP3   OH255720   1.529   6.103   4.352 -0.0945  0.3492  0.1050
11410TIP3    H155721   1.559   6.017   4.321  0.8496  0.8543 -0.4558
11410TIP3    H255722   1.578   6.117   4.433 -1.2119 -0.1851  0.8935
11411TIP3   OH255723   5.915   4.679   5.292 -0.0866 -0.0343 -0.2824
11411TIP3    H155724   5.828   4.715   5.306 -0.5805 -1.9295  2.1824
11411TIP3    H255725   5.908   4.588   5.320  2.6911 -0.2310  0.0419
11412TIP3   OH255726   4.643   5.913   5.248  0.6994 -0.7638  0.1328
11412TIP3    H155727   4.553   5.885   5.234  0.1427  0.7248  0.4789
11412TIP3    H255728   4.683   5.910   5.161  0.5461 -2.1363  0.0961
11413TIP3   OH255729   1.853   3.781   0.230 -0.4150  0.4150 -0.1091
11413TIP3    H155730   1.847   3.876   0.235 -0.0943  0.3698  1.3983
11413TIP3    H255731   1.763   3.749   0.237 -0.3035  0.5120  2.5334
11414TIP3   OH255732   2.547   4.164   4.963 -0.1654  0.9880  0.7043
11414TIP3    H155733   2.576   4.247   4.926  0.1636  1.0065  0.9994
11414TIP3    H255734   2.526   4.110   4.887  1.4302  0.6820  0.4383
11415TIP3   OH255735   0.332   0.126   4.976 -0.4499 -0.1084 -0.9680
11415TIP3    H155736   0.280   0.076   5.039 -1.6460  1.6465 -0.4747
11415TIP3    H255737   0.409   0.154   5.025 -2.1056  2.5862  0.3652
11416TIP3   OH255738   0.749   6.136   3.235 -0.2182 -0.4893  0.1446
11416TIP3    H155739   0.691   6.121   3.309 -0.0578  1.6301  0.7813
11416TIP3    H255740   0.836   6.149   3.274  0.0100 -0.1276 -0.4655
11417TIP3   OH255741   3.220   2.512  11.243  0.0776 -0.0323  0.1575
11417TIP3    H155742   3.244   2.565  11.167 -0.3176  0.0516  0.0897
11417TIP3    H255743   3.146   2.559  11.283 -1.0042 -1.0792 -0.5270
11418TIP3   OH255744   3.990   5.939  12.743  0.5788  0.3953  0.1943
11418TIP3    H155745   3.923   6.007  12.730 -0.0517 -0.1798  0.3365
11418TIP3    H255746   3.942   5.857  12.730  1.4095 -0.0121 -0.3332
11419TIP3   OH255747   2.867   4.251   4.535 -0.2410 -0.0419 -0.1158
11419TIP3    H155748   2.777   4.238   4.508 -0.3249 -0.5544  0.3796
11419TIP3    H255749   2.887   4.175   4.590 -0.3094  1.2634  1.8045
11420TIP3   OH255750   4.992   4.232   2.503 -0.8706  0.4839  0.9417
11420TIP3    H155751   4.930   4.176   2.457  0.8910  0.3926 -1.5081
11420TIP3    H255752   5.076   4.186   2.497  0.1629  2.2538  0.9474
11421TIP3   OH255753   2.933   1.525  10.379  0.2387  0.0103  0.4892
11421TIP3    H155754   2.978   1.608  10.363 -0.1826 -0.1738 -2.0397
11421TIP3    H255755   2.988   1.459  10.336 -0.3263 -0.7874  0.9608
11422TIP3   OH255756   2.608   5.504   5.706 -0.1328 -0.1056  0.1298
11422TIP3    H155757   2.678   5.546   5.656 -0.5448 -0.3815 -0.6993
11422TIP3    H255758   2.644   5.494   5.794  0.1916  1.4488  0.2044
11423TIP3   OH255759   1.535   6.425  15.013  0.5716 -0.5173  0.9296
11423TIP3    H155760   1.589   6.457  15.086  0.5698 -0.7573  1.0371
11423TIP3    H255761   1.493   6.346  15.048  1.4418 -1.2743  0.3030
11424TIP3   OH255762   6.208   0.504  16.212 -0.3227  0.1109 -0.4764
11424TIP3    H155763   6.194   0.417  16.175  0.7337 -0.3243  0.0876
11424TIP3    H255764   6.255   0.488  16.294 -2.3184  1.0613  0.9449
11425TIP3   OH255765   4.711   1.887   0.634 -1.3208 -0.9281  0.2217
11425TIP3    H155766   4.780   1.822   0.643 -1.9288 -1.4714  1.2709
11425TIP3    H255767   4.731   1.934   0.554  0.6203 -0.6432  0.8373
11426TIP3   OH255768   3.443   3.175  12.544 -0.4314  0.5910  0.3671
11426TIP3    H155769   3.497   3.250  12.571 -0.4203  0.9171 -0.5238
11426TIP3    H255770   3.501   3.121  12.491 -1.3210  1.7047 -1.8826
11427TIP3   OH255771   1.243   3.607  15.860  0.0434  0.5411  0.4316
11427TIP3    H155772   1.241   3.636  15.769  1.4046  0.9722  0.5124
11427TIP3    H255773   1.260   3.512  15.855 -0.3738  0.4755  0.2344
11428TIP3   OH255774   2.886   0.993  14.983 -0.0884 -0.5194 -0.0716
11428TIP3    H155775   2.839   1.042  14.915  1.2327 -2.3346 -2.4498
11428TIP3    H255776   2.818   0.971  15.048 -1.5102  0.8712 -1.0112
11429TIP3   OH255777   6.501   1.381  13.686 -0.2298  0.2987  0.1062
11429TIP3    H155778   6.552   1.452  13.648  0.4064  0.1181  0.6097
11429TIP3    H255779   6.469   1.331  13.611 -0.9671  1.2997 -0.2707
11430TIP3   OH255780   5.205   5.375  11.449  0.4341 -0.2631 -0.3107
11430TIP3    H155781   5.167   5.288  11.447  0.0927 -0.1500  0.9018
11430TIP3    H255782   5.298   5.361  11.463  0.6714 -0.4772 -1.8585
11431TIP3   OH255783   1.576   1.806   2.047 -0.3754 -0.3419  0.0602
11431TIP3    H155784   1.569   1.737   2.112  2.0501  0.3802  1.2292
11431TIP3    H255785   1.662   1.792   2.006  0.0448  1.7038  0.0915
11432TIP3   OH255786   3.267   1.558   5.042  0.3091  0.0534  0.3434
11432TIP3    H155787   3.248   1.571   4.950  1.1394 -0.3462  0.1034
11432TIP3    H255788   3.203   1.613   5.088 -0.0843  0.2834 -0.4626
11433TIP3   OH255789   1.551   6.087   1.364 -0.1210  0.5415 -0.4948
11433TIP3    H155790   1.492   6.127   1.301 -0.4807  0.1225 -0.4284
11433TIP3    H255791   1.552   6.148   1.438  0.0860  0.8951 -0.7833
11434TIP3   OH255792   4.943   1.538  12.912 -0.1757 -0.5013  0.2235
11434TIP3    H155793   4.925   1.588  12.992  1.1577 -0.2269  0.3778
11434TIP3    H255794   4.975   1.602  12.850 -0.8995 -0.7704 -0.4518
11435TIP3   OH255795   1.575   6.555   0.354 -0.2007 -0.1533  0.3358
11435TIP3    H155796   1.500   6.502   0.328 -0.4151  0.7201 -0.9006
11435TIP3    H255797   1.649   6.493   0.353 -0.3551 -0.3587 -1.5946
11436TIP3   OH255798   1.482   0.306   0.043 -0.0185  0.8073 -0.3619
11436TIP3    H155799   1.402   0.304  -0.010  0.0542 -0.1410 -0.4534
11436TIP3    H255800   1.464   0.245   0.114 -0.4321  2.6676  1.2149
11437TIP3   OH255801   4.975   5.259   0.032  0.0848  0.1394  0.1955
11437TIP3    H155802   4.951   5.272   0.124  0.2179  0.1421  0.2294
11437TIP3    H255803   5.068   5.239   0.034  0.1662  0.4948  0.0304
11438TIP3   OH255804   2.463   4.617  12.423  0.2437 -0.2047  0.0468
11438TIP3    H155805   2.382   4.633  12.375  0.3213 -0.8408 -0.2994
11438TIP3    H255806   2.479   4.523  12.414  0.7620 -0.1691  0.5200
11439TIP3   OH255807   0.795   6.457  14.815 -0.8219 -1.0984 -0.3541
11439TIP3    H155808   0.703   6.431  14.818 -1.2922  0.5035  1.9487
11439TIP3    H255809   0.794   6.546  14.780 -0.5414  0.0173  2.2498
11440TIP3   OH255810   5.345   3.951   0.937  0.1042 -0.1159 -0.1597
11440TIP3    H155811   5.359   3.968   0.844  0.9541  0.6366  0.0978
11440TIP3    H255812   5.401   4.014   0.983  0.7492 -1.3707  0.8505
11441TIP3   OH255813   3.718   5.098  13.078  0.5109  0.2535  0.2723
11441TIP3    H155814   3.734   5.192  13.091 -0.4348  0.6265 -1.0235
11441TIP3    H255815   3.792   5.068  13.025 -0.0904  0.7113 -0.8793
11442TIP3   OH255816   5.013   4.731   1.910  0.2426 -0.0012 -0.2484
11442TIP3    H155817   5.098   4.728   1.954  0.0776 -1.6968  0.0282
11442TIP3    H255818   5.035   4.749   1.818  0.8332  0.4615 -0.0217
11443TIP3   OH255819   4.640   3.493   5.562  0.2285  0.4487 -0.2297
11443TIP3    H155820   4.660   3.523   5.473 -2.4684  1.0625 -0.6956
11443TIP3    H255821   4.628   3.573   5.613  1.9001  0.1106  0.8126
11444TIP3   OH255822   3.695   3.398   0.293  0.0256 -0.5386 -0.1059
11444TIP3    H155823   3.670   3.330   0.356  0.1430  0.2514  0.8234
11444TIP3    H255824   3.790   3.402   0.298  0.0084 -0.1579  0.0301
11445TIP3   OH255825   5.218   1.363   4.221  0.1497  0.1196 -0.1926
11445TIP3    H155826   5.267   1.444   4.234  1.5892 -0.9799  1.9951
11445TIP3    H255827   5.256   1.324   4.142  2.0069 -0.0737  0.7303
11446TIP3   OH255828   0.923   2.771  14.622 -0.1629 -0.6742  0.3037
11446TIP3    H155829   0.997   2.804  14.571 -0.0403 -0.9995  0.2677
11446TIP3    H255830   0.846   2.795  14.571 -0.0685 -0.5663  0.2112
11447TIP3   OH255831   2.229   3.370  11.771 -0.3690  0.1408 -0.0998
11447TIP3    H155832   2.281   3.312  11.827  0.1364 -0.1642 -0.8759
11447TIP3    H255833   2.174   3.311  11.720 -1.0187  0.4318  0.2481
11448TIP3   OH255834   5.399   6.072   5.225  0.6869 -0.0697 -0.0342
11448TIP3    H155835   5.486   6.044   5.253 -0.2015 -0.4223  2.6852
11448TIP3    H255836   5.339   6.028   5.286 -1.2700  1.7115 -0.5572
11449TIP3   OH255837   2.608   3.074   4.856  0.4411  0.1080 -0.3779
11449TIP3    H155838   2.657   3.154   4.873 -0.7625  0.8857 -0.4086
11449TIP3    H255839   2.597   3.034   4.943  1.8786 -0.5515 -0.4814
11450TIP3   OH255840   3.131   5.694   4.534  0.2941 -0.3344  0.1113
11450TIP3    H155841   3.087   5.609   4.529 -0.2133  0.0116 -1.8950
11450TIP3    H255842   3.195   5.683   4.604  0.4739 -2.4801 -0.3171
11451TIP3   OH255843   0.304   4.546  13.743 -0.2018  0.4087  0.4189
11451TIP3    H155844   0.306   4.614  13.810  0.1950  2.3213 -1.4335
11451TIP3    H255845   0.211   4.535  13.723 -0.2082  1.0826  0.0728
11452TIP3   OH255846   3.662   5.105  12.501  0.3257 -0.7208 -0.0419
11452TIP3    H155847   3.658   5.124  12.407  4.0030  0.8274 -0.0723
11452TIP3    H255848   3.626   5.183  12.542  0.1936 -0.7197 -0.1575
11453TIP3   OH255849   2.854   5.404   2.366  0.1401  0.1808  0.2783
11453TIP3    H155850   2.926   5.349   2.336  2.1628  2.2091  1.0720
11453TIP3    H255851   2.803   5.348   2.424  0.0918 -1.7815 -1.5193
11454TIP3   OH255852   3.971   2.032   5.878  0.2562 -0.5382 -0.4583
11454TIP3    H155853   4.052   2.074   5.906  0.3522 -1.4738  0.7397
11454TIP3    H255854   3.947   1.975   5.950  0.1332 -2.5740 -2.0070
11455TIP3   OH255855   2.137   4.390   4.933 -0.6560 -0.1253 -0.0333
11455TIP3    H155856   2.175   4.302   4.923 -1.0249 -0.3128  0.1964
11455TIP3    H255857   2.044   4.374   4.947 -0.7990  0.3233 -0.4235
11456TIP3   OH255858   2.115   0.584   4.483  0.4034 -0.4475 -0.0685
11456TIP3    H155859   2.068   0.559   4.563 -2.5479  0.9900 -1.1987
11456TIP3    H255860   2.119   0.503   4.432 -0.4616 -0.7302  0.2854
11457TIP3   OH255861   2.361   4.996  10.187 -0.1331  0.0257  0.0532
11457TIP3    H155862   2.289   5.044  10.145 -0.4516 -0.1696  0.3727
11457TIP3    H255863   2.408   4.956  10.114 -0.0503  0.5624 -0.1966
11458TIP3   OH255864   2.041   3.914  16.431  0.3049  0.3290  0.1350
11458TIP3    H155865   1.994   3.841  16.390  0.2899  0.7247 -0.5586
11458TIP3    H255866   2.133   3.887  16.427  0.2223 -0.0925  0.7904
11459TIP3   OH255867   6.442   5.439   4.494 -0.3454  0.5876 -0.0362
11459TIP3    H155868   6.372   5.380   4.465  0.3818 -0.7420  0.7612
11459TIP3    H255869   6.512   5.427   4.430 -0.5870  1.4127 -0.4657
11460TIP3   OH255870   1.121   5.127  15.142 -0.1653  0.0009 -1.2299
11460TIP3    H155871   1.042   5.083  15.175 -0.4678 -1.5267 -3.7277
11460TIP3    H255872   1.091   5.214  15.115 -0.0403  1.0398  1.6293
11461TIP3   OH255873   3.326   5.562  15.266  0.9454  0.3218 -0.2049
11461TIP3    H155874   3.269   5.498  15.308  0.4666  0.7072 -0.2491
11461TIP3    H255875   3.288   5.647  15.289  1.3867  0.5787 -0.4047
11462TIP3   OH255876   2.229   3.605  14.146 -0.2174  0.5560 -0.1404
11462TIP3    H155877   2.277   3.676  14.189  1.0033 -0.0380 -0.4877
11462TIP3    H255878   2.221   3.633  14.055  2.9321 -0.9788 -1.0342
11463TIP3   OH255879   2.080   5.017  13.824 -0.0232  0.0907 -0.2095
11463TIP3    H155880   2.030   4.944  13.858  0.0359 -0.3356 -1.0157
11463TIP3    H255881   2.121   4.983  13.744  2.1455  0.1792  0.7945
11464TIP3   OH255882   4.354   6.006  13.974  0.3592 -0.6081 -0.2543
11464TIP3    H155883   4.290   5.943  14.007  0.9064  0.3589  2.9792
11464TIP3    H255884   4.433   5.990  14.025  1.7926  0.1505 -2.1184
11465TIP3   OH255885   4.172   6.263   1.346 -0.5061  0.9451  0.5656
11465TIP3    H155886   4.150   6.353   1.370  1.2371  1.8908 -1.0650
11465TIP3    H255887   4.185   6.266   1.251  1.4630 -0.5640  0.7244
11466TIP3   OH255888   2.087   4.721   3.720 -0.7458 -0.1156 -0.0964
11466TIP3    H155889   2.011   4.776   3.737 -0.5980  0.0738 -0.0439
11466TIP3    H255890   2.069   4.640   3.767 -0.3833  0.3660  0.9165
11467TIP3   OH255891   3.225   3.150  14.350 -0.3131 -0.1709  0.0258
11467TIP3    H155892   3.203   3.092  14.423 -0.0161  0.3511  0.5419
11467TIP3    H255893   3.229   3.237  14.390 -1.2048  0.2754 -0.8261
11468TIP3   OH255894   3.337   5.441  13.172  0.0838 -0.2420 -0.4885
11468TIP3    H155895   3.393   5.371  13.138 -1.6730 -2.1954  0.4206
11468TIP3    H255896   3.295   5.478  13.095  0.9805 -0.2115 -0.9755
11469TIP3   OH255897   2.135   6.192  16.092  0.3569 -0.0097  0.4172
11469TIP3    H155898   2.089   6.268  16.055  1.1125  0.4127  0.3400
11469TIP3    H255899   2.226   6.220  16.100  1.2489 -1.7900 -2.1470
11470TIP3   OH255900   5.078   2.610  16.569 -0.3316 -0.6976 -0.2994
11470TIP3    H155901   5.164   2.630  16.531  1.3115  0.4610  3.4711
11470TIP3    H255902   5.018   2.671  16.526  0.7808 -1.1262 -2.6146
11471TIP3   OH255903   1.601   6.256  14.436 -0.1784 -0.4641 -0.4393
11471TIP3    H155904   1.669   6.189  14.433 -0.7377 -1.2862  2.4472
11471TIP3    H255905   1.519   6.208  14.423 -0.4880 -0.1625  0.3481
11472TIP3   OH255906   2.365   3.472   3.404 -0.1660  0.0329  0.4647
11472TIP3    H155907   2.379   3.516   3.320 -1.4423 -0.4513 -0.0237
11472TIP3    H255908   2.449   3.481   3.449  0.0735  1.6451 -0.2223
11473TIP3   OH255909   4.222   2.922   3.338 -0.0519  0.1015 -0.5200
11473TIP3    H155910   4.162   2.862   3.383  1.2509 -1.4517 -0.7879
11473TIP3    H255911   4.167   2.997   3.316 -2.0013 -1.3868 -1.0387
11474TIP3   OH255912   2.932   3.710  11.589  0.0559 -0.1119 -0.7573
11474TIP3    H155913   2.840   3.706  11.562  0.6511 -1.4805 -2.8428
11474TIP3    H255914   2.928   3.723  11.684 -2.3068 -1.2040 -0.6139
11475TIP3   OH255915   6.814   4.507   3.625  0.1836  0.4662  0.2783
11475TIP3    H155916   6.874   4.582   3.620  1.4978 -0.5792 -0.1436
11475TIP3    H255917   6.787   4.492   3.535  0.2291  0.1910  0.3112
11476TIP3   OH255918   2.605   1.263   2.845 -0.4337 -0.0612 -0.2891
11476TIP3    H155919   2.542   1.208   2.799  1.2522 -0.3660 -2.4020
11476TIP3    H255920   2.691   1.225   2.824  0.5793  1.3299  1.0657
11477TIP3   OH255921   1.917   0.281  14.690 -0.2555 -0.1888  0.4139
11477TIP3    H155922   1.861   0.261  14.615 -0.0880 -1.4534  0.5967
11477TIP3    H255923   1.903   0.374  14.706  1.1050  0.5991 -2.3191
11478TIP3   OH255924   4.402   1.251  11.784 -0.1108 -0.4311  0.7197
11478TIP3    H155925   4.418   1.291  11.699  0.0892  0.2712  1.0820
11478TIP3    H255926   4.394   1.157  11.766  3.2069 -0.7579  0.3327
11479TIP3   OH255927   2.808   5.567   0.225  0.0220  0.3327 -0.2467
11479TIP3    H155928   2.854   5.640   0.183  0.0162  0.1501 -0.5778
11479TIP3    H255929   2.727   5.605   0.258  0.0953  0.5107 -0.2684
11480TIP3   OH255930   5.551   1.940  13.835 -0.2623 -0.1101  0.0922
11480TIP3    H155931   5.479   1.999  13.816 -0.2379 -0.7753 -2.4144
11480TIP3    H255932   5.520   1.854  13.806  0.8097 -0.7789  0.8458
11481TIP3   OH255933   1.006   0.503  13.703  0.3115 -0.1348 -0.1870
11481TIP3    H155934   0.938   0.554  13.747 -0.1182  0.6769 -1.7227
11481TIP3    H255935   1.017   0.425  13.758 -0.8616  0.3862  0.8315
11482TIP3   OH255936   2.246   4.227  14.203 -0.0310 -0.3153 -0.0171
11482TIP3    H155937   2.171   4.168  14.196 -1.1853  0.8525  1.5973
11482TIP3    H255938   2.296   4.194  14.277  1.4086 -1.3910 -1.3991
11483TIP3   OH255939   5.157   1.262  12.532 -0.3877 -0.5803 -0.2176
11483TIP3    H155940   5.211   1.193  12.493  2.1473  0.6214  0.9245
11483TIP3    H255941   5.069   1.226  12.532  0.8516 -4.0039  0.6781
11484TIP3   OH255942   4.165   2.552   0.605 -0.0660 -0.0236 -0.0704
11484TIP3    H155943   4.138   2.543   0.513  1.5588  0.5045 -0.6317
11484TIP3    H255944   4.253   2.514   0.608  1.1005  2.5167  0.5814
11485TIP3   OH255945   0.538   5.562   1.746 -0.6291 -0.5217 -0.7759
11485TIP3    H155946   0.547   5.657   1.757  1.3202 -0.7513  0.0870
11485TIP3    H255947   0.557   5.546   1.653  1.5586 -0.2584 -0.4203
11486TIP3   OH255948   6.186   4.310  12.471  0.5634  0.0552 -0.0014
11486TIP3    H155949   6.107   4.283  12.425 -1.4746  0.9788  2.6776
11486TIP3    H255950   6.221   4.229  12.509 -0.0989 -0.1281  0.2249
11487TIP3   OH255951   4.538   3.295   5.945  0.2709  0.2330 -0.1192
11487TIP3    H155952   4.583   3.374   5.975  0.1681  0.5578 -0.8059
11487TIP3    H255953   4.485   3.324   5.871  0.0856 -0.4459 -0.2601
11488TIP3   OH255954   4.527   2.071  12.335 -0.2673 -0.1713 -0.3047
11488TIP3    H155955   4.461   2.037  12.274  1.3981 -1.7477 -1.3343
11488TIP3    H255956   4.611   2.043  12.298  1.0642  2.2130  0.6603
11489TIP3   OH255957   0.936   4.647   3.360  0.8058 -0.3983 -0.1842
11489TIP3    H155958   0.954   4.741   3.362  0.4644 -0.3458  0.4930
11489TIP3    H255959   0.996   4.613   3.293  1.7173  0.1327  0.3314
11490TIP3   OH255960   6.734   0.462   1.086  0.8390  0.2248 -0.0554
11490TIP3    H155961   6.657   0.446   1.033  0.9245  0.7245 -0.3366
11490TIP3    H255962   6.727   0.400   1.159  1.4178 -1.4461 -1.3652
11491TIP3   OH255963   0.239   1.920  10.533 -0.2947  0.3938  0.4046
11491TIP3    H155964   0.184   1.871  10.472  0.4206 -0.3931  0.3653
11491TIP3    H255965   0.269   1.996  10.483  0.5100 -0.3850 -0.3331
11492TIP3   OH255966   0.317   1.628  12.989 -0.1333 -0.0531  0.0243
11492TIP3    H155967   0.272   1.701  13.029 -1.5390 -1.2407  0.6901
11492TIP3    H255968   0.405   1.662  12.969 -0.8815  1.9231 -0.1297
11493TIP3   OH255969   5.158   0.787  13.461 -0.4940 -0.0981 -0.2381
11493TIP3    H155970   5.100   0.804  13.536 -1.6390 -0.7092 -0.9515
11493TIP3    H255971   5.176   0.693  13.466  1.4520  0.2770  0.6504
11494TIP3   OH255972   1.562   4.085  13.831 -0.0718  0.2144  0.4929
11494TIP3    H155973   1.632   4.142  13.861 -0.3941  0.4679  0.7767
11494TIP3    H255974   1.513   4.063  13.910 -1.1623  1.2059  0.1270
11495TIP3   OH255975   5.495   2.217  12.406  0.1766  0.3164 -0.0971
11495TIP3    H155976   5.528   2.283  12.467 -2.1626  0.2583  1.3649
11495TIP3    H255977   5.456   2.268  12.334 -0.2774  0.4922  0.2720
11496TIP3   OH255978   1.952   4.461   2.366 -0.2043  0.5486 -0.3352
11496TIP3    H155979   1.977   4.546   2.329  0.4211  1.0192  1.0912
11496TIP3    H255980   1.992   4.460   2.453  0.2076 -1.4091 -0.4920
11497TIP3   OH255981   0.192   2.344  11.510  0.1975  0.3485  0.1066
11497TIP3    H155982   0.189   2.439  11.514  0.2493  0.3213  1.0340
11497TIP3    H255983   0.285   2.324  11.500  0.2137  0.3938  0.1632
11498TIP3   OH255984   1.973   1.057   4.947  0.8942 -0.1384 -0.0877
11498TIP3    H155985   2.001   1.147   4.934  0.9105 -0.1188  0.0905
11498TIP3    H255986   1.980   1.017   4.860 -0.5963  0.4379 -0.5113
11499TIP3   OH255987   5.384   4.820   1.445 -0.2231  0.2733 -0.0406
11499TIP3    H155988   5.453   4.827   1.511  0.0732 -0.8511 -0.2108
11499TIP3    H255989   5.334   4.901   1.453  1.9522  1.7818 -0.8425
11500TIP3   OH255990   0.973   5.618   4.699 -0.1005 -0.0142 -0.0966
11500TIP3    H155991   0.879   5.631   4.694 -0.1494 -0.5811 -0.8470
11500TIP3    H255992   1.007   5.654   4.617  0.1912 -0.9541 -0.3958
11501TIP3   OH255993   5.925   1.092   0.934 -0.4673 -0.2410  0.6978
11501TIP3    H155994   5.901   1.156   1.001  2.3709 -1.8097  3.5410
11501TIP3    H255995   6.020   1.100   0.926  0.3092 -4.6864  2.1996
11502TIP3   OH255996   4.400   5.729  11.556  0.7803 -0.0299 -0.5448
11502TIP3    H155997   4.307   5.716  11.541  0.7426 -0.4938  0.0714
11502TIP3    H255998   4.406   5.806  11.612  0.7230 -0.4192  0.0034
11503TIP3   OH255999   0.188   4.700   3.738  0.4795 -0.4096  0.1836
11503TIP3    H156000   0.229   4.784   3.762 -1.5976  0.9507 -0.7555
11503TIP3    H256001   0.253   4.657   3.683  1.5293  0.6692  0.5243
11504TIP3   OH256002   5.293   3.644   4.555 -0.0071 -0.2776 -0.4431
11504TIP3    H156003   5.350   3.646   4.632 -0.0930  2.4238 -0.3553
11504TIP3    H256004   5.234   3.570   4.570  0.3440 -0.1574  1.8145
11505TIP3   OH256005   4.821   1.097  15.503  0.2535  0.5478 -0.4459
11505TIP3    H156006   4.912   1.101  15.531  0.3060 -2.2594  0.0326
11505TIP3    H256007   4.771   1.100  15.584  0.0389 -0.0404 -0.5507
11506TIP3   OH256008   4.247   0.633   3.634  0.1835  0.6408 -0.1581
11506TIP3    H156009   4.225   0.565   3.570 -1.2305  0.1161  0.8413
11506TIP3    H256010   4.343   0.632   3.637  0.2113 -1.1803 -0.3150
11507TIP3   OH256011   5.465   0.183   0.559  0.2916 -0.1158 -0.3612
11507TIP3    H156012   5.445   0.089   0.560  0.0310 -0.0926 -1.7790
11507TIP3    H256013   5.413   0.218   0.487 -0.7965  1.4161  1.0800
11508TIP3   OH256014   6.258   6.508  13.726 -0.3782 -0.8614 -0.1080
11508TIP3    H156015   6.313   6.572  13.680 -0.9315  0.6422  1.1967
11508TIP3    H256016   6.175   6.509  13.678 -0.2526 -0.8838 -0.3249
11509TIP3   OH256017   6.713   2.111   0.766 -0.5534 -0.8697  0.1996
11509TIP3    H156018   6.702   2.059   0.686 -1.7508 -3.4550  1.8880
11509TIP3    H256019   6.806   2.104   0.786  0.0878  1.0680 -1.6369
11510TIP3   OH256020   1.256   2.947   5.144  0.4965 -0.1559 -0.3081
11510TIP3    H156021   1.343   2.912   5.163 -0.8809 -3.1206  1.2989
11510TIP3    H256022   1.217   2.964   5.230 -0.6497  0.7209 -0.9668
11511TIP3   OH256023   0.449   6.849   3.013  0.1078  0.3012 -0.3344
11511TIP3    H156024   0.504   6.864   2.936  1.0902  0.3553  0.3652
11511TIP3    H256025   0.389   6.779   2.987 -0.6569  1.4093 -1.6874
11512TIP3   OH256026   0.152   6.358   3.169 -0.0050  0.5810  0.5873
11512TIP3    H156027   0.210   6.427   3.201  1.0905  0.0503 -0.1858
11512TIP3    H256028   0.118   6.391   3.086  1.5161 -0.2729 -0.4288
11513TIP3   OH256029   4.621   2.341  12.815 -0.3018  0.6198 -0.0370
11513TIP3    H156030   4.639   2.433  12.795  1.5912 -0.0587 -1.7673
11513TIP3    H256031   4.554   2.315  12.752  1.5785 -0.0030 -1.8955
11514TIP3   OH256032   5.944   3.110  12.795  0.4202 -0.0595  0.3257
11514TIP3    H156033   5.865   3.059  12.815  0.0945  0.2474 -0.1780
11514TIP3    H256034   6.016   3.055  12.828 -0.1370  1.3677  4.5159
11515TIP3   OH256035   3.586   5.464   1.620 -0.1822  0.2503  0.4918
11515TIP3    H156036   3.636   5.546   1.621 -2.9112  2.0964 -0.6784
11515TIP3    H256037   3.554   5.457   1.530 -0.9943 -1.4682  0.8819
11516TIP3   OH256038   6.392   5.158  13.530  0.4273 -0.0652 -0.0465
11516TIP3    H156039   6.300   5.158  13.556  0.4091 -1.6358 -0.0651
11516TIP3    H256040   6.439   5.130  13.609  1.2826  3.7546  1.0236
11517TIP3   OH256041   2.094   3.193  15.936  0.1843 -0.2958  0.6188
11517TIP3    H156042   2.093   3.265  15.999 -1.5587 -1.2182  1.7296
11517TIP3    H256043   2.022   3.214  15.876  0.8990 -0.1680 -0.2120
11518TIP3   OH256044   2.304   3.495   4.927  0.1128 -0.5195 -0.5593
11518TIP3    H156045   2.249   3.420   4.947  1.4930 -0.8623  2.5581
11518TIP3    H256046   2.316   3.540   5.011 -1.0215  3.5545 -2.2956
11519TIP3   OH256047   3.130   2.588  11.522  0.3742  0.2294  0.1933
11519TIP3    H156048   3.053   2.538  11.546  0.4854 -1.2770 -2.2635
11519TIP3    H256049   3.202   2.549  11.573  0.1915 -1.1709 -0.5693
11520TIP3   OH256050   3.285   2.626   2.987 -0.0290 -0.0238  0.0480
11520TIP3    H156051   3.223   2.682   2.941  1.2726  0.4957 -1.1542
11520TIP3    H256052   3.260   2.632   3.079 -1.4292  0.5629 -0.3537
11521TIP3   OH256053   4.607   2.053   5.784  0.1866  0.0540  0.0207
11521TIP3    H156054   4.559   2.045   5.867 -0.7541  2.2521 -0.2561
11521TIP3    H256055   4.670   1.980   5.787  0.7426  0.5034  3.0264
11522TIP3   OH256056   1.306   6.533   1.279 -0.2811 -0.1084  0.1224
11522TIP3    H156057   1.264   6.476   1.343 -0.3437  0.0827  0.2524
11522TIP3    H256058   1.398   6.509   1.282 -0.3710 -0.4987 -0.1310
11523TIP3   OH256059   6.445   4.417  12.478  0.2749 -0.0618 -1.0015
11523TIP3    H156060   6.351   4.402  12.466  0.6902 -2.1657 -2.2550
11523TIP3    H256061   6.481   4.413  12.389  1.5680  0.6986 -0.5361
11524TIP3   OH256062   1.566   1.356   1.769  0.3401 -0.0321 -0.0971
11524TIP3    H156063   1.566   1.316   1.682 -0.4896  0.3551 -0.2784
11524TIP3    H256064   1.631   1.305   1.818  1.3485  0.1901 -1.1377
11525TIP3   OH256065   4.644   4.743   1.873 -0.1281  0.0890  0.0779
11525TIP3    H156066   4.557   4.706   1.892  1.0462 -2.5376  0.7636
11525TIP3    H256067   4.701   4.704   1.939  1.6826  1.4533 -0.6127
11526TIP3   OH256068   4.234   1.363  13.234 -0.4292 -0.3810 -0.5546
11526TIP3    H156069   4.188   1.279  13.238 -1.6057  0.1502 -1.9440
11526TIP3    H256070   4.207   1.408  13.314 -0.9300 -0.7701 -0.4967
11527TIP3   OH256071   0.320   1.940  14.593 -0.1584 -0.3134 -0.0373
11527TIP3    H156072   0.302   1.987  14.512 -0.7851 -0.7892 -0.1824
11527TIP3    H256073   0.316   1.847  14.568 -0.9987 -0.4778  0.6611
11528TIP3   OH256074   5.210   0.074  16.955  0.3646  0.0615 -0.3418
11528TIP3    H156075   5.259   0.073  16.873  0.3724 -2.5318 -0.3826
11528TIP3    H256076   5.271   0.040  17.020 -0.7450 -1.4707 -0.0354
11529TIP3   OH256077   2.514   3.635  13.729 -0.1738  0.6344  0.5162
11529TIP3    H156078   2.425   3.664  13.707 -0.6522 -0.4449  0.9294
11529TIP3    H256079   2.510   3.615  13.823  0.2681 -0.2236  0.3628
11530TIP3   OH256080   2.454   6.252   2.137  0.3238 -0.6028  0.1577
11530TIP3    H156081   2.531   6.309   2.132  0.0426 -0.2265  0.0779
11530TIP3    H256082   2.458   6.213   2.225 -0.0923  0.4104  0.6381
11531TIP3   OH256083   4.451   1.515  14.608 -0.2699 -0.2973 -0.1502
11531TIP3    H156084   4.396   1.438  14.596 -2.1665  0.6302  1.7954
11531TIP3    H256085   4.390   1.584  14.632  1.3608  1.8504 -1.7790
11532TIP3   OH256086   4.314   0.148  10.509 -0.0798  0.4292  0.4727
11532TIP3    H156087   4.403   0.166  10.540  1.4071 -1.6269 -2.2107
11532TIP3    H256088   4.317   0.166  10.416 -2.5641  0.4592  0.3486
11533TIP3   OH256089   4.720   1.144   4.143  0.4041  0.3466  0.0891
11533TIP3    H156090   4.763   1.098   4.215  0.4055 -0.2300 -0.2713
11533TIP3    H256091   4.787   1.202   4.109  0.6736 -0.0038  0.0109
11534TIP3   OH256092   5.172   1.431   3.527  0.5562  0.1149 -0.1502
11534TIP3    H156093   5.097   1.383   3.562  0.0713  0.7507 -0.2960
11534TIP3    H256094   5.153   1.440   3.433  0.1411  1.4585  0.0430
11535TIP3   OH256095   3.615   5.406  13.904 -0.0761 -0.1670 -0.3580
11535TIP3    H156096   3.569   5.335  13.949  0.4297 -0.8266 -0.8574
11535TIP3    H256097   3.657   5.456  13.974 -0.0070 -0.6703 -0.0390
11536TIP3   OH256098   4.859   4.116  14.114  0.4407  0.1517 -0.1469
11536TIP3    H156099   4.796   4.171  14.161  0.2011  0.5477 -0.9176
11536TIP3    H256100   4.890   4.171  14.042  1.5795 -0.0819  0.1376
11537TIP3   OH256101   0.516   1.586  12.674  0.2766 -0.2441  0.3361
11537TIP3    H156102   0.551   1.626  12.754 -0.9123 -0.7379  1.1298
11537TIP3    H256103   0.476   1.504  12.704 -0.4376 -0.2933 -0.7252
11538TIP3   OH256104   1.337   3.587   0.453  0.0772 -0.2070  0.4818
11538TIP3    H156105   1.407   3.628   0.504 -0.9007 -0.0582  1.7675
11538TIP3    H256106   1.297   3.659   0.406 -0.0335 -0.0775  0.7693
11539TIP3   OH256107   5.142   2.538  12.180  0.0045 -0.6616 -0.1892
11539TIP3    H156108   5.178   2.466  12.232 -2.8062 -3.0968 -1.2554
11539TIP3    H256109   5.179   2.525  12.092 -2.8780 -3.0441 -1.2340
11540TIP3   OH256110   1.937   2.983   3.555 -0.0418  0.0139  0.0391
11540TIP3    H156111   1.998   3.041   3.601 -0.5095 -0.1303  0.8658
11540TIP3    H256112   1.952   3.001   3.463 -0.8121  2.1363  0.2744
11541TIP3   OH256113   5.052   3.850  12.428  0.0357 -0.7612  0.5794
11541TIP3    H156114   5.093   3.919  12.480 -0.8146  0.9477 -0.9313
11541TIP3    H256115   5.110   3.838  12.353 -0.6458 -0.4805 -0.0112
11542TIP3   OH256116   5.161   5.461   3.389  0.0009  0.1539 -0.2584
11542TIP3    H156117   5.119   5.547   3.386 -1.8037 -0.6009  1.0637
11542TIP3    H256118   5.230   5.471   3.455 -1.6465  0.0892  1.5896
11543TIP3   OH256119   3.242   0.248   4.441  0.5011 -0.6712  0.6615
11543TIP3    H156120   3.329   0.209   4.429  0.4966 -0.2918 -0.8470
11543TIP3    H256121   3.258   0.326   4.494  1.1845 -0.3058 -0.0490
11544TIP3   OH256122   3.910   2.761  16.468 -0.3895 -0.8215  0.3833
11544TIP3    H156123   3.865   2.747  16.552 -1.6422 -2.4757 -0.5117
11544TIP3    H256124   3.996   2.721  16.480 -0.4372 -0.7618  0.9673
11545TIP3   OH256125   0.576   1.758  14.478  0.2786 -0.6452  0.2809
11545TIP3    H156126   0.548   1.843  14.513 -1.0886  0.2276 -2.6626
11545TIP3    H256127   0.671   1.758  14.491  0.4732  1.8674 -0.6238
11546TIP3   OH256128   1.070   3.269  13.603 -0.4920  0.0036 -0.0883
11546TIP3    H156129   1.001   3.254  13.538  0.0121  0.1143 -0.6621
11546TIP3    H256130   1.041   3.221  13.681 -2.2981  1.8472  0.4611
11547TIP3   OH256131   5.666   2.063   2.698 -0.8783  0.7318 -0.0045
11547TIP3    H156132   5.724   2.008   2.751 -1.7647 -0.1419  0.1030
11547TIP3    H256133   5.706   2.064   2.611 -0.9034 -0.2241 -0.0413
11548TIP3   OH256134   0.439   2.722   0.022  0.1873  0.1944 -0.6573
11548TIP3    H156135   0.368   2.661   0.040  1.4510 -1.5983 -1.4101
11548TIP3    H256136   0.469   2.750   0.108  0.0485 -0.8526 -0.2545
11549TIP3   OH256137   4.896   5.320   1.843 -0.0243 -0.3768  0.0420
11549TIP3    H156138   4.982   5.305   1.804  0.0968 -0.1044  0.1928
11549TIP3    H256139   4.867   5.234   1.873 -0.4691 -0.7254 -1.3348
11550TIP3   OH256140   2.808   0.725   5.715 -0.0501  0.4363  0.3453
11550TIP3    H156141   2.785   0.811   5.679 -0.9103 -0.1167 -0.4753
11550TIP3    H256142   2.892   0.739   5.759  0.8892  1.2222 -1.5982
11551TIP3   OH256143   1.764   0.990   1.632 -0.5478 -0.5566  0.3280
11551TIP3    H156144   1.840   0.950   1.675 -0.5561 -1.7667 -0.7370
11551TIP3    H256145   1.693   0.929   1.649 -1.5758  1.0061  2.1039
11552TIP3   OH256146   3.415   2.041  11.849 -0.1138  0.7095 -0.1199
11552TIP3    H156147   3.464   2.042  11.932 -1.6231 -1.3731  0.8862
11552TIP3    H256148   3.327   2.013  11.874 -0.1918 -1.6711 -2.6194
11553TIP3   OH256149   4.462   4.981   5.312  0.0381 -0.3824 -0.3876
11553TIP3    H156150   4.384   4.958   5.363 -0.0232  2.0180  0.7367
11553TIP3    H256151   4.428   5.009   5.227 -0.3521  0.7050  0.1166
11554TIP3   OH256152   4.820   6.263   2.315 -0.6482  0.0294  0.2873
11554TIP3    H156153   4.844   6.355   2.301 -0.7652 -0.1085 -0.9921
11554TIP3    H256154   4.726   6.266   2.333 -0.6668  0.1630  0.1770
11555TIP3   OH256155   1.206   0.275  12.315 -0.0075  0.1541  0.1491
11555TIP3    H156156   1.185   0.223  12.238  2.4839 -0.1689 -0.4166
11555TIP3    H256157   1.230   0.210  12.381  0.3104  0.5039  0.3815
11556TIP3   OH256158   2.357   3.188   3.732  0.3623  0.2032 -0.8066
11556TIP3    H156159   2.331   3.114   3.676 -0.3956  0.0548 -0.2784
11556TIP3    H256160   2.428   3.231   3.684  0.7186 -0.7838 -1.1900
11557TIP3   OH256161   5.758   2.994  11.828  0.2710  0.7378 -0.3066
11557TIP3    H156162   5.823   3.057  11.797  2.1479 -1.5062 -1.2592
11557TIP3    H256163   5.767   2.919  11.770 -0.3055 -1.3047  2.0334
11558TIP3   OH256164   0.525   0.537  13.595  0.5240  0.1887  0.2808
11558TIP3    H156165   0.479   0.563  13.516 -0.4891  0.3834  0.9119
11558TIP3    H256166   0.566   0.453  13.573  0.8387  0.5867 -0.6553
11559TIP3   OH256167   1.466   3.965   5.055  0.2136  0.1731  0.5942
11559TIP3    H156168   1.389   3.911   5.074  0.1538 -0.2093 -0.6607
11559TIP3    H256169   1.511   3.919   4.984  1.1576  0.8300  0.7424
11560TIP3   OH256170   0.680   1.806   0.392  0.0887 -0.4974 -0.1917
11560TIP3    H156171   0.752   1.750   0.364  1.2059  1.2291 -0.9311
11560TIP3    H256172   0.603   1.749   0.391  1.2165 -2.0733 -0.5947
11561TIP3   OH256173   5.315   6.807  12.833 -0.5611 -0.0543 -0.0720
11561TIP3    H156174   5.410   6.816  12.834 -0.3771 -1.3122 -1.8327
11561TIP3    H256175   5.288   6.828  12.923  1.5016 -1.1223  0.8603
11562TIP3   OH256176   1.224   1.996   3.453 -0.3449  0.3419  0.1541
11562TIP3    H156177   1.311   2.024   3.425 -0.1075 -0.4959  0.0121
11562TIP3    H256178   1.225   1.901   3.443 -0.7180  0.1425  1.7462
11563TIP3   OH256179   3.087   3.658  13.586  0.6321 -0.0265 -0.4560
11563TIP3    H156180   3.079   3.753  13.590 -1.2978 -0.1154 -1.0796
11563TIP3    H256181   3.009   3.625  13.630  1.0293 -1.3261 -0.6571
11564TIP3   OH256182   0.583   1.677  17.006 -0.0140  0.3653  0.1430
11564TIP3    H156183   0.562   1.596  16.959 -0.8563  0.8411 -0.3181
11564TIP3    H256184   0.622   1.734  16.940 -1.1082  0.9985  0.0147
11565TIP3   OH256185   4.946   6.415  11.069 -0.2378  0.2816 -0.1195
11565TIP3    H156186   4.926   6.364  10.991  0.0845  1.0711 -0.7295
11565TIP3    H256187   5.030   6.380  11.099 -0.1771  0.2351 -0.3440
11566TIP3   OH256188   6.678   5.524   3.229  0.2056 -0.0050 -0.1482
11566TIP3    H156189   6.693   5.540   3.136  0.6999 -0.2247 -0.1107
11566TIP3    H256190   6.644   5.607   3.262 -1.1494 -0.2968 -0.7599
11567TIP3   OH256191   5.978   2.449  12.793  0.3099  0.6874  0.1539
11567TIP3    H156192   5.945   2.368  12.752  0.0446  1.0008 -0.2626
11567TIP3    H256193   5.998   2.424  12.883 -2.5072  0.8239  0.9015
11568TIP3   OH256194   4.391   3.962  16.087  0.1141 -0.1860 -0.0162
11568TIP3    H156195   4.400   3.872  16.057 -1.6565 -0.0518 -1.1052
11568TIP3    H256196   4.466   3.976  16.145  1.7934 -1.5804 -1.7142
11569TIP3   OH256197   6.775   0.265  14.172  0.7991 -0.2531 -0.2474
11569TIP3    H156198   6.760   0.297  14.083 -1.2099 -0.9335 -0.2107
11569TIP3    H256199   6.850   0.316  14.204 -0.8383  2.8657 -0.9458
11570TIP3   OH256200   0.225   2.127  16.158 -0.1935 -0.1024  0.3488
11570TIP3    H156201   0.199   2.059  16.096 -0.4859 -0.0495  0.4122
11570TIP3    H256202   0.320   2.122  16.161 -0.2789 -1.7434  1.7474
11571TIP3   OH256203   6.471   1.664  13.958 -0.0486 -0.1328  0.2902
11571TIP3    H156204   6.394   1.719  13.941  0.1000 -0.8898 -3.9195
11571TIP3    H256205   6.545   1.724  13.951 -0.0685 -0.1639 -0.2139
11572TIP3   OH256206   6.254   0.604   1.152  0.5093 -0.4150  0.0864
11572TIP3    H156207   6.295   0.600   1.066  0.6588  0.6819  0.0906
11572TIP3    H256208   6.263   0.696   1.179  1.4045 -0.9583  1.7406
11573TIP3   OH256209   3.157   1.951  15.342  0.2756 -0.0691 -0.3666
11573TIP3    H156210   3.096   2.013  15.302  0.8796  0.6252 -0.2327
11573TIP3    H256211   3.200   2.001  15.411  2.3613  0.0453 -1.6608
11574TIP3   OH256212   3.100   3.306  15.372 -0.3501 -0.1117  0.1133
11574TIP3    H156213   3.027   3.248  15.355 -0.5034  0.5514 -1.8172
11574TIP3    H256214   3.062   3.380  15.419 -0.2168 -1.3210  2.2521
11575TIP3   OH256215   3.883   0.642  13.762 -0.6335 -0.3285  0.2194
11575TIP3    H156216   3.871   0.547  13.763 -1.7341 -0.2309  2.1790
11575TIP3    H256217   3.812   0.675  13.817 -0.0399  1.6052 -0.1136
11576TIP3   OH256218   1.644   5.474  15.647 -0.5866  0.2058  0.1605
11576TIP3    H156219   1.561   5.480  15.600 -0.9183 -1.6454  0.4368
11576TIP3    H256220   1.674   5.385  15.632  1.8483  1.0692 -0.6871
11577TIP3   OH256221   5.012   3.723   5.978 -0.4406 -0.7857  0.1899
11577TIP3    H156222   5.087   3.665   5.990 -0.2553 -0.5992 -0.0683
11577TIP3    H256223   5.010   3.776   6.058  2.8175  2.7994 -1.8037
11578TIP3   OH256224   3.148   1.833   0.679 -0.4113 -0.5277  0.5756
11578TIP3    H156225   3.183   1.744   0.683 -1.7066 -1.0217  1.3848
11578TIP3    H256226   3.218   1.884   0.637  0.7265 -1.7287  0.9393
11579TIP3   OH256227   3.528   6.531  13.798 -0.2663  0.1281  0.0295
11579TIP3    H156228   3.477   6.450  13.791 -0.8704  0.5542 -0.5457
11579TIP3    H256229   3.473   6.598  13.758  0.7810  0.5892 -0.6727
11580TIP3   OH256230   1.135   4.870   1.794  0.5015  0.2243  0.0858
11580TIP3    H156231   1.085   4.828   1.863 -2.4372  0.8574 -1.4895
11580TIP3    H256232   1.163   4.799   1.737  2.2254 -0.2136  1.3931
11581TIP3   OH256233   3.873   5.104  14.205  0.0074  0.1311  0.4671
11581TIP3    H156234   3.920   5.187  14.214  1.1733 -0.5434  0.7746
11581TIP3    H256235   3.941   5.038  14.200 -0.9099 -0.8774  0.8213
11582TIP3   OH256236   1.262   6.600   3.141 -0.1434  0.1670  0.1810
11582TIP3    H156237   1.188   6.629   3.195 -1.4411  1.7295 -2.2723
11582TIP3    H256238   1.253   6.504   3.137  0.3239 -0.0860  3.0384
11583TIP3   OH256239   2.282   2.416   3.752 -0.2751  0.1473 -0.2437
11583TIP3    H156240   2.231   2.371   3.684  0.5026 -0.1275 -0.6593
11583TIP3    H256241   2.218   2.471   3.797 -0.4185  2.3644 -2.8758
11584TIP3   OH256242   6.184   1.212   0.944 -0.5622  0.4646  0.1053
11584TIP3    H156243   6.259   1.164   0.979 -1.3990 -1.6511 -0.8599
11584TIP3    H256244   6.218   1.256   0.866 -0.2098 -0.1147 -0.0725
11585TIP3   OH256245   1.325   0.582   2.355  0.2861 -0.1536  0.1952
11585TIP3    H156246   1.369   0.628   2.283 -2.2491  0.7159 -0.9409
11585TIP3    H256247   1.386   0.587   2.428  2.4993 -0.0613 -1.5399
11586TIP3   OH256248   3.307   0.746  11.182  0.0624  0.2171 -0.3723
11586TIP3    H156249   3.271   0.816  11.128  0.5657 -0.3923 -1.5275
11586TIP3    H256250   3.315   0.671  11.123  0.9385 -0.3756  0.4608
11587TIP3   OH256251   3.071   2.042   6.024 -0.3477  0.0307  0.1082
11587TIP3    H156252   3.100   2.133   6.035  0.8415 -0.4289  1.0265
11587TIP3    H256253   3.104   2.016   5.939 -1.6189  0.7658 -0.6466
11588TIP3   OH256254   6.720   2.549   2.128  0.5406 -0.1889 -0.0294
11588TIP3    H156255   6.771   2.613   2.078  0.6170 -0.0451  0.2275
11588TIP3    H256256   6.769   2.539   2.210 -0.0704  0.2772  0.4012
11589TIP3   OH256257   4.577   5.998  14.420  0.2232 -0.3752 -0.2237
11589TIP3    H156258   4.508   5.974  14.358  0.7991 -0.3735 -0.8900
11589TIP3    H256259   4.542   5.975  14.506 -0.9012  0.3240 -0.4725
11590TIP3   OH256260   6.490   6.540   5.669 -0.3077  0.2759  0.1522
11590TIP3    H156261   6.423   6.494   5.719 -1.8684  0.5877 -1.5225
11590TIP3    H256262   6.554   6.473   5.645 -1.9193 -0.8391 -1.2407
11591TIP3   OH256263   3.483   1.904  11.364 -0.0752 -0.0848  0.5192
11591TIP3    H156264   3.543   1.975  11.341 -2.1314  1.7432  0.4791
11591TIP3    H256265   3.477   1.908  11.459 -0.1413 -0.2735  0.5232
11592TIP3   OH256266   0.628   3.981  11.660  0.1121 -0.0797  0.1694
11592TIP3    H156267   0.625   3.977  11.565 -1.0793  2.0716  0.0464
11592TIP3    H256268   0.537   3.964  11.687  0.1323  0.7935  0.8110
11593TIP3   OH256269   4.059   4.830   1.270 -0.2680 -0.2131  0.5000
11593TIP3    H156270   4.069   4.756   1.330 -1.2515 -0.8838 -0.1292
11593TIP3    H256271   4.064   4.791   1.183 -0.0388  0.5746  0.1530
11594TIP3   OH256272   5.663   5.876   4.284 -0.2580  0.4793  0.4151
11594TIP3    H156273   5.596   5.808   4.296  0.0260 -0.5584 -2.9403
11594TIP3    H256274   5.617   5.946   4.238  0.0258  1.6640  1.8457
11595TIP3   OH256275   4.495   0.366  11.729  0.0348 -0.2273  0.8208
11595TIP3    H156276   4.464   0.282  11.764  0.7386 -0.8433 -0.0024
11595TIP3    H256277   4.580   0.380  11.770  1.8768 -1.9835 -2.0106
11596TIP3   OH256278   2.623   1.703  16.188 -0.4505  0.5083 -0.1692
11596TIP3    H156279   2.608   1.736  16.099 -0.1489 -0.4778 -0.5937
11596TIP3    H256280   2.703   1.651  16.181 -1.2344 -0.8176  0.3428
11597TIP3   OH256281   1.710   2.061  13.040 -0.1879 -0.0601  0.7450
11597TIP3    H156282   1.690   1.988  12.982  3.5202 -1.8706  1.4126
11597TIP3    H256283   1.764   2.120  12.988  0.9572 -0.3758  1.5106
11598TIP3   OH256284   6.264   5.578   3.637 -0.4039  0.2362 -0.4646
11598TIP3    H156285   6.278   5.550   3.727  1.7192  2.2788 -0.0763
11598TIP3    H256286   6.171   5.600   3.633 -0.2303  1.6401  1.7234
11599TIP3   OH256287   3.690   3.871   5.168 -0.2340  0.4511 -0.0666
11599TIP3    H156288   3.709   3.806   5.236  0.1870  0.7068  0.0623
11599TIP3    H256289   3.774   3.884   5.124 -0.3148  0.9177 -0.0851
11600TIP3   OH256290   1.411   3.849  15.290 -0.0965 -0.4559  0.8696
11600TIP3    H156291   1.379   3.872  15.203  2.8143  1.2798  0.1443
11600TIP3    H256292   1.358   3.903  15.349 -1.3190 -0.8055  0.1456
11601TIP3   OH256293   3.008   3.935  13.673  0.3059 -0.2100 -0.2641
11601TIP3    H156294   3.019   3.995  13.599  0.9645  0.5358  0.4117
11601TIP3    H256295   2.914   3.922  13.679  0.2224 -0.0010 -1.0238
11602TIP3   OH256296   1.528   0.097  14.414 -0.3349  0.1004 -0.3224
11602TIP3    H156297   1.478   0.077  14.493  0.5022 -1.4046 -0.1353
11602TIP3    H256298   1.506   0.025  14.354  0.6575  0.0899 -0.6818
11603TIP3   OH256299   5.223   3.484   5.266 -0.2698  0.2074  0.4019
11603TIP3    H156300   5.141   3.440   5.243  0.1658 -1.7848  2.2267
11603TIP3    H256301   5.207   3.576   5.250 -2.3348 -0.2897 -0.7427
11604TIP3   OH256302   3.447   0.062   0.805 -0.3536  0.0075  0.6928
11604TIP3    H156303   3.499   0.021   0.875  1.7024 -2.0004 -1.8277
11604TIP3    H256304   3.448   0.155   0.827  1.5390 -0.3526  2.5326
11605TIP3   OH256305   5.135   1.420  14.918  0.4685  0.2526 -0.7136
11605TIP3    H156306   5.225   1.422  14.949  0.6753 -0.3580 -1.2470
11605TIP3    H256307   5.135   1.356  14.846 -0.6943 -0.8763  0.2428
11606TIP3   OH256308   2.882   6.433   4.378 -0.1610  0.0859  0.9647
11606TIP3    H156309   2.826   6.501   4.416  0.6185  0.4899  1.4224
11606TIP3    H256310   2.963   6.438   4.428  0.1152 -0.8155  0.6302
11607TIP3   OH256311   2.141   5.893  13.173  0.0397  0.1838 -0.1506
11607TIP3    H156312   2.209   5.950  13.208 -0.4167  2.7084 -2.9858
11607TIP3    H256313   2.189   5.817  13.140  1.2741  0.9999 -0.3149
11608TIP3   OH256314   0.572   6.075   0.024 -0.3264 -0.1871  0.0602
11608TIP3    H156315   0.646   6.128  -0.006 -0.7372 -0.0659 -0.7599
11608TIP3    H256316   0.520   6.135   0.077 -0.4219  0.0369 -0.2867
11609TIP3   OH256317   6.625   1.362   0.184  0.2331 -0.2257  0.0552
11609TIP3    H156318   6.676   1.282   0.184 -1.3722 -1.3004  1.2394
11609TIP3    H256319   6.584   1.365   0.098  1.0264 -0.1553 -0.3304
11610TIP3   OH256320   3.578   0.671   5.488  0.1385 -0.6393  0.1386
11610TIP3    H156321   3.552   0.606   5.423  0.4912  0.7614 -1.4715
11610TIP3    H256322   3.632   0.733   5.439 -1.7669  1.9366  1.1391
11611TIP3   OH256323   6.384   5.064  13.278  1.0601 -0.1454  0.3473
11611TIP3    H156324   6.400   5.099  13.366 -1.4105  0.7966  0.5134
11611TIP3    H256325   6.289   5.052  13.274  1.3347 -2.5468 -1.3671
11612TIP3   OH256326   1.083   4.788  12.003 -0.0011 -0.1134  0.3066
11612TIP3    H156327   1.132   4.828  11.932  0.4387  0.1241  0.7413
11612TIP3    H256328   1.003   4.841  12.010 -0.3695 -0.5525 -0.4544
11613TIP3   OH256329   5.814   1.687   1.594 -0.5133 -0.2755  0.4196
11613TIP3    H156330   5.833   1.636   1.515  0.0913  0.9703 -0.2764
11613TIP3    H256331   5.777   1.624   1.656  0.3203 -1.5676 -0.3577
11614TIP3   OH256332   6.087   1.374   2.161 -0.4165  0.3972  0.3390
11614TIP3    H156333   6.020   1.307   2.168 -0.2120  0.1735  0.1553
11614TIP3    H256334   6.077   1.427   2.240  1.1463 -1.4425  1.8644
11615TIP3   OH256335   0.108   3.127  16.193 -0.7985 -0.2108 -0.3500
11615TIP3    H156336   0.082   3.048  16.240  0.3147 -0.0069  0.6602
11615TIP3    H256337   0.132   3.096  16.105 -2.4438 -0.6666 -0.6612
11616TIP3   OH256338   4.547   0.915   5.586  0.1362 -0.0501  0.4499
11616TIP3    H156339   4.608   0.879   5.651  0.0191  0.0361  0.6074
11616TIP3    H256340   4.465   0.869   5.602  0.3324 -0.6418 -0.1924
11617TIP3   OH256341   2.373   5.952  13.467  0.0417 -0.3115 -0.0678
11617TIP3    H156342   2.363   6.038  13.508  1.8182  0.0290 -0.2667
11617TIP3    H256343   2.342   5.965  13.378 -2.5462 -0.7036  0.6919
11618TIP3   OH256344   6.364   1.503  10.811  0.7569  0.1180  0.5925
11618TIP3    H156345   6.272   1.523  10.825  0.5105 -0.7128  0.2242
11618TIP3    H256346   6.408   1.588  10.815 -0.0019  0.5071  0.8982
11619TIP3   OH256347   2.587   2.803   0.297 -0.2427 -0.6471  0.4146
11619TIP3    H156348   2.609   2.772   0.209 -1.0814 -0.7035  0.2229
11619TIP3    H256349   2.506   2.758   0.319  1.0186 -2.2881  2.0786
11620TIP3   OH256350   5.687   1.125  10.629 -0.2276  0.2526 -0.3834
11620TIP3    H156351   5.746   1.178  10.683  0.6317  0.9380 -1.9336
11620TIP3    H256352   5.726   1.038  10.630 -0.4796  0.1412  0.4660
11621TIP3   OH256353   5.217   4.893  14.008  0.1514 -0.0465 -0.7051
11621TIP3    H156354   5.158   4.920  14.078 -0.8380 -3.3033 -0.1039
11621TIP3    H256355   5.288   4.957  14.011 -0.5439  0.7671  2.3361
11622TIP3   OH256356   2.045   1.772   6.357 -0.7536 -0.3242 -0.0592
11622TIP3    H156357   2.013   1.700   6.412  0.0548  0.6744  1.8101
11622TIP3    H256358   2.014   1.750   6.269  0.3884 -3.5373  0.2019
11623TIP3   OH256359   5.263   5.278  10.922  0.0089  0.0486 -1.3639
11623TIP3    H156360   5.194   5.214  10.908  0.8451 -2.0849  2.7030
11623TIP3    H256361   5.344   5.229  10.913  0.6893  0.5427  1.3254
11624TIP3   OH256362   3.894   6.656   3.816  0.1049  0.4659  0.0901
11624TIP3    H156363   3.906   6.745   3.851 -1.8651  0.3019  1.3370
11624TIP3    H256364   3.844   6.610   3.883  1.1080 -1.6348 -0.5166
11625TIP3   OH256365   0.530   1.842  15.289 -0.5072  0.6892  0.4139
11625TIP3    H156366   0.447   1.798  15.302  0.1081 -0.4604  0.5811
11625TIP3    H256367   0.579   1.825  15.370 -0.3214  1.8553  0.5639
11626TIP3   OH256368   4.968   2.827  17.008 -0.0154  0.1836 -0.5070
11626TIP3    H156369   5.051   2.780  17.012 -0.5974 -0.9385 -1.0143
11626TIP3    H256370   4.920   2.786  16.936 -0.9469  0.9179 -0.3393
11627TIP3   OH256371   1.123   1.152   0.795  0.4214 -0.7871  0.1295
11627TIP3    H156372   1.061   1.224   0.811  0.1699 -1.0977  0.5832
11627TIP3    H256373   1.199   1.194   0.756  1.0984  0.0429  2.2316
11628TIP3   OH256374   0.087   4.692   4.627 -0.3572  0.8219  0.4123
11628TIP3    H156375   0.115   4.747   4.700 -0.6782  0.7349  0.6024
11628TIP3    H256376   0.002   4.726   4.602 -1.4150 -0.6939  1.7186
11629TIP3   OH256377   6.716   2.434  17.016  0.4195 -0.3743 -0.6459
11629TIP3    H156378   6.789   2.402  17.069  0.5569  0.1814 -0.4884
11629TIP3    H256379   6.691   2.359  16.962 -0.5986 -1.4064  1.1397
11630TIP3   OH256380   6.777   6.081   4.267 -0.1481 -0.4479 -0.0528
11630TIP3    H156381   6.710   6.014   4.278  1.5621 -1.9873  1.8805
11630TIP3    H256382   6.815   6.064   4.181 -1.2222 -0.4852 -0.5378
11631TIP3   OH256383   4.208   5.767  14.072  0.1723  0.2381 -0.4446
11631TIP3    H156384   4.179   5.756  13.981  0.3138 -0.7050 -0.3834
11631TIP3    H256385   4.133   5.806  14.115 -0.0493  0.3087 -0.8825
11632TIP3   OH256386   4.024   5.810  13.492  0.1437  0.3932  0.0559
11632TIP3    H156387   3.973   5.761  13.557 -0.0617  1.6106  0.8490
11632TIP3    H256388   3.963   5.878  13.461  0.4959  0.3150 -0.8451
11633TIP3   OH256389   0.273   4.505  11.513 -0.3901 -0.5401 -0.3348
11633TIP3    H156390   0.210   4.433  11.507  1.5874 -2.5439  1.2341
11633TIP3    H256391   0.242   4.557  11.587 -0.5297 -1.2144  0.0945
11634TIP3   OH256392   1.391   2.322   0.550  0.2762 -0.2333  0.1655
11634TIP3    H156393   1.412   2.411   0.523  0.5940 -1.0303 -2.4247
11634TIP3    H256394   1.299   2.326   0.575  0.5039  0.9620  0.9069
11635TIP3   OH256395   1.818   0.043  13.372  0.2962  0.4082  0.2460
11635TIP3    H156396   1.726   0.025  13.388  0.3215  0.7752  0.8408
11635TIP3    H256397   1.846   0.095  13.447  0.8072  0.9031 -0.2720
11636TIP3   OH256398   6.703   1.538   4.155  0.2412 -0.5508 -0.2238
11636TIP3    H156399   6.652   1.468   4.195  2.9024 -1.9006  1.1307
11636TIP3    H256400   6.762   1.493   4.094 -0.3399  0.9514 -1.9817
11637TIP3   OH256401   6.044   2.580  15.250  0.6029  0.4157  0.2069
11637TIP3    H156402   5.972   2.520  15.232  1.5824 -0.4457 -1.0832
11637TIP3    H256403   6.047   2.587  15.345 -0.4144 -0.4834  0.3193
11638TIP3   OH256404   2.875   2.108   3.349 -0.1338 -0.1051  0.3051
11638TIP3    H156405   2.955   2.100   3.299 -0.6696 -0.9606 -0.4487
11638TIP3    H256406   2.859   2.021   3.385 -0.4256  0.1905  0.9352
11639TIP3   OH256407   4.327   6.768   3.427  0.6540 -0.5635  0.1688
11639TIP3    H156408   4.251   6.813   3.464  0.1700 -1.4132  0.2330
11639TIP3    H256409   4.400   6.794   3.483 -0.0613 -1.8004  1.7539
11640TIP3   OH256410   2.020   1.349   2.829  0.8807  0.2403  0.1564
11640TIP3    H156411   1.929   1.340   2.802  1.1027 -1.8500 -0.0939
11640TIP3    H256412   2.023   1.312   2.917  1.4149  0.7088  0.3421
11641TIP3   OH256413   3.942   6.693  15.570 -0.2041 -0.4345 -0.4551
11641TIP3    H156414   3.921   6.657  15.656  0.7693  2.1376  0.9864
11641TIP3    H256415   3.949   6.617  15.513 -1.2368 -2.2196  1.6361
11642TIP3   OH256416   0.762   2.293  11.030 -0.2461 -0.6571  0.3400
11642TIP3    H156417   0.785   2.364  10.970 -0.8643 -0.0989  0.7501
11642TIP3    H256418   0.805   2.215  10.993  2.9771  0.4109  1.4760
11643TIP3   OH256419   3.173   5.231  15.634  0.5859 -0.0068 -0.5069
11643TIP3    H156420   3.086   5.222  15.673  1.2925 -0.4966  1.0258
11643TIP3    H256421   3.175   5.163  15.566  0.5454 -1.5935  0.9904
11644TIP3   OH256422   0.837   0.697  12.424  0.2187 -0.0420 -0.4265
11644TIP3    H156423   0.754   0.660  12.454  0.5691  0.0579  0.7055
11644TIP3    H256424   0.824   0.792  12.427  0.3196 -0.0283 -0.4068
11645TIP3   OH256425   5.657   1.550  15.624  0.3934 -0.1040  0.4429
11645TIP3    H156426   5.576   1.550  15.573 -0.2319  1.8181  1.3071
11645TIP3    H256427   5.641   1.489  15.696 -0.5777  0.7326  0.9669
11646TIP3   OH256428   6.224   0.039   4.057  0.0212  0.0368 -0.0139
11646TIP3    H156429   6.219  -0.056   4.069  0.0805  0.1143  0.6750
11646TIP3    H256430   6.298   0.052   3.998 -0.0041 -0.3492 -0.1324
11647TIP3   OH256431   3.509   2.828  16.600  0.5848  0.1583  0.0202
11647TIP3    H156432   3.527   2.920  16.623 -1.4460  0.2821  1.4145
11647TIP3    H256433   3.565   2.811  16.525  2.6688  1.8584  1.0801
11648TIP3   OH256434   2.504   5.693   4.643  0.1663 -0.1232  0.2273
11648TIP3    H156435   2.561   5.738   4.580  1.0404  0.2125  1.2258
11648TIP3    H256436   2.424   5.745   4.644  0.2636  0.0498 -0.3795
11649TIP3   OH256437   4.942   5.759  14.853 -0.1075 -0.5249 -0.5620
11649TIP3    H156438   4.910   5.687  14.908 -2.2326  0.9010  0.1843
11649TIP3    H256439   4.886   5.757  14.776 -0.3043  0.4122 -0.4520
11650TIP3   OH256440   1.918   5.152  16.347 -0.2437  0.0102  0.0127
11650TIP3    H156441   1.920   5.105  16.431  0.0658  0.8697  0.4926
11650TIP3    H256442   1.950   5.240  16.368 -0.6305  0.3782 -0.9173
11651TIP3   OH256443   0.127   5.672  16.807  0.3480 -0.1923 -0.2180
11651TIP3    H156444   0.055   5.725  16.840  1.0601 -0.7536  2.5577
11651TIP3    H256445   0.085   5.598  16.764 -0.8204 -0.8238  1.8555
11652TIP3   OH256446   1.588   2.741  14.052  0.3941 -0.4265 -0.2475
11652TIP3    H156447   1.517   2.680  14.032 -0.4634  0.3691  0.3275
11652TIP3    H256448   1.548   2.828  14.045  1.7518  0.1333 -1.6999
11653TIP3   OH256449   1.250   0.795  15.792 -0.4565  0.0462  0.1240
11653TIP3    H156450   1.268   0.881  15.832  0.5788  0.1377 -0.4803
11653TIP3    H256451   1.294   0.799  15.707 -0.9921 -0.8366 -0.2072
11654TIP3   OH256452   0.433   0.437   2.034 -0.2097  0.2939 -0.7350
11654TIP3    H156453   0.346   0.403   2.055  0.0536 -1.0387 -1.6360
11654TIP3    H256454   0.429   0.456   1.940  0.6388 -0.3864 -0.9203
11655TIP3   OH256455   1.564   0.648  11.830 -0.6577 -0.2872 -0.0983
11655TIP3    H156456   1.498   0.718  11.828 -0.2003  0.1795  0.7150
11655TIP3    H256457   1.627   0.674  11.763 -0.8544 -0.3007 -0.2945
11656TIP3   OH256458   4.261   5.755  12.442  0.1348 -0.4641 -0.0952
11656TIP3    H156459   4.356   5.755  12.458 -0.1868  0.0100  2.1502
11656TIP3    H256460   4.227   5.826  12.497 -1.3496  0.6188 -2.2932
11657TIP3   OH256461   0.827   3.200   3.524 -0.3479  0.0545 -0.4406
11657TIP3    H156462   0.799   3.226   3.611 -1.2458  2.1147 -1.2860
11657TIP3    H256463   0.922   3.209   3.525 -0.4499  1.1951 -0.0099
11658TIP3   OH256464   6.379   0.894  11.591  0.3839  0.0836  0.0536
11658TIP3    H156465   6.349   0.970  11.642  0.0187 -1.1668  1.8231
11658TIP3    H256466   6.471   0.884  11.616  0.1542 -0.6446  0.6622
11659TIP3   OH256467   1.634   5.296  15.381 -0.1165 -0.4996  0.6650
11659TIP3    H156468   1.624   5.302  15.286 -2.9721 -0.6294  0.8710
11659TIP3    H256469   1.728   5.282  15.394  0.6653  1.3839 -1.9920
11660TIP3   OH256470   0.578   5.633  15.778  0.0046 -0.1810  0.6737
11660TIP3    H156471   0.545   5.703  15.722  1.0721 -0.5068 -0.3994
11660TIP3    H256472   0.500   5.582  15.801 -0.5939  0.6092  0.4113
11661TIP3   OH256473   5.054   4.975   2.393  0.6002 -0.2044  0.2805
11661TIP3    H156474   4.993   4.916   2.438 -2.8760  1.6896 -1.4827
11661TIP3    H256475   5.063   5.050   2.451  0.7763 -0.2224  0.2778
11662TIP3   OH256476   5.015   3.908   3.457 -0.5893  0.3682 -0.4206
11662TIP3    H156477   5.052   3.979   3.404 -0.7664  0.8782  0.1330
11662TIP3    H256478   4.925   3.935   3.473 -0.6194  0.0746 -0.0974
11663TIP3   OH256479   5.860   2.823   4.898 -0.0636 -0.1015  0.4903
11663TIP3    H156480   5.940   2.875   4.900 -0.1004 -0.0538  2.4228
11663TIP3    H256481   5.827   2.826   4.988 -2.4420  0.1788 -0.3148
11664TIP3   OH256482   3.842   6.421  14.178 -0.4717  0.1693 -0.5635
11664TIP3    H156483   3.778   6.426  14.108 -1.3019 -0.4488  0.1319
11664TIP3    H256484   3.799   6.371  14.248  0.6130  0.0766  0.0789
11665TIP3   OH256485   3.206   5.438   3.823 -0.3561  0.3367  0.8727
11665TIP3    H156486   3.294   5.404   3.838 -0.1444  0.0253 -0.9692
11665TIP3    H256487   3.191   5.496   3.898  1.8870  1.3457  0.6346
11666TIP3   OH256488   3.345   3.774   0.832  0.3155 -0.5925  0.0431
11666TIP3    H156489   3.340   3.846   0.770  1.5648  0.2448  0.8596
11666TIP3    H256490   3.266   3.722   0.816  0.7885 -0.6441 -2.4858
11667TIP3   OH256491   0.763   1.820  12.767  0.0253  0.5176 -0.0786
11667TIP3    H156492   0.725   1.819  12.679  1.1847  0.0278 -0.6012
11667TIP3    H256493   0.788   1.911  12.781 -0.4276  0.6526 -0.1320
11668TIP3   OH256494   0.069   5.201  13.482 -0.1703  0.6514 -0.0179
11668TIP3    H156495   0.008   5.127  13.475  0.9846 -0.2243 -1.4938
11668TIP3    H256496   0.022   5.275  13.444 -0.7123  0.2608 -0.1212
11669TIP3   OH256497   1.788   1.543   0.163  0.0567  0.2351 -0.1169
11669TIP3    H156498   1.727   1.481   0.203  0.5377 -0.2446 -0.1121
11669TIP3    H256499   1.733   1.615   0.135 -0.3790  0.3049  0.8563
11670TIP3   OH256500   6.530   1.336  17.006 -0.4115  0.0511 -0.2338
11670TIP3    H156501   6.499   1.372  16.923  1.2133  0.3902 -0.7247
11670TIP3    H256502   6.594   1.270  16.981  1.1547  1.1411  0.7260
11671TIP3   OH256503   2.342   6.211  13.576 -0.3254 -0.2829 -0.1085
11671TIP3    H156504   2.265   6.220  13.521 -0.4259  0.3009  0.1191
11671TIP3    H256505   2.309   6.218  13.666 -0.1793 -1.3221  0.0449
11672TIP3   OH256506   5.019   6.014  14.615 -0.8442  0.1460  0.3309
11672TIP3    H156507   5.046   5.933  14.570 -1.3447 -0.4452  1.0623
11672TIP3    H256508   4.960   6.057  14.554 -0.0347  0.3200 -0.3554
11673TIP3   OH256509   4.052   5.121   1.393 -0.1505  0.5399 -0.3831
11673TIP3    H156510   4.064   5.031   1.362 -0.4250  0.6524 -0.8406
11673TIP3    H256511   4.138   5.162   1.382 -0.2656  0.6083 -1.1353
11674TIP3   OH256512   1.121   5.465  17.041 -0.3346  0.5478 -0.6459
11674TIP3    H156513   1.042   5.514  17.063 -1.1624 -1.5099  1.3575
11674TIP3    H256514   1.090   5.387  16.995  0.4712 -0.2621  0.1146
11675TIP3   OH256515   2.017   5.263   0.998 -0.1404  0.3226 -0.1203
11675TIP3    H156516   2.094   5.216   1.029  1.1963  1.9968 -0.7247
11675TIP3    H256517   2.035   5.355   1.018 -1.4776  0.8948 -1.2958
11676TIP3   OH256518   5.493   6.655   2.398 -0.4460 -0.4256 -0.3145
11676TIP3    H156519   5.577   6.612   2.387 -0.7533 -1.7298  2.0147
11676TIP3    H256520   5.464   6.632   2.486 -3.5549 -0.5546 -1.2419
11677TIP3   OH256521   2.230   0.154  12.866  0.3979  0.0266 -0.9069
11677TIP3    H156522   2.224   0.148  12.770  0.5082  1.2513 -0.9999
11677TIP3    H256523   2.243   0.247  12.883 -0.6509 -0.0376  0.3548
11678TIP3   OH256524   3.276   5.741  11.867  0.3051  0.2010  0.4109
11678TIP3    H156525   3.285   5.826  11.910 -3.2944 -0.1263  2.1294
11678TIP3    H256526   3.293   5.677  11.937  0.0596 -0.4605 -0.1257
11679TIP3   OH256527   2.045   0.147   2.840  0.1954 -0.5984 -0.0403
11679TIP3    H156528   2.107   0.207   2.881 -2.2153  1.0211  1.4317
11679TIP3    H256529   2.066   0.061   2.878  0.5749  0.1770  1.5653
11680TIP3   OH256530   1.202   4.105   3.872 -0.1671  0.2857 -0.3508
11680TIP3    H156531   1.270   4.128   3.808  0.1623 -0.3674 -0.2467
11680TIP3    H256532   1.161   4.188   3.894 -0.2475  0.5307 -1.3714
11681TIP3   OH256533   2.205   5.646  13.083  0.1381  0.1347 -0.6398
11681TIP3    H156534   2.113   5.623  13.094  0.4901 -0.7101  0.7354
11681TIP3    H256535   2.220   5.641  12.989 -1.2100  0.2603 -0.8767
11682TIP3   OH256536   2.723   2.867  12.106  0.4500 -0.0816  0.0021
11682TIP3    H156537   2.802   2.814  12.112  0.2281 -0.3079  1.2395
11682TIP3    H256538   2.749   2.952  12.141  0.4746  0.2563 -0.8103
11683TIP3   OH256539   0.746   4.130   0.570 -0.0358 -0.4366  0.0785
11683TIP3    H156540   0.736   4.118   0.475 -1.4064 -0.9153  0.2584
11683TIP3    H256541   0.677   4.077   0.608  0.5691 -0.3363  1.3689
11684TIP3   OH256542   3.316   0.624   5.671  0.1552  0.0638  0.0578
11684TIP3    H156543   3.389   0.675   5.637  1.8055 -1.2183  1.4828
11684TIP3    H256544   3.317   0.544   5.619  0.9436 -0.7213  1.2465
11685TIP3   OH256545   3.183   1.863   4.085 -0.2816  0.2471 -0.4875
11685TIP3    H156546   3.212   1.779   4.049 -0.6163  0.4449 -1.2442
11685TIP3    H256547   3.213   1.862   4.175  3.5472  1.0881 -1.5648
11686TIP3   OH256548   3.496   5.424   3.746  0.0917  0.4795  0.4183
11686TIP3    H156549   3.575   5.423   3.800 -0.2646 -0.6767  0.9456
11686TIP3    H256550   3.528   5.406   3.657  0.8895  3.9945 -0.1479
11687TIP3   OH256551   3.848   1.502   5.259 -0.0200 -0.5435  0.3037
11687TIP3    H156552   3.760   1.513   5.293  0.9168  1.6906  2.2520
11687TIP3    H256553   3.855   1.566   5.188 -0.2179 -1.3943 -0.5151
11688TIP3   OH256554   1.704   5.481   1.927  0.3834 -0.8146  0.1558
11688TIP3    H156555   1.650   5.402   1.929 -0.0586 -0.5029  0.8210
11688TIP3    H256556   1.756   5.477   2.007  1.0968 -0.9315 -0.3050
11689TIP3   OH256557   3.628   1.166   3.660  0.4052 -0.4055 -0.1525
11689TIP3    H156558   3.551   1.222   3.649  0.6836  0.3350  1.3442
11689TIP3    H256559   3.689   1.220   3.711  1.5564 -1.2993 -0.5513
11690TIP3   OH256560   6.776   5.443  11.588 -0.2368 -0.4740 -0.0425
11690TIP3    H156561   6.774   5.485  11.502 -1.2477 -1.6237 -0.6102
11690TIP3    H256562   6.777   5.350  11.569 -1.1354 -0.7558  1.1982
11691TIP3   OH256563   1.898   3.535   5.725 -0.0385  0.3459  0.3089
11691TIP3    H156564   1.859   3.620   5.708 -0.2037  0.6425  2.0110
11691TIP3    H256565   1.872   3.514   5.815  0.0957 -1.4468 -0.0354
11692TIP3   OH256566   6.050   3.574  14.420 -0.2455  0.4982 -0.4375
11692TIP3    H156567   6.038   3.665  14.391 -0.9128  0.5235 -0.1095
11692TIP3    H256568   5.981   3.526  14.375 -1.2871  0.5363  1.0623
11693TIP3   OH256569   3.326   1.867   4.614  0.1188 -0.1013 -0.0653
11693TIP3    H156570   3.323   1.772   4.604 -2.2518 -0.2559  1.2892
11693TIP3    H256571   3.358   1.882   4.702  0.3797  0.3557 -0.2319
11694TIP3   OH256572   1.010   4.969   3.224 -0.2553 -0.0151 -0.5796
11694TIP3    H156573   0.990   4.962   3.317 -1.0803  1.6413 -0.6003
11694TIP3    H256574   1.104   4.953   3.219  0.0407  1.1351  0.7202
11695TIP3   OH256575   2.329   2.654   4.083  0.1205 -0.0805 -0.4049
11695TIP3    H156576   2.422   2.633   4.082  0.2020 -0.1190  2.1565
11695TIP3    H256577   2.326   2.750   4.077  0.1743 -0.1474 -2.3046
11696TIP3   OH256578   5.701   4.670  16.211  0.0043 -0.1925 -0.2755
11696TIP3    H156579   5.625   4.718  16.244  0.5032  0.6697 -0.3759
11696TIP3    H256580   5.694   4.677  16.116 -0.8409 -1.7670 -0.3647
11697TIP3   OH256581   4.700   3.466   3.628 -0.4165  0.3048  0.0575
11697TIP3    H156582   4.781   3.473   3.678 -0.5254  3.7181  0.0055
11697TIP3    H256583   4.644   3.409   3.680  1.7004 -1.6507  0.3943
11698TIP3   OH256584   1.979   0.325  13.618 -0.2770 -0.8941 -0.5366
11698TIP3    H156585   1.954   0.235  13.641 -1.1065 -0.9035 -1.3914
11698TIP3    H256586   1.941   0.379  13.687 -0.5796 -1.1293 -0.5132
11699TIP3   OH256587   5.970   4.216  13.047  0.4177 -0.4813 -0.3949
11699TIP3    H156588   5.885   4.173  13.042 -0.7530  1.6869 -0.1005
11699TIP3    H256589   6.032   4.150  13.016 -1.3554 -2.0900 -0.6761
11700TIP3   OH256590   3.296   5.232   1.080 -0.2268  0.4672 -0.2509
11700TIP3    H156591   3.271   5.186   0.999 -0.6982 -0.1778  0.2481
11700TIP3    H256592   3.233   5.304   1.086  1.3152  2.0187 -1.7149
11701TIP3   OH256593   0.943   3.045   3.280 -0.1733  0.4320 -1.0206
11701TIP3    H156594   0.916   3.057   3.371 -1.5891 -0.8209 -1.2361
11701TIP3    H256595   1.031   3.083   3.276 -0.0356  0.4235  0.8925
11702TIP3   OH256596   1.371   6.456   1.943 -0.1334 -0.4048  0.0062
11702TIP3    H156597   1.446   6.484   1.995  0.8294 -2.3087 -0.2565
11702TIP3    H256598   1.335   6.537   1.908  0.0066  0.8218  2.4752
11703TIP3   OH256599   1.742   6.473  17.064  0.1903  0.1813  0.6437
11703TIP3    H156600   1.822   6.519  17.088  0.3127 -0.2222  1.0120
11703TIP3    H256601   1.695   6.534  17.006  0.2283  0.8711  1.3325
11704TIP3   OH256602   2.972   3.400  12.658 -0.5276  0.1082 -0.5085
11704TIP3    H156603   2.980   3.425  12.566  0.4460 -0.1175 -0.4885
11704TIP3    H256604   2.877   3.393  12.672 -0.7318  1.2605 -1.1889
11705TIP3   OH256605   4.493   5.479   3.159  0.4092 -0.2604  0.6171
11705TIP3    H156606   4.578   5.501   3.196  0.0563  2.6798 -0.0521
11705TIP3    H256607   4.508   5.471   3.065 -0.0389  0.3915  0.4816
11706TIP3   OH256608   6.616   6.204   5.727 -0.3026  0.0832  0.1340
11706TIP3    H156609   6.694   6.149   5.736 -0.5498 -0.5130 -1.1336
11706TIP3    H256610   6.638   6.266   5.658 -1.6110 -1.3556 -1.6469
11707TIP3   OH256611   2.901   1.905  14.086 -0.3285  0.2343 -1.1228
11707TIP3    H156612   2.869   1.995  14.091 -0.0579  0.2745  0.6143
11707TIP3    H256613   2.994   1.911  14.110 -0.7248 -0.6754  0.8118
11708TIP3   OH256614   1.013   0.662  16.147  0.1107 -0.2310 -1.0003
11708TIP3    H156615   0.997   0.682  16.055 -0.1901 -0.2671 -0.9561
11708TIP3    H256616   1.108   0.655  16.154  0.1497  0.0555 -1.2501
11709TIP3   OH256617   0.439   2.897   2.376  0.1867  0.0864 -0.2457
11709TIP3    H156618   0.400   2.984   2.386  1.0755  0.3683  0.9932
11709TIP3    H256619   0.483   2.881   2.459  0.3643 -1.3948 -0.6025
11710TIP3   OH256620   6.345   3.540   2.554  0.1148 -0.5470  0.0190
11710TIP3    H156621   6.359   3.578   2.467  0.4324 -1.3151 -0.2801
11710TIP3    H256622   6.250   3.542   2.567  0.2150  2.4514  1.0088
11711TIP3   OH256623   2.364   0.232  12.412 -0.4125 -0.5587  0.2214
11711TIP3    H156624   2.386   0.314  12.367 -0.4796 -1.1777 -0.9845
11711TIP3    H256625   2.448   0.188  12.424 -0.3539 -0.2500  1.0419
11712TIP3   OH256626   1.929   1.194   1.666 -0.7571 -0.2705  0.1240
11712TIP3    H156627   1.889   1.271   1.705  2.1710  1.8535 -0.6711
11712TIP3    H256628   1.860   1.128   1.664 -2.9894  1.8315  2.1925
11713TIP3   OH256629   3.837   0.808  13.136  0.1797 -0.6981 -0.6239
11713TIP3    H156630   3.786   0.749  13.190 -0.0123 -0.8794 -0.9985
11713TIP3    H256631   3.914   0.758  13.110  1.1349 -0.0683  0.8523
11714TIP3   OH256632   2.953   6.002  17.001 -0.0825 -0.0894  0.1264
11714TIP3    H156633   2.991   5.965  17.081  0.7520 -0.5537 -0.4652
11714TIP3    H256634   2.866   5.960  16.994  1.0515 -2.5172 -0.8324
11715TIP3   OH256635   5.607   5.881   1.289  0.0466 -0.4047 -0.3453
11715TIP3    H156636   5.536   5.817   1.287 -0.4905  0.1389  0.7360
11715TIP3    H256637   5.604   5.919   1.377  1.2654  0.0922 -0.4906
11716TIP3   OH256638   4.101   4.884   5.920  0.5067 -0.2137  0.3845
11716TIP3    H156639   4.143   4.946   5.861  2.6533 -1.2224  0.7427
11716TIP3    H256640   4.071   4.938   5.994 -0.5659  0.7947 -0.7511
11717TIP3   OH256641   2.728   3.739   3.635 -0.1238  0.1986  0.2184
11717TIP3    H156642   2.759   3.724   3.725  1.0293 -0.5739 -0.2831
11717TIP3    H256643   2.791   3.800   3.598 -0.4120  0.2616 -0.1710
11718TIP3   OH256644   5.893   0.874   6.255  1.1111 -0.0885 -0.0644
11718TIP3    H156645   5.904   0.791   6.302  3.9141  0.1190 -0.1755
11718TIP3    H256646   5.935   0.858   6.170  0.7380  1.1306 -0.4914
11719TIP3   OH256647   3.380   3.188   1.420 -0.2502 -0.7170  0.0398
11719TIP3    H156648   3.436   3.264   1.407 -2.2137  0.9523  0.7851
11719TIP3    H256649   3.338   3.174   1.335 -1.3842  0.3548  0.3895
11720TIP3   OH256650   5.267   0.876  14.470  0.1549  0.4209 -0.0529
11720TIP3    H156651   5.177   0.870  14.504  0.3346 -1.8919  0.2003
11720TIP3    H256652   5.314   0.807  14.516  1.5491  0.2082 -1.7040
11721TIP3   OH256653   5.888   0.978   4.380  0.3118 -0.2279  0.0345
11721TIP3    H156654   5.875   0.901   4.436  1.7372 -1.6093 -1.4387
11721TIP3    H256655   5.799   1.009   4.362 -0.2633 -1.0647  1.2665
11722TIP3   OH256656   6.571   4.229  16.614 -0.0302 -0.0393  0.2620
11722TIP3    H156657   6.544   4.141  16.587  3.3524 -1.4858  1.0942
11722TIP3    H256658   6.538   4.286  16.545  0.3898 -2.3735 -2.0356
11723TIP3   OH256659   3.453   4.287  14.660 -0.1555 -0.0500  0.5628
11723TIP3    H156660   3.375   4.237  14.634  0.0833 -0.5264  0.7539
11723TIP3    H256661   3.486   4.324  14.578 -2.0553  2.3414  0.7719
11724TIP3   OH256662   2.578   1.776  11.098 -0.0608 -0.2489 -0.2359
11724TIP3    H156663   2.543   1.829  11.025  1.9992 -0.7549 -1.6922
11724TIP3    H256664   2.501   1.739  11.140 -1.3869  1.0053 -1.4380
11725TIP3   OH256665   2.809   3.174   0.971  0.0246  0.3129 -0.3116
11725TIP3    H156666   2.766   3.219   0.898 -0.1776 -0.6412 -0.8109
11725TIP3    H256667   2.777   3.084   0.965  0.1073  0.1904  0.8915
11726TIP3   OH256668   3.018   3.057   3.891  0.0635 -0.2385 -0.1657
11726TIP3    H156669   3.080   3.009   3.837 -1.1090 -0.6086 -1.2530
11726TIP3    H256670   2.940   3.065   3.836 -0.4311  1.2791  0.6815
11727TIP3   OH256671   5.207   4.986  13.029 -0.0794 -0.2769 -0.4582
11727TIP3    H156672   5.284   5.039  13.048  0.8391 -1.9417  0.6593
11727TIP3    H256673   5.229   4.899  13.060 -1.7891 -1.1936 -1.6500
11728TIP3   OH256674   0.763   6.328   1.928 -0.2855 -0.0182 -0.5116
11728TIP3    H156675   0.820   6.345   2.002 -0.3794 -2.6232  0.2575
11728TIP3    H256676   0.684   6.380   1.945  1.1666  2.4482 -0.8444
11729TIP3   OH256677   1.571   2.291   3.311 -0.0792  0.3689 -0.3766
11729TIP3    H156678   1.476   2.285   3.316 -0.2665  1.0189 -2.3193
11729TIP3    H256679   1.589   2.306   3.218  1.8664  1.1830  0.0850
11730TIP3   OH256680   1.615   4.503  15.436 -0.0978 -0.2214 -0.0067
11730TIP3    H156681   1.570   4.547  15.508  0.1558  1.6660 -0.9181
11730TIP3    H256682   1.708   4.508  15.460 -0.0275  0.2549 -0.3535
11731TIP3   OH256683   4.114   0.270   0.227 -0.1348  0.1417  0.4441
11731TIP3    H156684   4.049   0.242   0.162 -0.8649 -0.2353  1.3175
11731TIP3    H256685   4.109   0.204   0.296  1.5968 -0.1999  0.2733
11732TIP3   OH256686   4.189   6.387  16.142 -0.5285 -0.3987 -0.0817
11732TIP3    H156687   4.144   6.422  16.064 -1.5373  1.4563  1.2559
11732TIP3    H256688   4.120   6.344  16.191 -0.0346 -0.9670  0.1146
11733TIP3   OH256689   1.673   2.242   1.566 -0.3200  0.8251 -0.6686
11733TIP3    H156690   1.604   2.208   1.623 -0.1503  1.2467 -0.2045
11733TIP3    H256691   1.637   2.234   1.478 -1.3459  1.8971 -0.3701
11734TIP3   OH256692   1.874   5.347  13.814 -0.4011  0.3547  0.3860
11734TIP3    H156693   1.825   5.403  13.875 -2.8879 -1.9951  0.6936
11734TIP3    H256694   1.901   5.407  13.744  0.7266  2.7180  2.6508
11735TIP3   OH256695   5.405   0.093  13.658 -0.3148  0.3031  0.5289
11735TIP3    H156696   5.431   0.001  13.668  1.5059  0.7871  0.6940
11735TIP3    H256697   5.372   0.119  13.744 -1.0047 -0.2320  0.4323
11736TIP3   OH256698   0.236   6.567   0.675  0.6042  0.9273 -0.5791
11736TIP3    H156699   0.163   6.601   0.727 -0.0006 -0.9283 -0.1321
11736TIP3    H256700   0.314   6.603   0.717  0.0023  1.7588 -0.1512
11737TIP3   OH256701   5.110   3.437  10.817 -0.4153 -0.2953 -0.0631
11737TIP3    H156702   5.202   3.422  10.795 -0.3318  0.5593 -0.3414
11737TIP3    H256703   5.065   3.358  10.788  0.2542 -0.7980  0.2414
11738TIP3   OH256704   6.676   6.532  13.854 -0.2138 -0.4231 -0.9765
11738TIP3    H156705   6.766   6.502  13.850 -0.6291 -2.0100  0.3582
11738TIP3    H256706   6.678   6.605  13.916  0.4002  0.7068 -2.2891
11739TIP3   OH256707   4.859   2.542   5.671 -0.0111 -0.5481  0.5678
11739TIP3    H156708   4.810   2.481   5.727 -2.1686  0.1602 -0.4338
11739TIP3    H256709   4.824   2.527   5.583  0.5038  1.0448  0.0592
11740TIP3   OH256710   1.387   1.538  10.600  0.2415 -0.1028  0.5117
11740TIP3    H156711   1.333   1.581  10.667  0.6194 -0.6449  1.1779
11740TIP3    H256712   1.476   1.565  10.619  0.4762 -1.1308  0.9080
11741TIP3   OH256713   5.479   6.762  12.436 -0.2647 -0.7593  0.0957
11741TIP3    H156714   5.482   6.679  12.483  0.2364 -1.0543 -0.4520
11741TIP3    H256715   5.553   6.812  12.470 -0.3029 -0.7092  0.1058
11742TIP3   OH256716   6.827   0.953  11.936 -0.1895 -0.0159 -0.0557
11742TIP3    H156717   6.840   0.995  11.851  0.4093 -1.4975 -0.7308
11742TIP3    H256718   6.829   1.025  11.999 -1.5301  1.2242 -1.3519
11743TIP3   OH256719   3.168   0.940   3.754 -0.2611  0.2078 -0.1334
11743TIP3    H156720   3.107   1.010   3.728 -0.7422 -0.0780  0.1957
11743TIP3    H256721   3.125   0.859   3.725 -0.1107 -0.0078  0.2359
11744TIP3   OH256722   4.619   6.643   2.922 -0.5173  0.6231 -0.4511
11744TIP3    H156723   4.637   6.674   3.011  3.2580  1.5323 -1.3408
11744TIP3    H256724   4.573   6.715   2.880  0.6721  1.6218 -0.1123
11745TIP3   OH256725   5.621   3.877   5.806 -0.0692 -0.0258  0.3965
11745TIP3    H156726   5.666   3.878   5.890  0.2618 -1.2358  0.2574
11745TIP3    H256727   5.681   3.830   5.747 -0.8826 -0.3892 -0.1658
11746TIP3   OH256728   0.664   0.774  12.123  0.1836 -0.6462 -0.4641
11746TIP3    H156729   0.634   0.864  12.131 -0.7960 -0.7614 -2.2293
11746TIP3    H256730   0.730   0.776  12.053 -0.1044 -1.3387 -0.7720
11747TIP3   OH256731   4.489   3.863  16.850 -0.1735  0.0006 -0.5666
11747TIP3    H156732   4.582   3.853  16.832 -0.3174 -1.2672 -0.6897
11747TIP3    H256733   4.460   3.776  16.877 -1.3256  0.3761 -0.5358
11748TIP3   OH256734   5.108   0.141  12.546 -0.3338 -0.3749 -0.2809
11748TIP3    H156735   5.185   0.165  12.597  0.4191  0.4497 -1.7376
11748TIP3    H256736   5.034   0.176  12.597  0.2603 -0.8619  0.9534
11749TIP3   OH256737   2.112   5.745  13.967 -0.1671  0.4847  0.3006
11749TIP3    H156738   2.183   5.804  13.945 -0.6309  1.0231  0.2289
11749TIP3    H256739   2.072   5.722  13.883  0.7516 -0.9035  0.2042
11750TIP3   OH256740   3.296   4.579  11.033  0.0765 -0.6432  0.6384
11750TIP3    H156741   3.283   4.594  10.939 -1.7109 -0.5732  0.8553
11750TIP3    H256742   3.388   4.553  11.041  0.3857 -0.1976 -1.0644
11751TIP3   OH256743   4.710   5.738  11.454  0.5447 -0.5466  0.1088
11751TIP3    H156744   4.640   5.675  11.472  0.3776 -0.0028  1.4040
11751TIP3    H256745   4.749   5.706  11.372 -0.0279 -1.9013  0.3275
11752TIP3   OH256746   5.883   3.936  14.116 -0.3439 -0.0464  0.1591
11752TIP3    H156747   5.823   3.904  14.048  1.5574 -1.9023 -0.7554
11752TIP3    H256748   5.861   4.029  14.126 -2.4176 -0.3394 -1.1051
11753TIP3   OH256749   1.117   3.284   2.461 -0.3120 -0.2706  0.1790
11753TIP3    H156750   1.095   3.364   2.508 -0.7525  1.6381 -2.9469
11753TIP3    H256751   1.118   3.216   2.527 -1.4061  2.0574  2.7638
11754TIP3   OH256752   0.352   1.421  14.767  1.2440 -0.0279 -0.2912
11754TIP3    H156753   0.403   1.487  14.720  1.5064 -0.0982 -0.1070
11754TIP3    H256754   0.297   1.471  14.827  1.4021  0.0238 -0.1903
11755TIP3   OH256755   5.000   1.508  15.826  0.0339  0.3987 -0.3767
11755TIP3    H156756   4.968   1.433  15.775  0.5334 -1.7033  2.2189
11755TIP3    H256757   5.076   1.475  15.873 -1.3434  1.6263  3.0114
11756TIP3   OH256758   2.304   1.297  12.008 -0.2725  0.4494 -0.4450
11756TIP3    H156759   2.271   1.209  12.028 -2.2342  1.3172  0.5468
11756TIP3    H256760   2.254   1.354  12.068 -0.9339  2.4859 -2.7811
11757TIP3   OH256761   0.553   2.723   5.559  0.3365  0.1614  0.1230
11757TIP3    H156762   0.533   2.794   5.498 -1.5879 -0.7876 -0.4407
11757TIP3    H256763   0.615   2.667   5.512 -0.9684 -0.4526 -0.9433
11758TIP3   OH256764   5.806   1.445   5.162 -0.1785  0.0916  0.6440
11758TIP3    H156765   5.738   1.453   5.095  0.9862  0.6908 -0.5325
11758TIP3    H256766   5.815   1.533   5.198  0.2601  0.1254  0.4668
11759TIP3   OH256767   4.470   2.844  14.822  0.3902 -0.0900 -0.0469
11759TIP3    H156768   4.448   2.883  14.907  0.1671 -0.7090  0.1878
11759TIP3    H256769   4.401   2.779  14.807  0.7689 -0.4166 -0.4144
11760TIP3   OH256770   5.047   6.484   4.534  0.3945 -0.2158 -0.6631
11760TIP3    H156771   5.092   6.404   4.563 -1.1468 -0.3051  1.7654
11760TIP3    H256772   5.108   6.555   4.554  0.4303 -0.5306  0.3875
11761TIP3   OH256773   1.203   5.117  13.631 -0.6943  0.5076  0.2367
11761TIP3    H156774   1.161   5.145  13.712  1.0703  1.9359  0.7408
11761TIP3    H256775   1.262   5.047  13.658 -1.6610 -0.5166 -0.2252
11762TIP3   OH256776   2.396   6.556  13.820 -0.3123  0.1008 -0.2017
11762TIP3    H156777   2.480   6.555  13.865 -1.0783 -1.0544  1.2801
11762TIP3    H256778   2.395   6.475  13.768 -0.0270  0.7141 -1.1823
11763TIP3   OH256779   5.386   1.070   4.740  0.1596 -0.7581  0.3400
11763TIP3    H156780   5.401   1.101   4.650 -2.9892  0.0053 -0.0389
11763TIP3    H256781   5.327   0.996   4.730 -2.0128  0.6695  1.8108
11764TIP3   OH256782   3.160   0.700  16.777  0.0309  0.3349 -0.3872
11764TIP3    H156783   3.095   0.720  16.844  1.1285  1.8266  0.2935
11764TIP3    H256784   3.119   0.633  16.723 -2.4516  1.8536 -0.5485
11765TIP3   OH256785   1.972   6.769   0.364  0.0827 -0.0806  0.1414
11765TIP3    H156786   2.017   6.727   0.437 -0.5050 -0.3727  0.3433
11765TIP3    H256787   2.041   6.785   0.299  0.9079  1.6254  1.3842
11766TIP3   OH256788   5.078   4.412  11.026 -0.2520 -0.0873  0.0216
11766TIP3    H156789   5.137   4.487  11.029  0.9075 -0.9017 -1.1335
11766TIP3    H256790   5.123   4.344  11.076 -1.1223 -0.1294  0.7602
11767TIP3   OH256791   0.722   4.902  14.610  0.2541  0.1571 -0.0392
11767TIP3    H156792   0.639   4.874  14.648  0.4632  0.6597  0.8225
11767TIP3    H256793   0.697   4.963  14.540 -0.1043  0.5515  0.4218
11768TIP3   OH256794   4.917   3.309  12.952  0.3319  0.1882 -0.1958
11768TIP3    H156795   4.897   3.216  12.946  0.6310  0.0288  1.0643
11768TIP3    H256796   5.010   3.313  12.970  0.2835  0.7310 -0.0537
11769TIP3   OH256797   4.644   4.680  12.088 -0.1704  0.1785  0.4466
11769TIP3    H156798   4.715   4.704  12.146  0.7479 -0.3666 -0.4189
11769TIP3    H256799   4.687   4.653  12.007 -1.3838  0.3320 -0.2777
11770TIP3   OH256800   1.061   5.006  14.080  0.5087  0.0721  0.3568
11770TIP3    H156801   1.051   4.950  14.157  2.6393 -1.5019 -0.4005
11770TIP3    H256802   1.010   4.962  14.011  0.3189  0.3154  0.3425
11771TIP3   OH256803   1.892   5.620   4.319  0.0658  0.1309 -0.3996
11771TIP3    H156804   1.900   5.632   4.224  0.7066  0.9686 -0.2476
11771TIP3    H256805   1.799   5.635   4.337  0.0976  0.8337 -0.7821
11772TIP3   OH256806   2.430   6.273  16.542 -0.3650 -0.1226 -0.4511
11772TIP3    H156807   2.388   6.338  16.486 -1.3471 -1.1776 -0.9688
11772TIP3    H256808   2.384   6.280  16.626  0.3077  0.6208 -0.1188
11773TIP3   OH256809   2.547   5.973   3.686 -0.2608 -0.7680 -0.6058
11773TIP3    H156810   2.620   5.989   3.745 -1.0449  0.6168  0.0355
11773TIP3    H256811   2.583   5.915   3.619  1.3676 -0.2785 -0.2019
11774TIP3   OH256812   5.030   1.856  14.620  0.3416 -0.1608  0.4460
11774TIP3    H156813   5.021   1.776  14.567  0.4964 -0.3820  0.7509
11774TIP3    H256814   5.114   1.893  14.594 -0.6109  1.0155 -1.1923
11775TIP3   OH256815   1.578   3.740   0.342 -0.1114 -0.0264  0.7737
11775TIP3    H156816   1.623   3.657   0.356 -0.6200 -0.5890 -0.6965
11775TIP3    H256817   1.552   3.769   0.430  0.5486 -1.1411  1.3515
11776TIP3   OH256818   0.623   3.683   2.090 -0.0111  0.3349  0.3269
11776TIP3    H156819   0.693   3.710   2.031  0.7911 -0.3127  0.9582
11776TIP3    H256820   0.659   3.609   2.139 -1.7795 -1.2564 -0.6367
11777TIP3   OH256821   4.061   0.188  15.154 -0.8070 -0.5857 -0.2123
11777TIP3    H156822   4.120   0.124  15.193 -1.6811 -1.7620 -0.7726
11777TIP3    H256823   4.116   0.234  15.090  0.5712  1.1829  2.0837
11778TIP3   OH256824   5.279   4.467   6.199  0.3191 -0.1433 -0.3001
11778TIP3    H156825   5.243   4.528   6.264  0.7436 -1.0152  0.7975
11778TIP3    H256826   5.368   4.451   6.228  0.1790 -1.3844 -0.4727
11779TIP3   OH256827   0.321   0.897  13.556  0.3372  0.6271 -0.3047
11779TIP3    H156828   0.402   0.884  13.506  1.0773  0.7165  0.8297
11779TIP3    H256829   0.347   0.950  13.631 -1.0343  1.7136 -0.5514
11780TIP3   OH256830   4.163   2.417   3.469  0.6944 -0.0381 -0.3489
11780TIP3    H156831   4.105   2.349   3.503 -0.3180  1.2256  0.5515
11780TIP3    H256832   4.179   2.475   3.544  1.2681  0.8878 -1.1581
11781TIP3   OH256833   0.194   5.479   0.961  0.4072 -0.2148  0.1061
11781TIP3    H156834   0.232   5.437   1.038  0.7327  2.0173  1.2396
11781TIP3    H256835   0.170   5.566   0.991 -1.2241  0.0762 -1.8572
11782TIP3   OH256836   4.870   3.578  11.996  0.6053  0.9790  0.2758
11782TIP3    H156837   4.917   3.647  12.043 -2.0633  2.7473  0.5926
11782TIP3    H256838   4.842   3.517  12.063 -1.0984  2.2073  0.7591
11783TIP3   OH256839   0.572   1.929  10.915  0.5724 -0.1535  0.4876
11783TIP3    H156840   0.487   1.972  10.911 -0.4267 -2.0303  0.4736
11783TIP3    H256841   0.623   1.969  10.846 -0.1932  1.2076  0.6824
11784TIP3   OH256842   3.112   6.220  17.030 -0.0392 -0.3420 -0.4162
11784TIP3    H156843   3.195   6.173  17.041 -0.2739 -0.2952  1.9866
11784TIP3    H256844   3.047   6.151  17.014  0.3699 -0.3942 -2.0613
11785TIP3   OH256845   5.021   3.297  11.435 -0.4731 -0.4524 -0.3275
11785TIP3    H156846   5.083   3.254  11.494  1.2395  0.9098 -1.0044
11785TIP3    H256847   4.951   3.328  11.492  1.0716  0.7416  1.0283
11786TIP3   OH256848   6.625   2.236   0.286  0.4059  0.5949  0.3612
11786TIP3    H156849   6.607   2.149   0.250 -1.1509  0.4606  1.3904
11786TIP3    H256850   6.714   2.255   0.257  1.3977 -1.9953  1.3891
11787TIP3   OH256851   6.815   5.647  16.253  0.4056  0.1070 -0.1179
11787TIP3    H156852   6.750   5.609  16.313 -1.0101 -2.8071 -3.2031
11787TIP3    H256853   6.766   5.712  16.203  0.3616 -0.6922 -1.1251
11788TIP3   OH256854   0.653   2.501  13.560  0.2237  0.0728  0.1578
11788TIP3    H156855   0.695   2.493  13.474 -0.0617 -2.0147  0.1698
11788TIP3    H256856   0.680   2.424  13.608  0.2061  1.1119  1.9091
11789TIP3   OH256857   2.180   3.893   0.428  0.2971 -0.3497 -0.4341
11789TIP3    H156858   2.186   3.831   0.356  0.3126  0.0137 -0.7490
11789TIP3    H256859   2.097   3.871   0.471 -0.0323 -0.1611 -0.9530
11790TIP3   OH256860   0.914   2.313  16.162  0.2291  0.2594 -0.2641
11790TIP3    H156861   0.865   2.231  16.154  1.0776 -1.1030  4.6901
11790TIP3    H256862   0.846   2.381  16.171 -0.7443 -0.8761  1.5827
11791TIP3   OH256863   4.696   0.009  16.867  0.0915 -0.2251 -0.0623
11791TIP3    H156864   4.751  -0.037  16.930 -1.7139 -0.7479  1.2024
11791TIP3    H256865   4.608  -0.024  16.882 -0.8686  1.7538 -0.8866
11792TIP3   OH256866   6.783   4.328  17.041 -0.0256 -0.1145  0.1413
11792TIP3    H156867   6.690   4.315  17.026 -0.1431 -0.6547  1.2192
11792TIP3    H256868   6.793   4.423  17.049 -0.3091  0.0163 -0.9677
11793TIP3   OH256869   2.949   0.247   5.623  0.0931  0.2496  0.6564
11793TIP3    H156870   2.999   0.167   5.640 -0.5803 -0.4027 -0.4165
11793TIP3    H256871   2.936   0.285   5.710 -0.8651 -1.5725  1.3455
11794TIP3   OH256872   3.560   3.917   4.654  0.4425  0.0355 -0.1336
11794TIP3    H156873   3.538   3.954   4.740 -0.0882 -0.8343  0.1164
11794TIP3    H256874   3.579   3.825   4.672 -1.6467 -0.6806 -1.2045
11795TIP3   OH256875   4.365   2.589   2.809  0.3436  0.0559 -0.1934
11795TIP3    H156876   4.387   2.599   2.902  2.2906  0.1141 -0.6247
11795TIP3    H256877   4.288   2.533   2.809 -0.2267  0.7729  1.4891
11796TIP3   OH256878   4.616   5.554  12.638  0.4897  0.0145  0.8359
11796TIP3    H156879   4.707   5.555  12.668  0.3327 -0.3907  1.3417
11796TIP3    H256880   4.611   5.478  12.580  0.5470  0.2156  0.5666
11797TIP3   OH256881   4.991   2.896   1.916 -0.4024  0.1790  0.4899
11797TIP3    H156882   5.083   2.870   1.919 -0.5511 -0.4526 -0.0506
11797TIP3    H256883   4.951   2.850   1.990 -0.2050  0.7945  0.9831
11798TIP3   OH256884   0.338   4.191   4.740  0.5410 -0.1172  0.3935
11798TIP3    H156885   0.407   4.200   4.674  0.9451  0.5484  0.8910
11798TIP3    H256886   0.384   4.167   4.820  0.1221 -0.2563  0.5987
11799TIP3   OH256887   2.098   0.322  16.568  1.0671 -0.0964 -0.1660
11799TIP3    H156888   2.064   0.283  16.648 -1.4166  1.9842 -0.0847
11799TIP3    H256889   2.144   0.401  16.598 -0.4289  1.0449 -0.7526
11800TIP3   OH256890   1.577   1.839   0.371  0.0901  0.3932  0.4880
11800TIP3    H156891   1.574   1.908   0.305  0.3362  0.5581  0.6470
11800TIP3    H256892   1.665   1.846   0.409  0.1016  0.0254  0.5381
11801TIP3   OH256893   4.298   0.524   0.596  0.9492 -0.0064 -0.1630
11801TIP3    H156894   4.258   0.611   0.601  0.2213 -0.4110  2.1262
11801TIP3    H256895   4.378   0.532   0.647  1.3003 -0.4842 -0.6302
11802TIP3   OH256896   2.670   4.807  11.116 -0.0434 -0.1247  0.4384
11802TIP3    H156897   2.612   4.857  11.060  1.3923  0.9581 -0.1533
11802TIP3    H256898   2.709   4.873  11.175  0.0016 -0.9333  1.3414
11803TIP3   OH256899   5.007   6.662  14.345 -0.3191 -0.1593 -0.2955
11803TIP3    H156900   5.003   6.619  14.260 -2.0215 -0.4729 -0.0849
11803TIP3    H256901   4.938   6.728  14.343  1.6845  2.0782 -0.2892
11804TIP3   OH256902   5.948   4.649  16.871 -0.2673  0.6052 -0.1948
11804TIP3    H156903   5.857   4.635  16.897  0.0160  1.5863  1.4787
11804TIP3    H256904   5.990   4.564  16.884 -0.2893  0.8843  2.1193
11805TIP3   OH256905   4.082   0.117   5.883  0.0116  0.3211 -0.4801
11805TIP3    H156906   4.157   0.119   5.942  0.2756  0.3683 -0.8152
11805TIP3    H256907   4.105   0.051   5.818  0.0231  0.7637 -0.9265
11806TIP3   OH256908   3.267   2.046  10.620 -0.1487 -0.3307 -0.4755
11806TIP3    H156909   3.354   2.014  10.642 -0.0758  0.1031 -0.0994
11806TIP3    H256910   3.213   2.026  10.697  0.0145  0.8478 -0.0209
11807TIP3   OH256911   5.841   6.018   1.980 -0.7192  0.5053 -0.6117
11807TIP3    H156912   5.845   5.952   2.049 -0.3905  1.7056  0.5728
11807TIP3    H256913   5.896   6.090   2.012 -1.4664  1.5680 -1.6081
11808TIP3   OH256914   6.690   1.782   3.879 -0.1952  0.3127  0.0037
11808TIP3    H156915   6.731   1.850   3.825 -0.5803  0.8422  0.3702
11808TIP3    H256916   6.720   1.800   3.968  0.2290 -0.4027  0.0093
11809TIP3   OH256917   5.098   4.707  11.387  0.1518 -0.0101 -0.8584
11809TIP3    H156918   5.017   4.705  11.438 -0.5756  0.2273 -1.9657
11809TIP3    H256919   5.151   4.775  11.427 -0.5897  0.4717 -0.6773
11810TIP3   OH256920   3.225   2.104   1.332  0.0167 -0.2397 -0.2666
11810TIP3    H156921   3.237   2.040   1.261  0.8482  0.0351 -0.3901
11810TIP3    H256922   3.293   2.080   1.396 -0.4595 -0.2274  0.2459
11811TIP3   OH256923   6.548   4.109   2.052  0.7452 -0.1461  0.3570
11811TIP3    H156924   6.565   4.063   1.970  1.6850 -0.3234  0.6351
11811TIP3    H256925   6.610   4.071   2.114 -0.4488 -0.5459  1.3599
11812TIP3   OH256926   0.875   1.153  11.448  0.0206 -0.6767 -0.5096
11812TIP3    H156927   0.880   1.087  11.379  0.8780 -1.1190 -0.0368
11812TIP3    H256928   0.960   1.150  11.490 -0.7686 -1.0125  1.1294
11813TIP3   OH256929   1.438   1.820  15.793  0.0238  0.0272 -0.2856
11813TIP3    H156930   1.353   1.777  15.803 -0.4067  0.6693 -1.0684
11813TIP3    H256931   1.434   1.895  15.851 -0.1024  0.2865 -0.6277
11814TIP3   OH256932   5.557   0.391   2.473 -0.3828 -0.0864  0.2494
11814TIP3    H156933   5.639   0.415   2.432 -1.0407  0.2254 -0.9133
11814TIP3    H256934   5.567   0.297   2.493  0.2158 -0.0667  0.0590
11815TIP3   OH256935   5.022   0.903  15.937 -0.4283  0.8675 -0.1242
11815TIP3    H156936   5.114   0.923  15.955 -0.1054 -1.1736  0.8911
11815TIP3    H256937   4.973   0.975  15.976  0.6945  1.0429  1.0529
11816TIP3   OH256938   6.002   3.672   1.789 -0.0836  0.2574 -0.1374
11816TIP3    H156939   5.940   3.620   1.839 -0.2951 -0.4813 -1.1357
11816TIP3    H256940   6.072   3.693   1.851 -1.1510  0.8185  0.9088
11817TIP3   OH256941   0.242   2.113   2.172  0.1742 -0.1626  0.4210
11817TIP3    H156942   0.300   2.085   2.102 -0.2899 -0.2575  0.0690
11817TIP3    H256943   0.154   2.095   2.140 -0.0304 -3.2976  2.2993
11818TIP3   OH256944   0.118   0.709  12.129 -0.3732 -0.0016 -0.3305
11818TIP3    H156945   0.028   0.688  12.152  0.2983 -0.8437  1.6968
11818TIP3    H256946   0.157   0.626  12.101  0.8131 -0.5573  2.6302
11819TIP3   OH256947   1.382   1.983  15.324  0.1064 -0.2037  0.5697
11819TIP3    H156948   1.475   2.005  15.321 -0.2547  1.4574  0.0045
11819TIP3    H256949   1.358   1.969  15.232 -0.3960  0.3494  0.6099
11820TIP3   OH256950   1.326   2.754   1.292 -0.4360  0.2743  0.1699
11820TIP3    H156951   1.304   2.776   1.202  0.5733 -1.0697 -0.4373
11820TIP3    H256952   1.371   2.832   1.326 -0.1335  0.4997 -0.7399
11821TIP3   OH256953   6.399   3.733  16.924  0.5701 -0.0512 -0.2384
11821TIP3    H156954   6.430   3.669  16.988  0.5842 -1.0954 -1.2560
11821TIP3    H256955   6.470   3.739  16.860 -0.0781 -0.1859 -0.9787
11822TIP3   OH256956   5.281   4.091  16.493 -0.3372 -0.6176  0.0622
11822TIP3    H156957   5.204   4.112  16.547 -0.1388 -0.9052  0.4625
11822TIP3    H256958   5.354   4.133  16.540 -0.3969  0.6845 -0.9423
11823TIP3   OH256959   4.239   3.568  14.987 -0.0596 -0.0050  0.4940
11823TIP3    H156960   4.242   3.652  15.031 -0.1068 -0.9016  2.2981
11823TIP3    H256961   4.324   3.528  15.004 -0.2766 -0.6011  0.2182
11824TIP3   OH256962   0.186   0.667  13.648  0.3296 -0.1992 -0.3064
11824TIP3    H156963   0.246   0.710  13.587  0.6813  0.2323  0.3366
11824TIP3    H256964   0.105   0.718  13.642  0.8196  0.7165  0.6277
11825TIP3   OH256965   2.808   0.806  10.438  0.4591  0.1520  0.4784
11825TIP3    H156966   2.901   0.785  10.448  0.7257  1.7399  1.8309
11825TIP3    H256967   2.804   0.901  10.446 -1.3600  0.0665  1.0800
11826TIP3   OH256968   0.595   1.023   5.409 -0.2036 -0.2670  0.3691
11826TIP3    H156969   0.609   1.112   5.378  0.3279 -1.1351 -2.1523
11826TIP3    H256970   0.644   0.968   5.347 -0.0440 -2.2922  2.1557
11827TIP3   OH256971   5.677   4.487   5.625 -0.0598  0.0659 -0.5574
11827TIP3    H156972   5.711   4.429   5.693 -1.3394 -0.3958 -0.2724
11827TIP3    H256973   5.744   4.488   5.557  0.3293 -1.1139 -0.2036
11828TIP3   OH256974   2.030   2.374   2.472  0.0994 -0.2142  0.2821
11828TIP3    H156975   2.043   2.426   2.551  0.3289  0.3573 -0.1278
11828TIP3    H256976   1.935   2.372   2.460  0.0924  0.1802  0.2565
11829TIP3   OH256977   1.402   1.971  12.105 -0.1920 -0.1614 -0.5293
11829TIP3    H156978   1.367   1.890  12.143  0.3535  0.3031  1.0190
11829TIP3    H256979   1.483   1.944  12.063  1.1551 -0.1330  1.8714
11830TIP3   OH256980   6.155   4.373  12.753 -0.0860  0.5273  0.0250
11830TIP3    H156981   6.087   4.309  12.774  1.2460 -0.8459  0.3150
11830TIP3    H256982   6.172   4.361  12.660 -2.3051  2.9935 -0.8191
11831TIP3   OH256983   4.642   2.844   3.376  0.4101  0.0873  0.2175
11831TIP3    H156984   4.735   2.842   3.399  0.6151 -0.5250 -0.6316
11831TIP3    H256985   4.618   2.753   3.360 -0.4193  0.2024  0.7055
11832TIP3   OH256986   0.870   4.462  10.934  0.5969 -0.2163 -0.2532
11832TIP3    H156987   0.888   4.387  10.877  0.9531  0.2252 -0.7331
11832TIP3    H256988   0.907   4.537  10.888 -3.2064  0.9648 -1.7692
11833TIP3   OH256989   0.724   4.002   2.673  0.3066  0.7499  0.1951
11833TIP3    H156990   0.679   4.011   2.589 -0.4082  2.3525  0.7048
11833TIP3    H256991   0.661   3.956   2.729 -0.2930  2.0259  0.5942
11834TIP3   OH256992   0.505   3.697  16.484 -0.1816  1.1705 -0.0416
11834TIP3    H156993   0.509   3.686  16.579  1.5279 -1.5228 -0.3253
11834TIP3    H256994   0.442   3.631  16.455  0.0966  1.2442 -0.8456
11835TIP3   OH256995   3.400   5.477   6.059  0.2395 -0.0756 -0.4080
11835TIP3    H156996   3.355   5.447   6.138  1.8652  0.3703  0.7183
11835TIP3    H256997   3.445   5.399   6.027 -0.7848 -0.3726 -1.2047
11836TIP3   OH256998   2.180   4.897  14.666 -0.7720 -0.0256  0.3237
11836TIP3    H156999   2.124   4.937  14.599 -0.7767 -0.4844  0.0506
11836TIP3    H257000   2.206   4.813  14.629  1.5036  0.8922 -0.2883
11837TIP3   OH257001   4.854   3.495   0.246  0.1338 -0.2170 -0.3447
11837TIP3    H157002   4.868   3.581   0.285  1.2659 -0.3027 -0.5313
11837TIP3    H257003   4.838   3.513   0.153 -0.9156 -0.1323 -0.1626
11838TIP3   OH257004   0.864   5.187  12.491  0.6806  0.5476  0.1678
11838TIP3    H157005   0.932   5.122  12.505  0.1106  0.2354  1.7772
11838TIP3    H257006   0.791   5.139  12.452  1.6355  1.0666 -2.4893
11839TIP3   OH257007   0.546   3.193   3.135  0.1760  0.2073 -0.3530
11839TIP3    H157008   0.535   3.250   3.211  1.5216  0.9868 -0.6926
11839TIP3    H257009   0.548   3.104   3.171  0.5098  0.5484  0.4963
11840TIP3   OH257010   3.253   5.135   2.637 -0.1206 -0.3355 -0.0528
11840TIP3    H157011   3.302   5.069   2.686  0.4542 -0.1908 -0.4263
11840TIP3    H257012   3.207   5.086   2.569  2.2392 -0.1495 -1.9283
11841TIP3   OH257013   6.450   4.937  14.490 -1.0264  0.0706 -0.2636
11841TIP3    H157014   6.499   4.857  14.472 -0.7826  0.2313 -0.3247
11841TIP3    H257015   6.465   4.954  14.583 -2.1181 -0.6478  0.0600
11842TIP3   OH257016   6.061   2.633  12.251  0.3864  0.4495 -0.3453
11842TIP3    H157017   6.039   2.705  12.310  0.3604  0.2872 -0.1558
11842TIP3    H257018   6.009   2.649  12.172 -1.1592 -0.4414  0.4470
11843TIP3   OH257019   1.732   0.747  10.846  0.1720  0.5062 -0.2147
11843TIP3    H157020   1.721   0.780  10.935  1.4494  2.5129 -0.7497
11843TIP3    H257021   1.649   0.767  10.803  0.5792  2.2544 -0.2551
11844TIP3   OH257022   1.654   4.815   4.859  0.0763  0.2986  0.0325
11844TIP3    H157023   1.730   4.771   4.823 -0.6746  0.5966 -2.0676
11844TIP3    H257024   1.581   4.754   4.844 -0.2696  0.4060  1.1570
11845TIP3   OH257025   2.393   6.246  16.092  0.0414 -0.3740 -0.4726
11845TIP3    H157026   2.434   6.213  16.172  1.3515  0.7557 -0.6255
11845TIP3    H257027   2.433   6.194  16.022 -1.1393 -1.3940 -0.4096
11846TIP3   OH257028   6.224   4.613   3.492  0.3768 -0.3052 -0.2622
11846TIP3    H157029   6.318   4.619   3.507  0.1512  1.8689  0.7776
11846TIP3    H257030   6.197   4.704   3.480 -1.2569 -1.0333 -2.9985
11847TIP3   OH257031   6.496   0.713  14.601 -0.0366  0.5503 -0.6181
11847TIP3    H157032   6.518   0.620  14.609  2.2523  0.9587 -1.5224
11847TIP3    H257033   6.455   0.720  14.515 -0.2770  0.3702 -0.5203
11848TIP3   OH257034   2.410   3.837  13.948 -0.0488 -0.2569 -0.6557
11848TIP3    H157035   2.445   3.749  13.960 -0.4457 -0.3885 -0.4191
11848TIP3    H257036   2.322   3.823  13.913 -0.2829  0.0271 -0.2010
11849TIP3   OH257037   1.015   4.521   4.991 -0.0437  0.1222  0.1255
11849TIP3    H157038   0.958   4.488   5.060 -0.1858 -0.8794 -0.4492
11849TIP3    H257039   1.005   4.458   4.919  0.7195  0.6931 -0.5060
11850TIP3   OH257040   3.772   4.714   2.266 -0.6167 -0.2531 -0.8984
11850TIP3    H157041   3.850   4.750   2.224 -0.1897 -1.9534 -1.6342
11850TIP3    H257042   3.701   4.728   2.203 -0.7543  0.5677 -0.5703
11851TIP3   OH257043   2.065   1.725   4.475  0.0623 -0.5061 -0.5984
11851TIP3    H157044   2.060   1.800   4.416 -0.3425  0.5184  0.6892
11851TIP3    H257045   2.147   1.682   4.452  0.6776  0.7663 -0.8800
11852TIP3   OH257046   0.704   2.948  13.641  0.0369 -0.0064  0.1314
11852TIP3    H157047   0.736   3.039  13.637 -0.4830  0.1432 -1.4471
11852TIP3    H257048   0.720   2.913  13.553  0.4203 -1.5276  0.7763
11853TIP3   OH257049   4.698   4.089  13.784 -0.0527  0.1388 -0.3219
11853TIP3    H157050   4.788   4.117  13.801 -0.1605  0.3024 -0.0205
11853TIP3    H257051   4.707   4.018  13.720  0.3137 -0.0717 -0.0417
11854TIP3   OH257052   2.296   5.280  15.982  0.0237  0.5432 -0.3286
11854TIP3    H157053   2.244   5.309  16.057  0.0936 -0.2755  0.0504
11854TIP3    H257054   2.292   5.184  15.985  1.0871  0.4682 -0.6183
11855TIP3   OH257055   1.766   0.249  16.711 -0.2541  0.0546  0.0798
11855TIP3    H157056   1.758   0.323  16.651  0.6546 -0.4321 -0.6786
11855TIP3    H257057   1.847   0.266  16.760  2.6463 -2.4931 -3.2468
11856TIP3   OH257058   1.814   0.838  14.607  0.1581  0.3765  0.1092
11856TIP3    H157059   1.839   0.931  14.615  1.0006  0.1632  0.0671
11856TIP3    H257060   1.719   0.839  14.614  0.0067  1.4135 -1.4798
11857TIP3   OH257061   3.194   6.092  13.361 -0.0828 -0.2431 -0.0067
11857TIP3    H157062   3.121   6.129  13.311 -0.2823 -0.7534 -0.1059
11857TIP3    H257063   3.220   6.014  13.311  1.5505  0.7725 -0.8092
11858TIP3   OH257064   2.424   5.016  12.190  0.3482 -0.0929 -0.1194
11858TIP3    H157065   2.388   4.936  12.151 -0.4323 -0.1934  0.7855
11858TIP3    H257066   2.495   4.985  12.246  1.1099  0.0048 -1.0043
11859TIP3   OH257067   5.897   1.091  12.031 -0.1870  0.0582  0.0615
11859TIP3    H157068   5.833   1.123  12.094  0.3174  0.2738  0.4708
11859TIP3    H257069   5.977   1.079  12.082  0.3440  0.6159 -0.6134
11860TIP3   OH257070   2.114   3.723   4.566  0.1142 -0.7145 -0.5562
11860TIP3    H157071   2.064   3.697   4.643 -0.5105 -1.6901 -1.2595
11860TIP3    H257072   2.094   3.816   4.554  0.1359 -0.5814  0.3829
11861TIP3   OH257073   3.091   5.741  15.959 -0.5182  0.1227 -0.1281
11861TIP3    H157074   3.122   5.652  15.943 -2.4647 -0.7240  0.4267
11861TIP3    H257075   3.058   5.739  16.049 -1.3057  1.1825 -0.3719
11862TIP3   OH257076   6.579   2.706  13.835  0.5657 -0.4175 -0.1575
11862TIP3    H157077   6.491   2.670  13.847  0.8474 -1.3242 -0.7424
11862TIP3    H257078   6.628   2.675  13.911  0.7398 -1.0766 -0.5313
11863TIP3   OH257079   1.550   2.301   4.162  0.8497  0.3240  0.3372
11863TIP3    H157080   1.599   2.367   4.211  1.4119  0.4886 -0.4366
11863TIP3    H257081   1.557   2.327   4.070 -2.8315  1.8333  0.2892
11864TIP3   OH257082   1.800   3.611  15.180  0.4254 -0.4489  0.2307
11864TIP3    H157083   1.843   3.554  15.244 -2.4152 -1.7470  1.1428
11864TIP3    H257084   1.796   3.558  15.100  0.4646 -0.3545  0.1659
11865TIP3   OH257085   6.700   5.714  15.800 -0.0767 -0.0951 -0.5411
11865TIP3    H157086   6.781   5.692  15.846  0.1497  0.5923 -0.5952
11865TIP3    H257087   6.680   5.803  15.829  0.1821  0.4314 -1.9108
11866TIP3   OH257088   0.443   2.062  11.738 -0.1122 -0.4920 -0.1914
11866TIP3    H157089   0.433   2.109  11.655  0.8723 -0.6728 -0.4265
11866TIP3    H257090   0.394   1.980  11.725 -1.2851  0.1639 -0.0104
11867TIP3   OH257091   2.739   6.353   4.960 -0.6807  0.4479 -0.2729
11867TIP3    H157092   2.810   6.343   4.897 -0.3657  2.8617 -0.3912
11867TIP3    H257093   2.753   6.282   5.023  2.1997  1.1420  0.0333
11868TIP3   OH257094   2.160   4.444   4.679 -0.1759 -0.2250  0.2865
11868TIP3    H157095   2.075   4.439   4.636 -0.1445 -0.1778  0.2187
11868TIP3    H257096   2.145   4.410   4.767 -0.4476  0.5158  0.5421
11869TIP3   OH257097   2.639   0.025  15.645 -0.0852 -0.3791 -0.6078
11869TIP3    H157098   2.585   0.030  15.566 -0.4358  0.1555 -0.3370
11869TIP3    H257099   2.726   0.053  15.616 -0.6150  1.5907 -0.4412
11870TIP3   OH257100   6.522   4.953   2.150  0.0040  0.2432  0.2386
11870TIP3    H157101   6.528   4.874   2.205 -0.7981  1.7372  2.6241
11870TIP3    H257102   6.429   4.963   2.132  0.1631  0.3472 -0.5916
11871TIP3   OH257103   0.373   0.217   1.038  0.7331  0.4800 -0.0371
11871TIP3    H157104   0.467   0.232   1.032  1.1770 -1.8773  0.1583
11871TIP3    H257105   0.346   0.200   0.947 -0.0598  3.6329 -0.5028
11872TIP3   OH257106   4.590   6.516   0.100 -0.1953  0.4876  0.2567
11872TIP3    H157107   4.564   6.583   0.164  0.8946  0.9084  0.2882
11872TIP3    H257108   4.683   6.533   0.085 -0.4863  0.5985 -1.7030
11873TIP3   OH257109   1.789   2.650  14.848  0.1134 -0.8050  0.2534
11873TIP3    H157110   1.807   2.743  14.867 -2.2127 -0.0402 -0.8676
11873TIP3    H257111   1.772   2.611  14.934  1.2570 -0.2595  0.7522
11874TIP3   OH257112   4.679   5.011   3.208 -0.0623  0.1156 -0.0662
11874TIP3    H157113   4.626   5.039   3.134 -0.7333  1.6371  0.9354
11874TIP3    H257114   4.762   5.059   3.199 -0.5730  1.1956  0.7409
11875TIP3   OH257115   0.643   3.294   2.410  0.0531 -0.2579 -0.1086
11875TIP3    H157116   0.624   3.329   2.323 -0.0822 -1.9901 -0.8163
11875TIP3    H257117   0.690   3.213   2.393  1.8865  0.3924  1.4984
11876TIP3   OH257118   3.681   4.968   5.298 -0.9136  0.4834 -0.0128
11876TIP3    H157119   3.751   4.912   5.265 -1.0712  0.8616 -0.9947
11876TIP3    H257120   3.714   5.058   5.287 -0.0907  0.6378  2.7665
11877TIP3   OH257121   0.304   1.203   5.316  0.3743 -0.6424  0.3769
11877TIP3    H157122   0.236   1.243   5.370 -0.4374 -0.5129 -0.6933
11877TIP3    H257123   0.267   1.203   5.228  0.5609 -3.2278  0.2230
11878TIP3   OH257124   1.755   6.022  12.656  0.1337  0.3637 -0.3749
11878TIP3    H157125   1.728   5.984  12.573 -1.0365  0.4354 -0.0490
11878TIP3    H257126   1.676   6.063  12.691  0.0885 -1.2736  1.6626
11879TIP3   OH257127   3.213   6.161  15.417  0.1243 -0.2925  0.1032
11879TIP3    H157128   3.231   6.213  15.495  2.5753 -0.6361 -0.1793
11879TIP3    H257129   3.121   6.135  15.427 -0.3837  1.7784  1.5858
11880TIP3   OH257130   0.401   1.256  12.284 -0.1279  0.1027  0.0005
11880TIP3    H157131   0.459   1.186  12.252  0.0218  1.0832 -2.0729
11880TIP3    H257132   0.460   1.328  12.305 -0.4294  0.3530 -0.0110
11881TIP3   OH257133   4.246   2.365   1.517  0.0368  0.6380  0.3084
11881TIP3    H157134   4.289   2.286   1.550  0.2771  0.2234 -0.9433
11881TIP3    H257135   4.311   2.434   1.528  0.5237  0.2865 -0.2859
11882TIP3   OH257136   1.242   3.229   2.747  0.6996  0.1718 -0.2960
11882TIP3    H157137   1.334   3.206   2.762  1.0340  0.7843 -1.3414
11882TIP3    H257138   1.245   3.310   2.697 -0.3679 -0.7678 -2.0027
11883TIP3   OH257139   5.136   3.757  13.301  0.3169  0.0129 -0.0515
11883TIP3    H157140   5.068   3.808  13.346 -2.2237 -2.8271 -0.3574
11883TIP3    H257141   5.190   3.721  13.372  0.3629  0.7694  0.3039
11884TIP3   OH257142   3.489   1.618  13.044 -0.1808 -0.0122  0.3483
11884TIP3    H157143   3.562   1.663  13.001 -0.5121 -0.2399 -0.4765
11884TIP3    H257144   3.445   1.685  13.095  0.3669  0.2127  0.5300
11885TIP3   OH257145   4.318   0.122  15.697  0.7913  0.3590  0.3316
11885TIP3    H157146   4.360   0.194  15.649  1.1597  0.2060  0.4222
11885TIP3    H257147   4.291   0.060  15.629 -0.2935  0.9737  0.1811
11886TIP3   OH257148   1.321   3.240   5.226  0.4518 -0.7327  0.7350
11886TIP3    H157149   1.254   3.238   5.295 -1.5023  1.0019 -0.9389
11886TIP3    H257150   1.289   3.179   5.160  1.8693 -1.7503  0.9478
11887TIP3   OH257151   3.690   3.726   6.100  0.9799  0.5803 -0.0778
11887TIP3    H157152   3.631   3.787   6.145  2.0740  0.2232  1.9498
11887TIP3    H257153   3.723   3.776   6.026 -1.3445  0.9981 -0.9276
11888TIP3   OH257154   5.880   3.191   0.199  0.1194  0.0248 -0.3179
11888TIP3    H157155   5.852   3.282   0.199 -1.1969 -0.3508  0.3578
11888TIP3    H257156   5.942   3.185   0.127  1.2131  1.7283  0.4151
11889TIP3   OH257157   0.578   4.615   1.988 -0.0259 -0.4848 -0.7205
11889TIP3    H157158   0.538   4.529   1.984 -3.0510  0.7118  0.6706
11889TIP3    H257159   0.629   4.615   2.068  0.7409 -1.2286 -1.1946
11890TIP3   OH257160   5.846   0.273   0.596  0.4730  0.4970 -0.0644
11890TIP3    H157161   5.772   0.223   0.629  0.1941  1.0936  0.2243
11890TIP3    H257162   5.882   0.318   0.673 -0.8083  2.7193 -0.6605
11891TIP3   OH257163   0.174   0.832   1.373 -0.1780 -0.3103 -0.2008
11891TIP3    H157164   0.208   0.756   1.325  1.3731  0.2199  0.0018
11891TIP3    H257165   0.218   0.828   1.458  0.0395  0.9104 -0.2462
11892TIP3   OH257166   1.161   3.553  14.384  0.3009  0.5554 -0.2023
11892TIP3    H157167   1.101   3.585  14.316  1.3911  0.7978 -1.0869
11892TIP3    H257168   1.183   3.631  14.435 -0.5590  0.3643  0.4924
11893TIP3   OH257169   6.772   1.196   5.244  0.3418 -0.0297 -0.6522
11893TIP3    H157170   6.813   1.157   5.321  1.1800 -1.4394 -1.7597
11893TIP3    H257171   6.822   1.276   5.228 -1.4350  1.6986  1.6833
11894TIP3   OH257172   2.847   2.424  15.743  0.6251 -0.5927  0.4707
11894TIP3    H157173   2.902   2.494  15.709 -1.7587  0.6794 -1.1140
11894TIP3    H257174   2.795   2.465  15.812 -0.4070 -0.9169 -0.0861
11895TIP3   OH257175   2.498   2.128   4.621 -0.3937  0.1012 -0.0129
11895TIP3    H157176   2.470   2.205   4.670  1.4931  1.0660 -0.3671
11895TIP3    H257177   2.542   2.163   4.543  1.7428 -1.2174  0.4946
11896TIP3   OH257178   4.967   3.682   3.232  0.0232  0.1585 -0.5137
11896TIP3    H157179   5.028   3.617   3.268 -0.6628 -0.3690 -0.2725
11896TIP3    H257180   4.962   3.750   3.300  0.5329  0.3266 -0.6444
11897TIP3   OH257181   5.643   0.155  12.470 -0.0312  0.2353  0.0837
11897TIP3    H157182   5.578   0.222  12.490 -1.3707 -0.8574 -0.4638
11897TIP3    H257183   5.670   0.173  12.380 -1.6247 -0.8995 -0.6584
11898TIP3   OH257184   1.583   4.142   0.649 -0.1994  0.2927  0.5737
11898TIP3    H157185   1.625   4.151   0.735 -0.6191 -0.7060  0.9040
11898TIP3    H257186   1.500   4.189   0.658 -0.7122 -0.6750  1.0714
11899TIP3   OH257187   1.045   1.346  12.672 -0.1103 -0.1415  0.0064
11899TIP3    H157188   0.992   1.328  12.594  1.2480 -0.8705 -0.7920
11899TIP3    H257189   1.035   1.440  12.687 -1.4422 -0.2272 -0.2378
11900TIP3   OH257190   4.387   0.983   4.198 -0.0521 -0.2813  0.1813
11900TIP3    H157191   4.413   1.067   4.159 -1.3462  0.2473  0.4029
11900TIP3    H257192   4.321   0.949   4.137 -0.6888 -0.3660  0.9007
11901TIP3   OH257193   4.986   3.719   6.992  0.4548 -0.6961 -0.6345
11901TIP3    H157194   4.952   3.702   7.080 -0.4983  1.0984 -0.5959
11901TIP3    H257195   4.915   3.691   6.933  0.8545 -1.3506 -0.8117
11902TIP3   OH257196   1.815   2.428   1.999 -0.3075 -0.7046 -0.5696
11902TIP3    H157197   1.841   2.339   1.975 -1.9448 -1.2919 -0.2993
11902TIP3    H257198   1.738   2.416   2.053  0.7745  0.7938  1.4320
11903TIP3   OH257199   6.850   6.379   3.411 -0.2008 -0.0416 -0.0710
11903TIP3    H157200   6.763   6.362   3.374 -0.0149  1.1378 -1.1711
11903TIP3    H257201   6.911   6.346   3.345  0.1417  2.2289 -0.9936
11904TIP3   OH257202   4.239   0.994   5.921 -0.0351 -0.5260 -0.4381
11904TIP3    H157203   4.318   0.947   5.897  1.4300  2.2297 -1.3957
11904TIP3    H257204   4.262   1.087   5.913 -2.9749  0.4101  0.5223
11905TIP3   OH257205   6.827   2.531   1.447  0.5351  0.4485  0.5123
11905TIP3    H157206   6.872   2.611   1.419 -1.7171  1.2224 -1.1596
11905TIP3    H257207   6.770   2.509   1.374 -0.3369 -1.6184  1.7400
11906TIP3   OH257208   3.257   4.819   5.404 -0.4455 -0.2235 -0.1584
11906TIP3    H157209   3.292   4.874   5.334  0.1527  1.0641  1.0907
11906TIP3    H257210   3.330   4.808   5.465 -0.6962 -2.0681 -0.1350
11907TIP3   OH257211   6.116   0.293  13.249 -0.1026 -0.2966  0.5592
11907TIP3    H157212   6.038   0.325  13.294  1.3324  1.9789  1.6624
11907TIP3    H257213   6.084   0.252  13.169 -2.3828  1.0852  0.6872
11908TIP3   OH257214   3.390   4.762   3.353 -0.3726 -0.3790  0.1509
11908TIP3    H157215   3.447   4.753   3.277 -2.3204  0.4968 -1.4897
11908TIP3    H257216   3.449   4.754   3.428  1.7867 -0.1980 -1.4407
11909TIP3   OH257217   6.020   6.113   1.763  0.2859  0.2513 -0.6473
11909TIP3    H157218   6.114   6.100   1.780  0.8283  1.7455 -2.3089
11909TIP3    H257219   5.977   6.070   1.837  2.2756 -0.3481  0.2326
11910TIP3   OH257220   3.404   4.696   4.271  0.1719  0.0962  0.1489
11910TIP3    H157221   3.381   4.629   4.207  1.7946 -0.6362  0.2916
11910TIP3    H257222   3.367   4.665   4.354  0.9684 -0.6627  0.2257
11911TIP3   OH257223   6.209   1.824  10.465 -0.2714  0.0850  0.3471
11911TIP3    H157224   6.239   1.736  10.488 -0.5685  0.3236  1.7255
11911TIP3    H257225   6.289   1.871  10.440 -0.1629 -0.6789 -0.8597
11912TIP3   OH257226   0.773   6.328  16.368  0.1263  0.3683 -0.0003
11912TIP3    H157227   0.708   6.261  16.349  0.9270 -0.3107 -0.4487
11912TIP3    H257228   0.772   6.385  16.290  0.2413  0.2114 -0.1173
11913TIP3   OH257229   3.402   1.984   1.492 -0.2582 -0.5382 -0.2815
11913TIP3    H157230   3.475   1.927   1.517  0.1981 -0.1819 -0.7766
11913TIP3    H257231   3.362   2.010   1.575  0.7572  0.0014  0.0562
11914TIP3   OH257232   3.502   1.130   4.162 -0.1575  0.1982 -0.0561
11914TIP3    H157233   3.425   1.078   4.183 -1.2071  1.8809  0.5005
11914TIP3    H257234   3.537   1.091   4.081 -1.4273 -0.7551 -0.1636
11915TIP3   OH257235   6.478   1.393  14.497 -0.0737 -0.3244 -0.0249
11915TIP3    H157236   6.528   1.448  14.558 -3.4995  0.1975  2.6200
11915TIP3    H257237   6.492   1.304  14.528  1.1392 -0.4565 -0.8911
11916TIP3   OH257238   3.996   2.463   5.040 -0.6307 -0.2003  0.1678
11916TIP3    H157239   3.944   2.384   5.053 -0.5970 -0.0673  1.2026
11916TIP3    H257240   4.066   2.436   4.980 -1.6249 -0.4866 -0.8800
11917TIP3   OH257241   5.054   4.500  11.698 -0.3755  0.2400 -0.3247
11917TIP3    H157242   5.122   4.438  11.673 -0.1276  0.1710  0.4836
11917TIP3    H257243   4.990   4.496  11.627  0.4934  0.3522 -1.1165
11918TIP3   OH257244   0.623   4.191  12.518  0.1833 -0.3461  0.0772
11918TIP3    H157245   0.592   4.103  12.543  0.8067  0.1937  3.0806
11918TIP3    H257246   0.717   4.188  12.533  0.2155  0.8114  0.1613
11919TIP3   OH257247   2.834   0.453   0.999  0.1883  0.4992  0.2586
11919TIP3    H157248   2.868   0.367   0.974 -0.9214 -0.5228  2.0549
11919TIP3    H257249   2.769   0.473   0.931  0.6538  0.0722 -0.3243
11920TIP3   OH257250   1.780   1.769  13.152 -0.1205 -0.0853 -0.0700
11920TIP3    H157251   1.797   1.821  13.230  2.2225 -0.8638  0.0095
11920TIP3    H257252   1.865   1.732  13.128 -1.0067 -0.9129 -2.2519
11921TIP3   OH257253   3.318   6.452   4.794  0.0102  0.0604 -0.0309
11921TIP3    H157254   3.374   6.516   4.749 -0.0603 -0.8861 -1.5315
11921TIP3    H257255   3.258   6.505   4.846  2.2218  1.1243  1.5892
11922TIP3   OH257256   5.294   4.157  13.767  0.5276 -0.3510  0.3889
11922TIP3    H157257   5.286   4.244  13.806 -0.4628 -0.1954 -0.1521
11922TIP3    H257258   5.358   4.168  13.696 -0.0759  0.0825 -0.0947
11923TIP3   OH257259   2.274   1.275  12.327  0.2796 -0.0026 -0.1762
11923TIP3    H157260   2.279   1.187  12.366 -2.0817 -0.4681 -0.7799
11923TIP3    H257261   2.184   1.282  12.295  1.4461  1.1941 -3.5621
11924TIP3   OH257262   0.773   5.616   2.122  0.0426 -0.2976 -1.3809
11924TIP3    H157263   0.726   5.613   2.205  2.3715 -0.8166 -0.0048
11924TIP3    H257264   0.740   5.696   2.079  0.5965  1.4445  1.2122
11925TIP3   OH257265   4.941   4.423  16.849  0.6871  0.3763 -0.0439
11925TIP3    H157266   4.918   4.430  16.942  0.9700 -1.4971  0.2166
11925TIP3    H257267   4.864   4.456  16.803  0.9052  2.2226  0.8308
11926TIP3   OH257268   0.197   1.449   1.925  0.2190 -0.4928  0.1508
11926TIP3    H157269   0.233   1.519   1.870  1.4457  0.2811  1.8385
11926TIP3    H257270   0.114   1.426   1.884 -0.1359  1.8436 -0.5844
11927TIP3   OH257271   6.064   2.145  13.551 -0.4394  0.0248 -0.5162
11927TIP3    H157272   6.028   2.100  13.627 -0.6859 -0.0459 -0.6734
11927TIP3    H257273   6.010   2.224  13.542 -0.9128 -0.3540 -1.0766
11928TIP3   OH257274   5.413   1.067  13.197 -0.2056  0.1762 -0.0422
11928TIP3    H157275   5.323   1.046  13.220 -0.6797  1.5748 -0.4920
11928TIP3    H257276   5.440   0.998  13.137 -2.1352  1.4632 -2.5481
11929TIP3   OH257277   5.766   0.261  13.624  0.1681 -0.4603 -0.4994
11929TIP3    H157278   5.758   0.166  13.613 -0.0825 -0.8822  2.4737
11929TIP3    H257279   5.676   0.293  13.618 -0.2853 -1.0011  2.2131
11930TIP3   OH257280   2.448   5.369   0.725  0.2435  0.1409  0.6252
11930TIP3    H157281   2.462   5.360   0.820  0.9267  0.9114  0.6104
11930TIP3    H257282   2.423   5.282   0.696  0.6631 -0.2564  1.4170
11931TIP3   OH257283   1.491   3.589  13.166  0.1425  0.1778 -0.2352
11931TIP3    H157284   1.470   3.641  13.089  0.5619  0.4016 -0.2006
11931TIP3    H257285   1.450   3.636  13.239  0.3235  0.3369 -0.2348
11932TIP3   OH257286   4.087   6.101  11.035  0.2338 -0.3999 -0.3996
11932TIP3    H157287   4.116   6.165  11.100  0.0162  0.0165 -0.7115
11932TIP3    H257288   4.014   6.056  11.077  0.8047 -0.9009  0.0750
11933TIP3   OH257289   4.892   3.067   2.503 -0.3061  0.7701  0.1301
11933TIP3    H157290   4.833   3.094   2.432 -0.5201  1.3947  0.5382
11933TIP3    H257291   4.834   3.050   2.577  0.0037  1.1492  0.4604
11934TIP3   OH257292   3.139   2.358   0.442 -0.5345 -0.0661  0.5266
11934TIP3    H157293   3.160   2.451   0.446  0.4408 -0.3016  1.1868
11934TIP3    H257294   3.053   2.355   0.401 -0.4261  1.1031  0.1793
11935TIP3   OH257295   2.955   1.511  11.177  0.5809 -0.1956  0.2596
11935TIP3    H157296   2.944   1.506  11.082  1.8433 -0.8838  0.1270
11935TIP3    H257297   2.998   1.428  11.201  0.2464 -0.0479  1.4330
11936TIP3   OH257298   1.850   5.574   5.308 -0.4393 -0.3014  0.2238
11936TIP3    H157299   1.917   5.627   5.264  0.1948 -1.1326  0.1826
11936TIP3    H257300   1.887   5.487   5.315 -2.1153 -1.1933 -1.1823
11937TIP3   OH257301   0.318   0.771  12.299  0.0210  0.0220  0.2385
11937TIP3    H157302   0.260   0.820  12.357  0.4666 -0.0756  0.7803
11937TIP3    H257303   0.274   0.771  12.215 -0.0529  1.2308  0.2619
11938TIP3   OH257304   0.306   2.614  14.985 -0.0741 -0.0073  0.2860
11938TIP3    H157305   0.215   2.606  15.015  0.9149 -2.8510  2.9827
11938TIP3    H257306   0.357   2.627  15.064  2.1093 -0.8876 -0.8935
11939TIP3   OH257307   0.251   2.537  14.004 -0.0402  0.2344  0.0429
11939TIP3    H157308   0.228   2.457  13.956 -1.5320  0.9119 -0.4134
11939TIP3    H257309   0.237   2.608  13.941  1.6622  0.8567  0.3046
11940TIP3   OH257310   2.244   3.476   2.943  0.5326  0.2841  0.2005
11940TIP3    H157311   2.330   3.488   2.903  0.3522 -1.9824 -1.0611
11940TIP3    H257312   2.263   3.439   3.029  0.8510 -0.6901 -0.2698
11941TIP3   OH257313   2.822   3.963  12.685 -0.6116  0.1140  0.1506
11941TIP3    H157314   2.788   3.921  12.606 -2.1234  1.5689 -0.0298
11941TIP3    H257315   2.857   3.891  12.737  1.0193 -0.8314 -2.0802
11942TIP3   OH257316   1.359   1.500  11.451 -0.2245  0.3020 -0.4033
11942TIP3    H157317   1.310   1.525  11.372 -0.0721  0.1738 -0.5403
11942TIP3    H257318   1.361   1.405  11.449 -1.1143  0.2584  0.3133
11943TIP3   OH257319   1.646   3.859  10.869  0.2415  0.0739 -0.2127
11943TIP3    H157320   1.591   3.790  10.907  1.9372 -2.3104 -1.7566
11943TIP3    H257321   1.643   3.842  10.775 -0.3246  3.0257 -0.8076
11944TIP3   OH257322   2.369   3.791  12.128  0.3444  0.1409 -0.6131
11944TIP3    H157323   2.276   3.773  12.114  0.2987  0.4304 -0.7014
11944TIP3    H257324   2.397   3.835  12.047  0.0690  1.8912  0.2000
11945TIP3   OH257325   0.613   5.325   3.592 -0.2622  0.0886 -0.0918
11945TIP3    H157326   0.520   5.311   3.576 -0.2675  0.0460 -0.0232
11945TIP3    H257327   0.657   5.252   3.549 -0.0362  1.7130 -2.8524
11946TIP3   OH257328   4.394   1.668  11.264 -0.0713 -0.1556  0.6923
11946TIP3    H157329   4.312   1.674  11.313  0.3635 -0.8993  1.5529
11946TIP3    H257330   4.422   1.577  11.275  0.3901 -0.1598 -0.3927
11947TIP3   OH257331   4.734   2.386   5.862  0.4032 -0.0424 -0.0446
11947TIP3    H157332   4.651   2.382   5.910  0.4936 -0.4609  0.0840
11947TIP3    H257333   4.777   2.303   5.882  0.0346 -0.6523 -1.5687
11948TIP3   OH257334   0.730   5.149   2.562 -0.3639 -0.3691 -0.2324
11948TIP3    H157335   0.816   5.185   2.585 -0.9562  1.4450 -0.7279
11948TIP3    H257336   0.743   5.054   2.564  1.5891 -0.1431 -0.0870
11949TIP3   OH257337   1.497   5.367  14.867 -0.3027 -0.1466  0.5586
11949TIP3    H157338   1.573   5.423  14.884 -0.8622  0.4098  1.2630
11949TIP3    H257339   1.422   5.427  14.868 -0.7791 -0.7228  0.0687
11950TIP3   OH257340   3.719   1.009   1.239 -0.6910  0.3725  0.1174
11950TIP3    H157341   3.711   0.971   1.326 -0.5275 -2.1991 -0.8916
11950TIP3    H257342   3.755   0.938   1.185 -0.0327  2.1073 -1.8849
11951TIP3   OH257343   1.172   5.448  13.151  0.4643  0.5333  0.1441
11951TIP3    H157344   1.156   5.523  13.094 -0.1516  0.3747  0.0978
11951TIP3    H257345   1.127   5.471  13.233 -0.2484 -0.0388 -0.0763
11952TIP3   OH257346   5.948   0.220   5.412  0.2122 -0.0831  0.3324
11952TIP3    H157347   5.983   0.197   5.498  1.3932  0.6901  0.0878
11952TIP3    H257348   5.886   0.292   5.429  1.6688  1.2150  0.4115
11953TIP3   OH257349   2.523   1.364  14.530 -0.2381 -0.2006 -0.5800
11953TIP3    H157350   2.441   1.323  14.503 -1.3208  1.0407  0.6602
11953TIP3    H257351   2.587   1.292  14.529 -1.8058 -1.6917  0.4315
11954TIP3   OH257352   5.404   3.860   2.462  0.0313 -0.4219  0.1688
11954TIP3    H157353   5.375   3.808   2.386 -1.8982  0.9303 -0.0794
11954TIP3    H257354   5.429   3.795   2.527  1.3357 -1.6292 -1.4539
11955TIP3   OH257355   1.027   2.211  13.921 -0.0808 -0.5241  0.2511
11955TIP3    H157356   0.952   2.265  13.945 -0.0094 -0.2577 -0.1144
11955TIP3    H257357   1.078   2.202  14.001  0.5205  0.9263  0.0612
11956TIP3   OH257358   6.411   3.644   3.922 -0.4758 -0.4115 -0.0725
11956TIP3    H157359   6.330   3.682   3.956 -0.5688 -1.4355  0.9252
11956TIP3    H257360   6.420   3.681   3.835 -1.7136  0.1684  0.0210
11957TIP3   OH257361   3.504   4.223  11.217 -0.5163 -0.0859 -0.1993
11957TIP3    H157362   3.545   4.143  11.249 -2.0405 -0.3825  1.1161
11957TIP3    H257363   3.419   4.226  11.259 -0.6847  2.0324 -0.5359
11958TIP3   OH257364   6.180   5.214   2.636 -0.6185  0.4471  0.4518
11958TIP3    H157365   6.257   5.175   2.678  0.4140  1.9014 -0.0112
11958TIP3    H257366   6.200   5.211   2.542 -0.2589  2.4992  0.4273
11959TIP3   OH257367   0.255   3.545  13.730 -0.1661 -0.6662  0.2070
11959TIP3    H157368   0.196   3.524  13.658  0.9099 -0.6068 -0.7228
11959TIP3    H257369   0.260   3.465  13.782 -0.2393 -1.0122 -0.3136
11960TIP3   OH257370   6.479   4.308  16.995 -0.3658  0.1977 -0.0222
11960TIP3    H157371   6.446   4.345  16.913  0.8186 -0.4865 -0.8516
11960TIP3    H257372   6.410   4.248  17.023 -0.3519 -0.3675 -1.1106
11961TIP3   OH257373   5.887   3.171   4.713 -0.1634  0.3580  0.1790
11961TIP3    H157374   5.821   3.110   4.678 -1.5285  1.3029  0.9887
11961TIP3    H257375   5.899   3.235   4.642  1.2096 -0.7452 -0.6391
11962TIP3   OH257376   3.312   1.858   3.107  0.1354 -0.4253  0.2067
11962TIP3    H157377   3.222   1.826   3.106  0.1648 -0.5101 -0.3313
11962TIP3    H257378   3.325   1.893   3.019  0.1772  0.8775  0.7088
11963TIP3   OH257379   4.006   6.029   2.370 -0.1342 -0.0123  0.0256
11963TIP3    H157380   4.000   5.975   2.449  1.5400 -1.1482 -0.5714
11963TIP3    H257381   3.981   6.116   2.399 -1.3522 -0.7668  1.3800
11964TIP3   OH257382   0.631   1.417  10.062  0.3637  0.1083 -0.2158
11964TIP3    H157383   0.657   1.508  10.079 -3.2644  1.6112 -1.7202
11964TIP3    H257384   0.593   1.388  10.145  0.7411  0.2583  0.0144
11965TIP3   OH257385   3.942   4.754   3.507 -0.3138 -0.1567 -0.0011
11965TIP3    H157386   3.939   4.816   3.433 -2.6630 -0.6021 -0.3456
11965TIP3    H257387   3.876   4.787   3.568  0.5388 -0.6611  1.2240
11966TIP3   OH257388   6.323   5.921   0.686 -0.2892 -0.2696  0.3823
11966TIP3    H157389   6.338   6.015   0.681  2.6435 -0.6950 -1.3480
11966TIP3    H257390   6.346   5.897   0.775  0.6771  0.4322  0.3345
11967TIP3   OH257391   3.998   3.176   1.375  0.0922  0.0113  0.7281
11967TIP3    H157392   3.993   3.103   1.313 -0.3514  0.5165  0.1596
11967TIP3    H257393   4.091   3.182   1.396  0.2077 -0.3587  0.3440
11968TIP3   OH257394   5.239   6.732   2.894 -0.8602 -0.4340  0.6589
11968TIP3    H157395   5.188   6.651   2.898 -0.6978 -0.5425  0.5048
11968TIP3    H257396   5.178   6.800   2.924 -2.2843  0.0297 -2.7873
11969TIP3   OH257397   0.003   6.464  16.882 -0.0648 -0.5886  0.1868
11969TIP3    H157398  -0.078   6.418  16.860 -0.1193 -0.2424 -0.3369
11969TIP3    H257399   0.058   6.454  16.805 -0.7611  1.7889 -0.7065
11970TIP3   OH257400   4.853   6.601   1.943  0.2006 -0.4571  0.4307
11970TIP3    H157401   4.911   6.677   1.942  0.6722 -0.7535  2.0016
11970TIP3    H257402   4.886   6.545   1.873  0.8180  0.0862  0.2783
11971TIP3   OH257403   4.484   2.535   4.415  0.3494  0.2231 -0.5569
11971TIP3    H157404   4.467   2.591   4.340 -1.3402 -0.6664 -0.9026
11971TIP3    H257405   4.575   2.507   4.405  0.7845  1.7368 -1.1310
11972TIP3   OH257406   0.353   3.618  12.955 -0.2898 -0.2416  0.2704
11972TIP3    H157407   0.322   3.527  12.959 -0.0133 -0.3790 -0.5914
11972TIP3    H257408   0.386   3.628  12.866  0.2557  0.5180  0.5493
11973TIP3   OH257409   3.827   5.491   3.635 -0.1690 -0.0531  0.0541
11973TIP3    H157410   3.796   5.514   3.723  0.9800 -0.4599  0.5763
11973TIP3    H257411   3.776   5.413   3.612  1.0081 -1.2385  1.2689
11974TIP3   OH257412   5.029   1.677  14.976  0.0591  0.0389 -0.3164
11974TIP3    H157413   5.015   1.593  14.931 -0.4028 -0.2171  0.2806
11974TIP3    H257414   5.116   1.669  15.014  1.1252  0.8750 -2.4420
11975TIP3   OH257415   4.358   5.700  16.245  0.3527 -0.8192 -0.1589
11975TIP3    H157416   4.311   5.756  16.307 -0.6985 -1.9123  0.0625
11975TIP3    H257417   4.299   5.692  16.170  0.7689 -1.1115 -0.4606
11976TIP3   OH257418   3.836   5.536  17.033  0.3514 -0.1612  0.0849
11976TIP3    H157419   3.917   5.585  17.016  0.3532  0.2793  1.2332
11976TIP3    H257420   3.770   5.582  16.981  0.5562  0.4341  0.3327
11977TIP3   OH257421   5.581   2.838   4.809  0.4246 -0.3797  0.2625
11977TIP3    H157422   5.529   2.842   4.890  1.4624 -1.5510  1.0240
11977TIP3    H257423   5.671   2.850   4.837  0.6772  0.8159 -0.9483
11978TIP3   OH257424   6.041   0.035   6.033 -0.1661  0.4613  0.0235
11978TIP3    H157425   6.116   0.090   6.054  0.0035  0.2742 -0.0853
11978TIP3    H257426   6.079  -0.048   6.005 -0.4322 -0.1956  1.5253
11979TIP3   OH257427   0.597   4.318   5.617 -0.5727  0.0704 -0.2142
11979TIP3    H157428   0.583   4.381   5.547  1.9653  1.2712  0.2456
11979TIP3    H257429   0.510   4.305   5.655 -1.5238  1.5795 -1.7366
11980TIP3   OH257430   3.522   4.753   3.597  0.7774  0.0654 -0.4977
11980TIP3    H157431   3.528   4.805   3.677 -1.9310  0.5879 -0.5482
11980TIP3    H257432   3.491   4.667   3.627  0.9649 -0.1316 -0.8603
11981TIP3   OH257433   0.998   3.534   6.661  0.3404  0.0953 -0.1020
11981TIP3    H157434   0.929   3.485   6.616 -0.8413  1.3580  0.2855
11981TIP3    H257435   1.073   3.473   6.663 -0.4896 -1.0152 -1.2172
11982TIP3   OH257436   0.896   0.368  16.174  0.2581 -0.2783 -0.7490
11982TIP3    H157437   0.866   0.367  16.083 -1.8796  0.7225 -0.1088
11982TIP3    H257438   0.903   0.461  16.196 -2.2687 -0.4004  0.9698
11983TIP3   OH257439   0.115   0.542   1.025 -0.0462 -0.3088 -0.0640
11983TIP3    H157440   0.084   0.627   0.995 -0.3767 -1.0911 -2.0615
11983TIP3    H257441   0.036   0.488   1.029  0.3308 -0.8611 -0.0397
11984TIP3   OH257442   3.009   3.791   1.960  0.1259 -0.0274  0.0980
11984TIP3    H157443   2.992   3.866   1.903  1.3262  0.7810  0.7619
11984TIP3    H257444   3.080   3.819   2.017 -0.0352 -1.3461  1.0090
11985TIP3   OH257445   6.323   2.885   2.488 -0.6982 -0.3850  0.4967
11985TIP3    H157446   6.320   2.904   2.395 -2.1416 -1.3417  0.3122
11985TIP3    H257447   6.347   2.793   2.494  0.5643 -0.0421  1.1446
11986TIP3   OH257448   5.084   5.456  15.424 -0.1564  0.7056 -0.1340
11986TIP3    H157449   5.078   5.458  15.519 -1.4087  1.9725 -0.2042
11986TIP3    H257450   5.166   5.501  15.404  0.3146  0.0683  0.3490
11987TIP3   OH257451   4.119   1.520   4.257 -0.4976 -0.4545 -0.1228
11987TIP3    H157452   4.082   1.608   4.261 -0.4747 -0.4851  1.4052
11987TIP3    H257453   4.049   1.463   4.287 -0.7716 -1.0817 -1.8301
11988TIP3   OH257454   0.934   6.855  15.292  0.8363 -0.2315  0.7273
11988TIP3    H157455   1.006   6.809  15.249  1.7578  1.1395  0.7437
11988TIP3    H257456   0.976   6.925  15.340 -0.5509  0.8807  0.3778
11989TIP3   OH257457   6.782   5.487   4.540 -0.0836 -0.6307  0.3630
11989TIP3    H157458   6.727   5.454   4.469 -1.8175 -0.8312  1.7354
11989TIP3    H257459   6.720   5.518   4.606  1.4834  0.2321  1.4849
11990TIP3   OH257460   4.706   1.180  15.256  0.7064  0.7019  0.1396
11990TIP3    H157461   4.759   1.150  15.329  1.5561  2.1405  0.1707
11990TIP3    H257462   4.737   1.129  15.181  1.3707  0.7506  0.3748
11991TIP3   OH257463   1.604   1.410  16.083 -0.3326  0.3569  0.1128
11991TIP3    H157464   1.623   1.447  16.169  0.9683  2.6049 -1.0493
11991TIP3    H257465   1.641   1.322  16.086  3.6132  1.8246  0.5457
11992TIP3   OH257466   5.581   0.917  16.461  0.0356  0.1160  0.3229
11992TIP3    H157467   5.591   0.870  16.378  1.0406  0.4324  0.2443
11992TIP3    H257468   5.551   1.004  16.437  2.4218  0.9474  0.0457
11993TIP3   OH257469   4.399   5.263   3.338 -0.3392  0.1796  0.2030
11993TIP3    H157470   4.469   5.245   3.400  0.1651 -0.4722 -0.5344
11993TIP3    H257471   4.412   5.354   3.312  1.1713 -0.3544 -1.0530
11994TIP3   OH257472   3.701   0.815  12.425  0.0187  0.4603 -0.2373
11994TIP3    H157473   3.792   0.846  12.426  0.5517 -1.0379  0.6057
11994TIP3    H257474   3.653   0.885  12.382  1.3106  1.9857  0.7059
11995TIP3   OH257475   1.772   0.244   1.967  0.1509  0.5003 -1.0186
11995TIP3    H157476   1.855   0.258   2.015 -0.8048 -0.3383  0.9989
11995TIP3    H257477   1.736   0.332   1.957 -1.1223  0.6156  2.8063
11996TIP3   OH257478   0.638   3.087  16.017 -0.2193  0.2863 -0.4756
11996TIP3    H157479   0.566   3.149  16.010  0.8538  1.9422  1.8438
11996TIP3    H257480   0.607   3.022  16.080  0.6146  1.6363  1.4316
11997TIP3   OH257481   4.341   6.507   3.394 -0.2351  0.4190 -0.2846
11997TIP3    H157482   4.331   6.602   3.389 -3.0320  0.1521 -1.0603
11997TIP3    H257483   4.321   6.486   3.486 -1.8086  0.4106 -0.6090
11998TIP3   OH257484   2.440   5.834  14.465 -0.1158 -0.4043 -0.2454
11998TIP3    H157485   2.454   5.923  14.498  0.3399  0.4147 -2.4410
11998TIP3    H257486   2.344   5.828  14.457 -0.1704 -0.2411  0.2203
11999TIP3   OH257487   1.305   5.857   5.786 -0.3612  0.1669  0.3098
11999TIP3    H157488   1.298   5.787   5.851 -0.5951 -0.3319 -0.2455
11999TIP3    H257489   1.396   5.887   5.793 -0.4643  0.3444  1.0820
12000TIP3   OH257490   4.231   5.376  11.013 -0.1088  0.2770  0.4496
12000TIP3    H157491   4.272   5.445  11.066  0.4634 -1.7364  2.8357
12000TIP3    H257492   4.267   5.387  10.925  0.9295  2.2052  1.0727
12001TIP3   OH257493   2.300   3.967   2.170 -0.2600  0.3059  0.3032
12001TIP3    H157494   2.360   4.012   2.111 -0.7700 -0.7816 -1.1077
12001TIP3    H257495   2.220   3.956   2.118 -1.2561  0.5963  1.7080
12002TIP3   OH257496   3.991   0.441  14.208  0.2357  0.1698 -0.3719
12002TIP3    H157497   3.903   0.417  14.180  0.1554  0.2030 -0.1510
12002TIP3    H257498   4.020   0.506  14.144 -0.0884  0.5206 -0.1650
12003TIP3   OH257499   5.889   5.925   1.426  0.0105  0.1087 -0.1656
12003TIP3    H157500   5.967   5.975   1.402  0.7588 -1.8487 -2.1251
12003TIP3    H257501   5.819   5.962   1.372 -0.1477  1.0141  0.6419
12004TIP3   OH257502   0.104   6.614  13.356 -0.4677  0.7751  0.2198
12004TIP3    H157503   0.070   6.623  13.267  1.4028 -0.4807 -0.6922
12004TIP3    H257504   0.197   6.635  13.347 -0.2468  0.6056  1.8853
12005TIP3   OH257505   0.873   2.822  15.880  0.4560  0.3547  0.5643
12005TIP3    H157506   0.932   2.884  15.923  0.5383 -0.4006  1.5667
12005TIP3    H257507   0.931   2.764  15.830  0.6821 -0.8841  2.1801
12006TIP3   OH257508   2.748   6.478  15.281  0.1790  0.0700 -0.3239
12006TIP3    H157509   2.672   6.473  15.223 -0.2349 -0.5359  0.2689
12006TIP3    H257510   2.745   6.567  15.316  1.9532  1.4340 -3.2539
12007TIP3   OH257511   4.795   5.548  15.905 -0.4625  0.9805 -0.0602
12007TIP3    H157512   4.837   5.593  15.832 -1.4861  0.5038 -0.9750
12007TIP3    H257513   4.759   5.618  15.959  0.1952  1.3325 -0.0652
12008TIP3   OH257514   6.827   4.797  13.269 -0.1293  0.0321  0.1099
12008TIP3    H157515   6.749   4.843  13.238 -0.5106 -0.5098  0.2362
12008TIP3    H257516   6.820   4.710  13.230  0.3011 -0.0894  0.2974
12009TIP3   OH257517   0.670   4.118  15.023  0.2217 -0.0788  0.2460
12009TIP3    H157518   0.662   4.173  15.101  0.4955  0.0842  0.1610
12009TIP3    H257519   0.676   4.029  15.057  0.6655  0.0166  0.4330
12010TIP3   OH257520   0.419   6.089   1.080 -0.4004  0.1696  0.4346
12010TIP3    H157521   0.360   6.152   1.040 -0.7281 -0.9126 -0.8626
12010TIP3    H257522   0.506   6.129   1.074 -0.5815  0.4444 -0.5230
12011TIP3   OH257523   1.812   0.888   0.889 -0.0939  0.0049  0.1117
12011TIP3    H157524   1.753   0.848   0.826 -0.2824  0.7361 -0.1900
12011TIP3    H257525   1.899   0.876   0.851 -0.1879  0.2506 -0.1863
12012TIP3   OH257526   6.684   5.350   1.366  0.6371  1.0767  0.5433
12012TIP3    H157527   6.636   5.292   1.426 -0.0253 -1.6789 -2.3601
12012TIP3    H257528   6.776   5.332   1.384  0.4455 -0.5270  0.1341
12013TIP3   OH257529   4.047   4.658   2.512  0.0502 -0.0447 -0.4814
12013TIP3    H157530   4.110   4.721   2.547  0.0004 -0.3255  0.1329
12013TIP3    H257531   4.068   4.652   2.419  1.9186 -1.2375 -0.0372
12014TIP3   OH257532   5.476   1.351  11.796  0.3848 -0.3903 -0.1029
12014TIP3    H157533   5.401   1.292  11.794 -1.6306  1.9743 -0.5595
12014TIP3    H257534   5.524   1.332  11.715 -1.3200 -0.1443 -1.2359
12015TIP3   OH257535   3.221   2.856   5.882 -0.2330 -0.1730 -0.1025
12015TIP3    H157536   3.288   2.891   5.942  1.2917  0.0735 -1.8677
12015TIP3    H257537   3.138   2.882   5.922  0.7650  1.6992  0.9160
12016TIP3   OH257538   4.675   4.214  15.270  0.3579 -0.1097  0.2292
12016TIP3    H157539   4.722   4.282  15.222 -1.6196 -0.5545 -2.6190
12016TIP3    H257540   4.592   4.255  15.295 -0.6419 -1.2579 -1.0748
12017TIP3   OH257541   2.805   1.625  10.962 -0.0189 -0.1268 -0.4731
12017TIP3    H157542   2.855   1.668  10.892 -0.2621  1.1607  0.1298
12017TIP3    H257543   2.714   1.651  10.946 -0.0250  0.5221  0.5522
12018TIP3   OH257544   6.291   5.591   3.360  0.5298  0.1601 -0.5215
12018TIP3    H157545   6.322   5.561   3.445  1.2433 -3.0362 -1.7493
12018TIP3    H257546   6.214   5.646   3.380  0.2774 -0.9953  2.1292
12019TIP3   OH257547   3.614   6.836  10.962 -0.1927  0.1717 -0.3429
12019TIP3    H157548   3.690   6.799  10.918 -0.5876 -0.5190 -0.4657
12019TIP3    H257549   3.539   6.795  10.919 -0.6327  0.6791 -0.0816
12020TIP3   OH257550   4.348   5.035  11.714 -0.7004  0.3471 -0.1860
12020TIP3    H157551   4.371   4.945  11.738  0.4111  0.8775  0.8200
12020TIP3    H257552   4.263   5.049  11.754 -0.6631 -0.0955  0.0591
12021TIP3   OH257553   2.609   1.994  12.937  0.7124  0.3648  0.2971
12021TIP3    H157554   2.564   2.019  13.018 -1.3322  1.8824 -1.2169
12021TIP3    H257555   2.665   2.068  12.916 -2.1692  2.1393 -1.9414
12022TIP3   OH257556   3.357   4.736  15.299  0.8961 -0.5711  0.7647
12022TIP3    H157557   3.399   4.822  15.300  3.4712 -1.7407  0.6030
12022TIP3    H257558   3.302   4.735  15.377  0.3371  1.4031  0.4490
12023TIP3   OH257559   2.135   1.767  17.089  0.9463  0.0904  0.4276
12023TIP3    H157560   2.107   1.760  17.180 -1.3076 -1.0282 -0.2603
12023TIP3    H257561   2.123   1.860  17.068 -1.3209 -0.1240  0.5295
12024TIP3   OH257562   6.452   3.133  12.905  0.4642  0.3099  0.0204
12024TIP3    H157563   6.416   3.211  12.863 -0.1611 -0.3542 -0.7037
12024TIP3    H257564   6.387   3.064  12.889 -0.5505  0.3116  3.2783
12025TIP3   OH257565   4.954   1.421  15.340 -0.1696 -0.2724  0.0001
12025TIP3    H157566   4.970   1.395  15.249  1.6454 -3.0532  0.9720
12025TIP3    H257567   4.860   1.409  15.352 -0.1669 -1.6849 -1.0553
12026TIP3   OH257568   2.428   5.564  16.346  0.1544 -0.4189  0.0828
12026TIP3    H157569   2.484   5.538  16.273 -0.1413 -0.1915 -0.2267
12026TIP3    H257570   2.392   5.648  16.320  0.5679 -0.0129  0.7821
12027TIP3   OH257571   0.760   2.529   4.444  0.4679  0.5837 -0.5930
12027TIP3    H157572   0.798   2.519   4.531  1.4141  1.3585 -0.8917
12027TIP3    H257573   0.834   2.551   4.388  0.0957 -1.1905 -1.8708
12028TIP3   OH257574   6.250   2.996   1.314  0.0993  0.9447 -0.0135
12028TIP3    H157575   6.203   2.945   1.248 -0.3530 -0.7008  1.5181
12028TIP3    H257576   6.334   3.016   1.273 -0.0824 -0.2221 -1.0173
12029TIP3   OH257577   3.560   0.690  13.121  0.1217 -0.4859 -0.3886
12029TIP3    H157578   3.509   0.680  13.041 -0.0799 -0.5286 -0.2574
12029TIP3    H257579   3.494   0.707  13.189  0.3790  0.8422 -0.4460
12030TIP3   OH257580   5.261   0.504   4.918  0.4782  0.1975  0.1526
12030TIP3    H157581   5.340   0.514   4.866  0.2100 -0.0323 -0.3060
12030TIP3    H257582   5.264   0.415   4.951 -1.2644 -1.1099 -2.7532
12031TIP3   OH257583   6.257   0.555   5.205 -0.4561 -0.0730  0.2229
12031TIP3    H157584   6.199   0.512   5.142  0.7900 -0.6273 -0.5960
12031TIP3    H257585   6.239   0.513   5.288 -1.8607  0.4003  0.1773
12032TIP3   OH257586   0.795   5.412   6.380  0.1203 -0.3628 -0.6322
12032TIP3    H157587   0.719   5.400   6.322  1.3300 -2.6087 -1.8598
12032TIP3    H257588   0.804   5.329   6.426  1.7540 -0.0935 -0.4023
12033TIP3   OH257589   6.682   4.997   3.320  0.6434 -0.1406  0.4026
12033TIP3    H157590   6.711   5.064   3.258  1.3561 -1.7938 -1.1604
12033TIP3    H257591   6.683   5.041   3.405  2.8873  1.3246 -0.2803
12034TIP3   OH257592   6.634   1.280  15.293 -0.3410  0.0630  0.5933
12034TIP3    H157593   6.566   1.244  15.236 -1.0934 -0.8656  1.9977
12034TIP3    H257594   6.619   1.375  15.292 -0.3412  0.0688 -0.6960
12035TIP3   OH257595   5.338   6.623   0.481  0.2884 -0.0133 -0.1988
12035TIP3    H157596   5.338   6.539   0.528 -0.3459  0.4717  0.6892
12035TIP3    H257597   5.381   6.684   0.540  1.2766  0.1803 -1.0876
12036TIP3   OH257598   1.707   0.142   1.631 -0.2096  0.3347 -0.1354
12036TIP3    H157599   1.671   0.062   1.669  0.5797 -0.5214 -1.1364
12036TIP3    H257600   1.677   0.212   1.689 -0.3723 -0.7512  1.1257
12037TIP3   OH257601   2.764   1.945   2.581  0.4716  0.2410 -0.1768
12037TIP3    H157602   2.755   1.943   2.485 -0.7096  1.0757 -0.0943
12037TIP3    H257603   2.780   1.853   2.605 -0.9079 -0.2506 -1.0266
12038TIP3   OH257604   3.768   5.129   0.809  0.0167 -0.2756  0.2366
12038TIP3    H157605   3.710   5.132   0.733  0.0394  0.5713  0.2411
12038TIP3    H257606   3.809   5.043   0.804 -0.1125 -0.3010 -0.6114
12039TIP3   OH257607   3.920   0.446   1.212  0.4357  0.3194 -0.1605
12039TIP3    H157608   3.935   0.408   1.125 -1.6939 -1.1922  0.0392
12039TIP3    H257609   3.866   0.524   1.196  0.6495  0.4485 -0.2479
12040TIP3   OH257610   4.869   2.853   3.518  0.0180  0.3509 -0.1839
12040TIP3    H157611   4.846   2.790   3.587 -0.3678  0.1648 -0.4813
12040TIP3    H257612   4.924   2.918   3.563 -1.1306  0.8457  0.5701
12041TIP3   OH257613   6.207   2.920  15.602  0.1307  0.6925 -0.0820
12041TIP3    H157614   6.169   2.851  15.656  0.0295 -0.1408 -1.1966
12041TIP3    H257615   6.288   2.945  15.648  0.6818 -0.8528 -0.1749
12042TIP3   OH257616   6.371   4.737   1.464  0.3372  0.1768 -0.3850
12042TIP3    H157617   6.442   4.801   1.459  0.2108  0.3327 -0.2160
12042TIP3    H257618   6.414   4.654   1.483  0.5516  0.1086 -1.1606
12043TIP3   OH257619   4.838   1.701  13.864  0.3083 -0.2015  0.5098
12043TIP3    H157620   4.873   1.753  13.937  0.8277 -0.1234  0.2086
12043TIP3    H257621   4.885   1.617  13.870 -0.5695 -0.6734  1.0335
12044TIP3   OH257622   4.713   1.069   4.684  0.0406  0.3112  0.2302
12044TIP3    H157623   4.621   1.062   4.658  0.1053  0.3367 -0.0057
12044TIP3    H257624   4.760   1.018   4.619  0.7460  4.2058 -2.6746
12045TIP3   OH257625   2.408   3.679  10.848  0.1851  0.0760 -0.7703
12045TIP3    H157626   2.379   3.709  10.762 -1.9441  1.7115  0.4024
12045TIP3    H257627   2.327   3.657  10.894  1.2772 -0.8368  0.7892
12046TIP3   OH257628   6.118   6.656  12.670  0.1174  0.2682  0.5570
12046TIP3    H157629   6.165   6.580  12.703  3.0253  1.6483 -0.1012
12046TIP3    H257630   6.118   6.717  12.743  3.4188  1.9470 -0.6421
12047TIP3   OH257631   0.893   3.649   4.814  0.5803  0.3293  0.1343
12047TIP3    H157632   0.843   3.576   4.849  0.5871  0.4179  0.3279
12047TIP3    H257633   0.985   3.623   4.824  0.6599  1.1538  1.9667
12048TIP3   OH257634   1.365   3.016  13.641  0.1840 -0.1189  0.0893
12048TIP3    H157635   1.279   2.975  13.651  0.8672 -1.7537 -0.3970
12048TIP3    H257636   1.367   3.046  13.550  0.3201 -0.5197 -0.0380
12049TIP3   OH257637   1.913   3.624  15.532  0.6076 -0.0583  0.0695
12049TIP3    H157638   1.986   3.672  15.493  0.4459  0.3986  0.3360
12049TIP3    H257639   1.890   3.558  15.466  0.6644  0.3862 -0.3925
12050TIP3   OH257640   0.719   5.311   0.552 -0.0817  0.0302 -0.0485
12050TIP3    H157641   0.651   5.301   0.618  0.9083  1.8182  1.3357
12050TIP3    H257642   0.694   5.390   0.503  0.7427  0.4297  0.1633
12051TIP3   OH257643   4.436   4.162  12.214 -0.2443  0.4124 -0.2210
12051TIP3    H157644   4.501   4.229  12.195  1.3151 -0.9875  0.0074
12051TIP3    H257645   4.407   4.181  12.303  1.3718 -0.1270  0.4457
12052TIP3   OH257646   1.975   3.126   1.437 -0.3429  0.5405 -0.1406
12052TIP3    H157647   1.882   3.102   1.443 -0.2761  0.3922  0.3493
12052TIP3    H257648   1.975   3.214   1.398 -0.6890  0.5443 -0.1323
12053TIP3   OH257649   6.834   1.914  12.378 -0.5305 -0.4751 -0.6480
12053TIP3    H157650   6.801   1.872  12.458 -2.2966  0.6047 -0.7423
12053TIP3    H257651   6.863   2.000  12.408 -1.1429 -0.0910 -1.1497
12054TIP3   OH257652   1.873   6.699   1.689 -0.1904  0.0761  0.6195
12054TIP3    H157653   1.787   6.694   1.730 -1.3876 -0.3378 -1.7436
12054TIP3    H257654   1.906   6.786   1.710 -1.7024  0.6615  0.6398
12055TIP3   OH257655   0.222   4.320  15.693  0.7002 -0.4071 -0.5276
12055TIP3    H157656   0.230   4.393  15.754  1.0209 -0.7825 -0.1149
12055TIP3    H257657   0.251   4.356  15.609 -2.3676  0.9177 -1.1390
12056TIP3   OH257658   5.896   4.149  13.509  0.2641 -0.2311 -0.6241
12056TIP3    H157659   5.807   4.145  13.474 -0.1768 -1.2076  0.5522
12056TIP3    H257660   5.942   4.209  13.450 -0.9059 -0.4586 -1.8104
12057TIP3   OH257661   5.333   6.556   5.699  0.2127 -0.2547  0.1012
12057TIP3    H157662   5.421   6.568   5.735  0.1531 -0.3588  0.2815
12057TIP3    H257663   5.335   6.469   5.660 -0.5689 -1.3581  2.3462
12058TIP3   OH257664   3.904   4.996  11.745 -0.0967  0.3254  0.6816
12058TIP3    H157665   3.841   5.029  11.808  0.0739  3.3816 -0.5832
12058TIP3    H257666   3.888   4.901  11.742 -2.7713  0.6429  2.3260
12059TIP3   OH257667   4.680   4.675   5.659  0.1472  0.3509  0.0491
12059TIP3    H157668   4.741   4.748   5.646 -0.2429  1.0156  1.7274
12059TIP3    H257669   4.737   4.599   5.670  0.6460  0.7886  0.5803
12060TIP3   OH257670   3.904   2.305  16.172  0.3061 -0.3685 -0.6963
12060TIP3    H157671   3.913   2.255  16.091 -0.4472 -1.1143 -0.3264
12060TIP3    H257672   3.963   2.261  16.234 -0.4980 -0.9187 -0.3176
12061TIP3   OH257673   1.576   1.809  12.334  0.7125 -0.8032 -0.2182
12061TIP3    H157674   1.520   1.798  12.411  1.7636 -2.0059  0.4129
12061TIP3    H257675   1.519   1.792  12.260 -0.0418 -0.8011  0.3561
12062TIP3   OH257676   5.135   6.546   3.310  0.7407 -0.0709 -0.7018
12062TIP3    H157677   5.102   6.613   3.250  0.3143  0.3095 -0.0533
12062TIP3    H257678   5.058   6.497   3.336  0.7256  0.5301  0.4670
12063TIP3   OH257679   0.337   2.555   6.055 -0.2346  0.0569  0.5787
12063TIP3    H157680   0.306   2.483   6.000  2.0621 -1.4071  1.0760
12063TIP3    H257681   0.342   2.630   5.995 -0.2952 -0.8374 -0.5706
12064TIP3   OH257682   2.712   5.648   2.429  0.0232  0.0518 -1.2055
12064TIP3    H157683   2.772   5.578   2.450 -0.1510  0.4544  0.7641
12064TIP3    H257684   2.763   5.728   2.439 -0.6462  0.3633 -0.1240
12065TIP3   OH257685   2.042   6.732   4.094  1.0401 -0.2805 -0.0197
12065TIP3    H157686   1.986   6.658   4.070  3.3888 -1.5560 -1.9858
12065TIP3    H257687   2.120   6.691   4.131  1.9127  1.2696 -0.0893
12066TIP3   OH257688   2.569   1.595  14.403  0.4527  0.4123  0.5907
12066TIP3    H157689   2.660   1.566  14.402 -0.3409 -2.4327 -0.9140
12066TIP3    H257690   2.520   1.520  14.437 -1.5971  0.7414 -1.3649
12067TIP3   OH257691   5.321   2.131  16.944 -0.2610  0.2947  0.5725
12067TIP3    H157692   5.236   2.157  16.910 -0.4045  0.2330  0.8841
12067TIP3    H257693   5.336   2.189  17.019 -0.9211 -0.9900  1.7455
12068TIP3   OH257694   4.374   1.260  12.384  0.7108 -1.0988  0.4772
12068TIP3    H157695   4.457   1.269  12.430  0.7668  0.4362  0.1300
12068TIP3    H257696   4.311   1.306  12.438  0.8049  0.8480 -0.9606
12069TIP3   OH257697   5.530   4.409   5.334  0.1930 -0.2878  0.4415
12069TIP3    H157698   5.577   4.420   5.417 -0.7832 -0.0042  0.9742
12069TIP3    H257699   5.564   4.327   5.298  1.0845 -0.0894  0.8024
12070TIP3   OH257700   0.271   4.876  16.451 -0.2811  0.3876 -0.7069
12070TIP3    H157701   0.250   4.871  16.544  0.2547  1.9131 -0.4799
12070TIP3    H257702   0.296   4.786  16.428 -1.9494 -0.3635  0.2157
12071TIP3   OH257703   1.530   3.878   4.349 -0.3695 -0.2996 -0.0051
12071TIP3    H157704   1.531   3.967   4.385  0.6466  0.5226 -1.8777
12071TIP3    H257705   1.438   3.855   4.343 -0.7662  1.4450 -1.2659
12072TIP3   OH257706   2.332   4.187   4.582 -0.0788  0.2747 -0.7527
12072TIP3    H157707   2.260   4.129   4.554 -1.0961  1.9926 -1.9140
12072TIP3    H257708   2.350   4.241   4.505 -0.5159  2.8182  0.8219
12073TIP3   OH257709   1.859   0.919  12.869 -0.1276  0.4153 -0.1562
12073TIP3    H157710   1.915   0.992  12.841  1.4945 -0.8760 -0.4431
12073TIP3    H257711   1.778   0.931  12.820 -0.4124  2.7015  0.7295
12074TIP3   OH257712   0.887   4.726   4.463 -0.3032  0.2814  0.3849
12074TIP3    H157713   0.890   4.746   4.369 -1.1038  2.3984  0.7594
12074TIP3    H257714   0.961   4.665   4.477  0.6535  0.9696 -1.3743
12075TIP3   OH257715   1.313   1.078   5.671 -0.1800 -0.7010 -0.4734
12075TIP3    H157716   1.225   1.084   5.709 -1.2389 -2.1750 -2.5059
12075TIP3    H257717   1.328   1.165   5.634 -0.0884  0.0386  1.1949
12076TIP3   OH257718   1.843   0.422  13.858 -0.6167  0.1545  0.5982
12076TIP3    H157719   1.843   0.516  13.874 -3.6329  0.3211  0.1492
12076TIP3    H257720   1.884   0.384  13.936 -1.0082  1.7317  1.6020
12077TIP3   OH257721   1.729   4.422  14.224  0.3668  0.3378  0.2880
12077TIP3    H157722   1.664   4.357  14.196  0.4091  0.2681  0.3501
12077TIP3    H257723   1.678   4.490  14.267  0.3500  0.2018  0.4872
12078TIP3   OH257724   4.868   0.744   4.726  0.0207  0.0008  0.1194
12078TIP3    H157725   4.938   0.700   4.677 -0.6622  0.2406 -1.1291
12078TIP3    H257726   4.908   0.770   4.809  1.5309  0.5240 -0.7407
12079TIP3   OH257727   4.205   2.304  12.211  0.2030 -0.0022  0.2719
12079TIP3    H157728   4.244   2.267  12.132  0.2970  1.5843 -0.4625
12079TIP3    H257729   4.132   2.357  12.180  0.1569  0.5374  1.2553
12080TIP3   OH257730   0.093   5.238   0.616  0.2457 -0.1360 -0.0696
12080TIP3    H157731   0.156   5.271   0.679  0.3385  0.5898 -0.5250
12080TIP3    H257732   0.074   5.149   0.645  1.2192 -0.2465  0.2663
12081TIP3   OH257733   3.896   3.667  13.166 -0.0924  0.4515 -0.5506
12081TIP3    H157734   3.859   3.670  13.255  0.3781  1.3986 -0.3697
12081TIP3    H257735   3.832   3.713  13.112 -0.3188 -0.0158 -0.6840
12082TIP3   OH257736   3.647   5.766  13.971  0.1985  0.0271  0.0338
12082TIP3    H157737   3.673   5.739  14.059  2.1247  1.6886  0.0396
12082TIP3    H257738   3.559   5.730  13.960 -0.0002 -0.4099  2.5305
12083TIP3   OH257739   5.790   0.470   6.104 -0.5904 -0.0003 -0.0395
12083TIP3    H157740   5.802   0.492   6.012  2.0039  0.3442  0.3127
12083TIP3    H257741   5.877   0.448   6.135 -1.6370 -1.5721  2.0033
12084TIP3   OH257742   1.264   3.160  14.665 -0.1065 -0.4164  0.2695
12084TIP3    H157743   1.328   3.154  14.736  0.1683 -0.9166 -0.0176
12084TIP3    H257744   1.293   3.235  14.613 -0.4316  0.0900  0.7966
12085TIP3   OH257745   4.399   5.237  14.272 -0.0379 -0.0734  0.1119
12085TIP3    H157746   4.494   5.227  14.263  0.0397 -0.7510  1.4465
12085TIP3    H257747   4.388   5.284  14.355 -0.8972 -1.0090  0.5443
12086TIP3   OH257748   1.585   3.671   4.526  0.4138 -0.5149 -0.0996
12086TIP3    H157749   1.506   3.632   4.488 -0.3995  1.0291 -0.1228
12086TIP3    H257750   1.603   3.746   4.469  1.5018 -0.4521  0.3120
12087TIP3   OH257751   6.019   0.681   4.255 -0.3980 -0.2603  0.7271
12087TIP3    H157752   6.064   0.618   4.310 -1.2774 -0.1043  1.6707
12087TIP3    H257753   6.065   0.679   4.171 -1.0867 -2.9962  0.3192
12088TIP3   OH257754   0.303   3.813  16.729  0.0702 -0.7365  0.2122
12088TIP3    H157755   0.369   3.842  16.792  1.0328 -0.5372 -0.8619
12088TIP3    H257756   0.317   3.718  16.723  0.2325 -0.6995  0.0111
12089TIP3   OH257757   3.067   1.123   1.181  0.7343 -0.0883 -0.2653
12089TIP3    H157758   3.118   1.203   1.164  1.1726 -0.2415  0.3213
12089TIP3    H257759   3.107   1.085   1.259 -0.6295  0.0875  0.5672
12090TIP3   OH257760   3.060   3.480   3.208 -0.1344 -0.3715  0.1809
12090TIP3    H157761   3.088   3.406   3.153  1.0429  0.6449 -0.6501
12090TIP3    H257762   3.075   3.557   3.153 -2.1101  0.4582  0.7310
12091TIP3   OH257763   6.817   0.118  15.016 -0.1376 -0.2135 -0.0483
12091TIP3    H157764   6.817   0.140  15.109  0.3691  1.6902 -0.4476
12091TIP3    H257765   6.908   0.128  14.989 -0.4352  0.2306 -0.9396
12092TIP3   OH257766   2.546   5.705   3.030  0.3992  0.0917  0.0383
12092TIP3    H157767   2.633   5.744   3.027  1.0553 -1.2381  0.9744
12092TIP3    H257768   2.490   5.775   3.064  0.6556  1.6419 -2.4454
12093TIP3   OH257769   3.487   5.301   0.456  0.2751 -0.0495  0.1543
12093TIP3    H157770   3.507   5.377   0.511 -0.9347 -0.3932  1.1146
12093TIP3    H257771   3.424   5.250   0.507  0.7183 -1.4780 -0.6644
12094TIP3   OH257772   4.741   2.346  14.255 -0.1250 -0.3273  0.3536
12094TIP3    H157773   4.707   2.348  14.345 -2.8206  2.4319 -0.5776
12094TIP3    H257774   4.800   2.421  14.250 -1.0175  0.3243 -0.5209
12095TIP3   OH257775   2.053   4.659  14.147 -0.2942 -0.5441  0.3770
12095TIP3    H157776   2.058   4.715  14.070 -0.6889 -2.2409 -0.9356
12095TIP3    H257777   2.052   4.570  14.112 -0.3186 -1.3690  2.3564
12096TIP3   OH257778   2.556   0.169   0.206 -0.4973 -0.4100  0.1051
12096TIP3    H157779   2.618   0.191   0.136 -0.5487  0.4502  0.3272
12096TIP3    H257780   2.601   0.192   0.287 -0.9641 -0.1285  0.2869
12097TIP3   OH257781   4.510   1.432  10.717 -0.3397  0.2284  0.3104
12097TIP3    H157782   4.456   1.425  10.639 -1.7063 -0.4802  1.2873
12097TIP3    H257783   4.563   1.352  10.717  0.4693  0.7557 -0.4595
12098TIP3   OH257784   0.446   4.623  13.505  0.2668  0.2053  0.3678
12098TIP3    H157785   0.381   4.672  13.454 -0.7462 -1.6922 -0.2333
12098TIP3    H257786   0.405   4.610  13.590  0.1308 -0.4267  0.2061
12099TIP3   OH257787   3.117   3.239   3.023  0.1539  0.2605 -0.5648
12099TIP3    H157788   3.208   3.211   3.015  0.3086  0.5360  0.1729
12099TIP3    H257789   3.066   3.158   3.014  0.5835 -0.2659  1.2969
12100TIP3   OH257790   6.678   1.049  16.151  0.2181 -0.2018  0.0647
12100TIP3    H157791   6.672   1.025  16.243  0.3661  0.1283  0.1629
12100TIP3    H257792   6.590   1.082  16.129  0.3397  0.2548  0.2439
12101TIP3   OH257793   4.137   1.129   0.452 -0.0787 -0.1240  0.1710
12101TIP3    H157794   4.143   1.112   0.546  0.1997  0.3387  0.2379
12101TIP3    H257795   4.127   1.042   0.413  1.4823 -0.4858  0.5061
12102TIP3   OH257796   0.504   4.928   4.771  0.1166 -0.2690 -0.8377
12102TIP3    H157797   0.492   4.984   4.694 -1.8023 -0.9873 -1.1270
12102TIP3    H257798   0.446   4.965   4.837  0.7198 -0.4624 -0.1924
12103TIP3   OH257799   5.797   4.998  11.181 -0.0214  0.7506 -0.3433
12103TIP3    H157800   5.745   5.045  11.116 -2.1968  0.4519  1.0757
12103TIP3    H257801   5.742   4.997  11.260  1.1442 -1.6862  0.5463
12104TIP3   OH257802   1.378   3.684   5.637  0.1374  0.2214 -0.0768
12104TIP3    H157803   1.381   3.780   5.638 -1.4052  0.3028 -0.7291
12104TIP3    H257804   1.435   3.658   5.709  1.3381  1.5963 -0.4915
12105TIP3   OH257805   3.206   2.765   1.668 -0.0094 -0.4263  0.1908
12105TIP3    H157806   3.238   2.800   1.585  0.1347  0.9655  0.8120
12105TIP3    H257807   3.265   2.800   1.734  0.6106 -2.4952  0.8030
12106TIP3   OH257808   6.380   5.899  16.378  0.0119 -0.1255 -0.3176
12106TIP3    H157809   6.355   5.848  16.455 -0.5907 -0.1755 -0.5427
12106TIP3    H257810   6.377   5.836  16.305 -1.1846  0.3315 -0.6751
12107TIP3   OH257811   1.757   1.385   2.793  0.3701  0.1244 -0.0069
12107TIP3    H157812   1.732   1.469   2.755 -0.6679 -0.1822 -0.0525
12107TIP3    H257813   1.689   1.368   2.859 -0.8049 -1.7527 -1.5858
12108TIP3   OH257814   6.739   3.054  15.395 -0.4389 -0.7637 -0.0788
12108TIP3    H157815   6.665   3.113  15.380 -0.7840 -0.8863  1.0193
12108TIP3    H257816   6.777   3.084  15.478  1.2566 -0.1933 -0.9961
12109TIP3   OH257817   2.999   0.487  10.306 -0.0134 -0.3140  0.5191
12109TIP3    H157818   3.095   0.491  10.310  0.2190  0.9839 -3.0959
12109TIP3    H257819   2.981   0.419  10.241 -1.3594  1.6625 -1.2932
12110TIP3   OH257820   1.903   3.072   3.963 -0.3763 -0.5491 -0.3932
12110TIP3    H157821   1.879   3.037   4.049  2.0272  1.6344  1.3259
12110TIP3    H257822   1.971   3.012   3.931 -1.8962 -1.8730 -1.2657
12111TIP3   OH257823   4.968   1.539   1.997  0.6693  0.1473  0.1783
12111TIP3    H157824   5.015   1.529   2.080  0.5037  1.6745  0.5005
12111TIP3    H257825   4.896   1.599   2.019  0.0177 -0.2417 -0.8486
12112TIP3   OH257826   4.901   5.776  11.990 -0.0303 -0.3916  0.6150
12112TIP3    H157827   4.908   5.800  11.897  3.9895 -0.2110  0.7630
12112TIP3    H257828   4.936   5.687  11.994 -0.1266 -0.3810  1.9478
12113TIP3   OH257829   3.570   4.530   3.928 -0.4679 -0.2711 -0.2044
12113TIP3    H157830   3.543   4.615   3.893 -0.9203 -1.3669 -2.6580
12113TIP3    H257831   3.666   4.533   3.925 -0.4961 -0.4480 -1.8926
12114TIP3   OH257832   0.671   4.072  13.330 -0.1435  0.2324 -0.6197
12114TIP3    H157833   0.624   4.129  13.270 -0.4253 -0.4244 -1.0200
12114TIP3    H257834   0.751   4.048  13.284 -0.6911 -0.8507 -1.0332
12115TIP3   OH257835   3.093   6.522   0.663 -0.1087  0.1008 -0.0431
12115TIP3    H157836   3.180   6.483   0.660  0.5069  1.4585 -1.1642
12115TIP3    H257837   3.105   6.603   0.712 -1.1956 -0.6868  1.5905
12116TIP3   OH257838   4.319   2.436   2.566  0.1389  0.3180 -0.2588
12116TIP3    H157839   4.261   2.428   2.490 -0.9709  3.2354  0.1616
12116TIP3    H257840   4.263   2.416   2.641  0.5540 -0.0371 -0.0415
12117TIP3   OH257841   6.366   4.947  12.171  0.3168 -0.0766 -0.0633
12117TIP3    H157842   6.286   4.896  12.161  0.0783  0.6629 -2.3613
12117TIP3    H257843   6.403   4.952  12.083  2.1563  0.8139  0.6965
12118TIP3   OH257844   0.105   3.739   2.520  0.6876 -0.1066  0.3938
12118TIP3    H157845   0.044   3.743   2.593 -0.9068 -2.7227 -0.6488
12118TIP3    H257846   0.190   3.727   2.560  0.3073  1.5456  1.8323
12119TIP3   OH257847   4.329   5.470  14.454  0.2713  0.1078 -0.0221
12119TIP3    H157848   4.289   5.510  14.377 -0.2543 -0.9596 -0.3181
12119TIP3    H257849   4.269   5.489  14.525  0.6861  0.9736  0.1007
12120TIP3   OH257850   4.471   0.998  12.761 -0.3121 -0.0167  0.1172
12120TIP3    H157851   4.408   0.996  12.832  0.6835 -3.2060  1.0510
12120TIP3    H257852   4.444   0.928  12.702 -0.0057  1.3226 -1.7179
12121TIP3   OH257853   4.555   5.896  14.726  0.2122  0.4162 -0.4913
12121TIP3    H157854   4.628   5.836  14.711  0.8858  1.6523 -2.6698
12121TIP3    H257855   4.481   5.856  14.680 -0.0022  0.0779  0.1371
12122TIP3   OH257856   0.234   1.357  15.852  0.2700  0.1495 -0.4323
12122TIP3    H157857   0.182   1.400  15.784  1.0926  0.2596 -1.0147
12122TIP3    H257858   0.222   1.410  15.930  1.0576  1.3006 -1.0674
12123TIP3   OH257859   2.559   3.266   4.630  0.0464  1.0502  0.9714
12123TIP3    H157860   2.489   3.226   4.681  1.2550  1.5317  3.1349
12123TIP3    H257861   2.635   3.264   4.688  2.0988 -0.2186 -1.5495
12124TIP3   OH257862   3.004   2.184  12.264 -0.0631 -0.3045 -0.1734
12124TIP3    H157863   2.958   2.100  12.270  0.6290 -0.6627  0.2021
12124TIP3    H257864   3.095   2.163  12.282  0.1019  0.5430  0.0272
12125TIP3   OH257865   0.890   6.725   0.337  0.9721 -0.3351  0.6766
12125TIP3    H157866   0.797   6.746   0.349  0.9350  1.9283 -2.3480
12125TIP3    H257867   0.937   6.796   0.381  1.0923  0.7785 -1.1447
12126TIP3   OH257868   1.010   3.311  11.502  0.3742  0.2091 -0.0396
12126TIP3    H157869   0.928   3.267  11.481  0.8228 -0.8737  0.4383
12126TIP3    H257870   0.999   3.340  11.593  0.8730 -0.8030  0.3596
12127TIP3   OH257871   3.448   3.877   4.412 -0.2480  0.6716  0.6821
12127TIP3    H157872   3.491   3.880   4.498  1.3564  0.9676 -0.0852
12127TIP3    H257873   3.485   3.951   4.364  0.2507 -0.5055 -0.8445
12128TIP3   OH257874   4.599   3.589  11.697  0.8379 -0.5692  0.3127
12128TIP3    H157875   4.657   3.655  11.735  0.8686 -0.2626 -0.2547
12128TIP3    H257876   4.584   3.619  11.607  0.8185 -1.3169  0.0582
12129TIP3   OH257877   1.689   3.112   1.553 -0.0771  0.1586 -0.0071
12129TIP3    H157878   1.657   3.129   1.641  0.9727 -0.5871  0.5336
12129TIP3    H257879   1.614   3.071   1.508 -0.3003 -0.4039  0.8527
12130TIP3   OH257880   4.995   2.322   3.928  0.1488  0.0898  0.7373
12130TIP3    H157881   5.022   2.306   3.837 -0.5576 -0.0989  0.5508
12130TIP3    H257882   5.062   2.379   3.964  0.2816  0.4056 -0.0007
12131TIP3   OH257883   6.062   6.375   1.332 -0.9459 -0.2278  0.5845
12131TIP3    H157884   6.057   6.300   1.273 -1.5901  0.3328 -0.0934
12131TIP3    H257885   6.009   6.442   1.290 -0.0656  0.7506  0.9844
12132TIP3   OH257886   3.030   5.130  16.174  0.3079  0.7628  1.2503
12132TIP3    H157887   3.010   5.220  16.147  0.4047  0.6390  0.7585
12132TIP3    H257888   2.946   5.093  16.200 -0.0423  0.4342 -0.2396
12133TIP3   OH257889   4.701   3.861   4.915 -0.1892  0.0216 -0.2305
12133TIP3    H157890   4.767   3.927   4.893 -0.5868  1.1680  1.7434
12133TIP3    H257891   4.654   3.898   4.990 -0.2434 -2.6293  1.1897
12134TIP3   OH257892   0.824   0.190  12.300 -0.2739  0.3013  0.3542
12134TIP3    H157893   0.756   0.237  12.253 -0.7211 -0.8820 -0.2341
12134TIP3    H257894   0.784   0.106  12.323  1.7471 -1.6322 -2.4568
12135TIP3   OH257895   5.123   2.971  14.075  0.6185 -0.3254  0.5772
12135TIP3    H157896   5.165   2.971  13.989 -0.5802  0.5217 -0.0378
12135TIP3    H257897   5.051   3.034  14.067  0.4549 -0.2600  2.1948
12136TIP3   OH257898   5.374   2.101  13.248  0.2421  0.4168  0.3341
12136TIP3    H157899   5.454   2.067  13.209 -0.0765 -0.2176  0.2208
12136TIP3    H257900   5.397   2.190  13.277  0.3304  1.1546 -1.8192
12137TIP3   OH257901   2.209   0.348  14.886  0.1183 -0.4385 -0.4308
12137TIP3    H157902   2.186   0.287  14.816 -1.1674 -0.0097 -0.4052
12137TIP3    H257903   2.127   0.393  14.907  0.8984  0.8491 -0.0087
12138TIP3   OH257904   0.563   2.620  15.456 -0.2877 -0.3360 -0.1387
12138TIP3    H157905   0.540   2.619  15.549 -1.5514  1.0746 -0.4027
12138TIP3    H257906   0.645   2.571  15.451  1.0944  1.5464  2.0680
12139TIP3   OH257907   4.382   3.904   4.557 -0.1426 -0.5888 -0.7739
12139TIP3    H157908   4.398   3.828   4.614 -1.0856  0.1504  0.5164
12139TIP3    H257909   4.386   3.979   4.616  0.1138  0.3296 -1.9256
12140TIP3   OH257910   0.350   1.173   0.058 -0.7299  0.4424  0.1065
12140TIP3    H157911   0.373   1.177  -0.035 -0.5680  1.8400  0.1891
12140TIP3    H257912   0.363   1.262   0.090  2.2501 -0.6061  2.2040
12141TIP3   OH257913   2.618   3.422   0.798  0.8319  0.1369  0.1484
12141TIP3    H157914   2.531   3.432   0.837  0.6912 -1.5463  0.3768
12141TIP3    H257915   2.635   3.505   0.754 -2.2379 -0.4725 -2.5964
12142TIP3   OH257916   3.495   2.364   3.125  0.0083  0.3131 -1.0540
12142TIP3    H157917   3.409   2.335   3.154  0.6452 -0.8117 -0.1787
12142TIP3    H257918   3.533   2.408   3.200  1.6014 -2.4588 -0.0621
12143TIP3   OH257919   0.957   1.616   5.662 -0.1864 -0.0313 -0.0521
12143TIP3    H157920   0.878   1.584   5.705  0.9125 -1.2808  1.1628
12143TIP3    H257921   0.995   1.678   5.724  0.7599 -0.8963  0.2665
12144TIP3   OH257922   4.702   2.935  14.021  0.7020  0.0400  0.4344
12144TIP3    H157923   4.630   2.996  14.040  0.2063 -0.6288  0.7546
12144TIP3    H257924   4.774   2.991  13.993 -0.1724  0.6898 -0.6286
12145TIP3   OH257925   4.346   1.932  10.980  0.0164 -0.1449 -0.4950
12145TIP3    H157926   4.331   1.842  10.950  0.2120 -0.2638 -0.2424
12145TIP3    H257927   4.428   1.927  11.030 -0.8891 -0.1979  1.0604
12146TIP3   OH257928   3.767   4.060  11.501  0.2465  0.2078  0.3826
12146TIP3    H157929   3.821   4.005  11.444  0.2581 -0.2859  0.8601
12146TIP3    H257930   3.785   4.150  11.472  1.6048  0.0837  0.7505
12147TIP3   OH257931   4.798   0.393   4.953  0.1057 -0.7671 -0.2763
12147TIP3    H157932   4.848   0.405   4.873  1.7587  0.0771  0.8241
12147TIP3    H257933   4.773   0.482   4.979 -1.7774 -1.1468 -0.6480
12148TIP3   OH257934   1.408   5.310  16.555  0.0867  0.5126  0.3762
12148TIP3    H157935   1.381   5.318  16.646  0.5206  2.3127  0.3815
12148TIP3    H257936   1.336   5.263  16.513 -0.3225  0.0586  1.5377
12149TIP3   OH257937   3.720   3.970  13.166  0.0437 -0.1393 -0.5084
12149TIP3    H157938   3.749   4.034  13.231  1.2544 -0.5891 -0.5796
12149TIP3    H257939   3.675   3.902  13.216 -1.3161  0.7644 -0.4374
12150TIP3   OH257940   1.888   1.544  15.686  0.0896 -0.0203 -0.4886
12150TIP3    H157941   1.980   1.539  15.660  0.1011  1.4556 -0.8006
12150TIP3    H257942   1.887   1.603  15.761 -0.7630  1.3264 -1.5025
12151TIP3   OH257943   4.381   3.323   6.789 -0.3500 -0.1149  0.3480
12151TIP3    H157944   4.353   3.231   6.790 -1.4401  0.1256 -2.1344
12151TIP3    H257945   4.474   3.319   6.766 -0.1399 -0.5922  1.2013
12152TIP3   OH257946   3.941   6.834   1.256 -0.0490  0.7698 -0.0323
12152TIP3    H157947   3.861   6.823   1.307 -0.1001  0.3771 -0.1952
12152TIP3    H257948   3.973   6.921   1.280 -0.5482  0.9449 -0.0056
12153TIP3   OH257949   6.634   6.664   2.365  0.5415 -0.3857  0.0369
12153TIP3    H157950   6.567   6.630   2.306 -0.6592 -0.0581  1.1546
12153TIP3    H257951   6.717   6.631   2.330  0.0061  0.7037 -2.4380
12154TIP3   OH257952   6.775   1.915  12.629  0.0563  0.0273 -0.7153
12154TIP3    H157953   6.711   1.846  12.647  0.4960 -0.2438 -0.1493
12154TIP3    H257954   6.851   1.892  12.684  0.3920  0.6923 -0.8906
12155TIP3   OH257955   3.551   3.611  12.262 -0.2581 -0.1602 -0.4840
12155TIP3    H157956   3.591   3.539  12.309  0.3114 -0.5585 -1.5509
12155TIP3    H257957   3.479   3.572  12.213 -0.1994  0.0662 -0.7560
12156TIP3   OH257958   5.324   0.716  14.899  0.0469 -0.0778  0.1578
12156TIP3    H157959   5.301   0.642  14.955 -3.0318 -0.3484 -1.2596
12156TIP3    H257960   5.244   0.768  14.895  0.9079  1.1825 -2.0798
12157TIP3   OH257961   2.227   4.672   5.776  0.0306 -0.1794  0.1821
12157TIP3    H157962   2.312   4.709   5.798 -0.3251  0.1862  0.9724
12157TIP3    H257963   2.230   4.582   5.810  0.3128 -0.3631 -0.3210
12158TIP3   OH257964   2.944   5.088   2.039 -0.5209  0.0511 -0.2871
12158TIP3    H157965   2.944   5.038   1.957  0.1070 -1.3314  0.5224
12158TIP3    H257966   3.004   5.040   2.096 -1.1203  0.8660  1.0669
12159TIP3   OH257967   4.989   2.997  16.015 -0.7766 -0.2126  0.6221
12159TIP3    H157968   4.903   3.038  16.008  0.8787  3.5255 -0.5362
12159TIP3    H257969   5.040   3.056  16.070  2.3079  0.4107 -2.5175
12160TIP3   OH257970   0.251   5.623  16.214 -0.1704  0.1947  0.2398
12160TIP3    H157971   0.269   5.532  16.190 -0.9564  0.1625 -0.2957
12160TIP3    H257972   0.156   5.627  16.223 -0.0487  0.7012  1.4093
12161TIP3   OH257973   2.472   1.092   0.757  0.4603  0.2669 -0.3184
12161TIP3    H157974   2.424   1.017   0.793  1.4854 -0.0502  0.4372
12161TIP3    H257975   2.556   1.092   0.804 -0.1097  2.8324  0.8707
12162TIP3   OH257976   4.702   4.490   0.884 -0.2597  0.3665  0.4560
12162TIP3    H157977   4.686   4.523   0.973  0.7495  0.6648  0.5408
12162TIP3    H257978   4.783   4.440   0.892 -0.1195  0.4646 -0.3185
12163TIP3   OH257979   5.618   0.468  13.326  0.5359  0.2028  0.1909
12163TIP3    H157980   5.605   0.562  13.339 -0.9371 -0.1160  1.2005
12163TIP3    H257981   5.537   0.437  13.287  0.3699 -0.9008  1.3402
12164TIP3   OH257982   2.336   1.249   0.979  0.2156  0.3712 -0.2712
12164TIP3    H157983   2.418   1.202   0.964  0.0077 -0.0610 -0.0576
12164TIP3    H257984   2.279   1.185   1.021  0.5561  1.3267  1.7803
12165TIP3   OH257985   2.950   6.520  11.813 -0.4709 -0.3198  0.1059
12165TIP3    H157986   3.000   6.588  11.769  1.0641 -1.7801 -0.4980
12165TIP3    H257987   2.941   6.551  11.903  1.5462  0.0141  0.2392
12166TIP3   OH257988   5.151   6.504  11.396 -0.1090  0.2525  0.1027
12166TIP3    H157989   5.064   6.479  11.430  0.2068 -0.5897  0.3199
12166TIP3    H257990   5.166   6.444  11.323  0.3190  0.3592  0.1030
12167TIP3   OH257991   0.051   2.857   4.622 -0.0229  0.1318  0.3614
12167TIP3    H157992   0.041   2.769   4.657 -4.0742  0.9510  1.7435
12167TIP3    H257993   0.089   2.844   4.535  0.8572 -2.7701  1.0671
12168TIP3   OH257994   5.945   5.517  11.664  0.0847 -0.1708 -0.8091
12168TIP3    H157995   5.883   5.504  11.736  1.7257 -2.6317  0.3070
12168TIP3    H257996   6.004   5.585  11.695 -0.4574  0.2700 -0.7309
12169TIP3   OH257997   4.957   6.064  17.097 -0.3172 -0.6016  0.5388
12169TIP3    H157998   4.910   5.981  17.099  0.5431 -1.1374 -0.4991
12169TIP3    H257999   5.018   6.060  17.170  0.2366 -1.2163  0.0574
12170TIP3   OH258000   4.931   0.362  16.952 -0.1068  0.0421  0.3913
12170TIP3    H158001   4.995   0.393  16.889  1.3411 -2.1005  0.7119
12170TIP3    H258002   4.867   0.313  16.900 -1.5981  2.1879  0.0700
12171TIP3   OH258003   4.739   6.558  11.386 -0.1803  0.1679 -0.0920
12171TIP3    H158004   4.649   6.585  11.367 -0.0491  1.5705  1.0807
12171TIP3    H258005   4.729   6.483  11.445 -0.5944  0.3715  0.1049
12172TIP3   OH258006   5.505   4.537  11.262  0.3094  1.0508 -0.3335
12172TIP3    H158007   5.416   4.537  11.297  0.0826  1.0658 -0.8982
12172TIP3    H258008   5.495   4.568  11.172  0.6641 -0.4228 -0.9189
12173TIP3   OH258009   1.426   5.985   3.970 -0.6347  0.0086 -0.0402
12173TIP3    H158010   1.398   5.913   4.027 -2.3309  0.5662 -0.1144
12173TIP3    H258011   1.384   6.063   4.008 -1.2982  0.4826 -1.6632
12174TIP3   OH258012   5.611   3.499  14.597  0.1326 -0.6818 -0.4693
12174TIP3    H158013   5.641   3.453  14.676  0.3444 -1.9573 -1.2574
12174TIP3    H258014   5.641   3.443  14.525  1.0161  1.0651 -1.5179
12175TIP3   OH258015   2.235   0.762   0.499 -0.3319 -0.2616  0.0853
12175TIP3    H158016   2.249   0.707   0.422  1.1780 -1.8820  1.4280
12175TIP3    H258017   2.290   0.839   0.484  0.0699 -0.6361 -0.3900
12176TIP3   OH258018   4.702   3.232   1.666  0.1438  0.0618 -0.2828
12176TIP3    H158019   4.672   3.281   1.590 -0.2196  0.9312  0.4010
12176TIP3    H258020   4.633   3.169   1.683 -1.3628  1.9784  1.2172
12177TIP3   OH258021   3.440   6.132   2.918  0.9288  0.1254 -0.0410
12177TIP3    H158022   3.440   6.157   3.011  0.1393 -2.9130  0.8950
12177TIP3    H258023   3.378   6.192   2.877  1.6112  1.8169  1.2581
12178TIP3   OH258024   6.339   5.304   4.262 -0.1964  0.1710 -0.2829
12178TIP3    H158025   6.376   5.220   4.292  2.0313  0.9621 -0.6143
12178TIP3    H258026   6.364   5.309   4.170  1.6689  2.1162  0.2430
12179TIP3   OH258027   4.666   4.703   3.638  0.0284 -0.3651  0.5494
12179TIP3    H158028   4.688   4.785   3.684 -1.6268  1.1283 -1.1551
12179TIP3    H258029   4.736   4.643   3.661 -0.2601  0.5075  4.3510
12180TIP3   OH258030   0.217   3.062  11.809  0.3975  0.6592 -0.0975
12180TIP3    H158031   0.230   2.983  11.757  0.0856  0.1782  0.5449
12180TIP3    H258032   0.218   3.133  11.745  0.9014  0.1600 -0.6598
12181TIP3   OH258033   5.250   1.877  16.860 -0.1498 -0.3936  0.5256
12181TIP3    H158034   5.327   1.840  16.815  0.2343 -1.1001  1.6912
12181TIP3    H258035   5.285   1.951  16.910 -0.8135  1.2465 -1.3257
12182TIP3   OH258036   2.788   2.188   2.750  0.3419 -0.0444  0.5313
12182TIP3    H158037   2.799   2.111   2.807 -0.8567 -1.4293 -0.9996
12182TIP3    H258038   2.779   2.151   2.662  2.1979  2.0179 -0.6302
12183TIP3   OH258039   3.910   5.494  16.746 -0.3443  0.0236 -0.6446
12183TIP3    H158040   3.985   5.553  16.743  1.4372 -1.9413  1.5042
12183TIP3    H258041   3.837   5.550  16.772  0.9240  1.5550 -0.1966
12184TIP3   OH258042   5.443   6.238   0.485 -0.4628 -0.0877  0.5966
12184TIP3    H158043   5.447   6.333   0.472  0.7484 -0.3456 -1.4911
12184TIP3    H258044   5.350   6.219   0.495 -0.8667  1.1793 -0.3777
12185TIP3   OH258045   2.688   6.308  16.094  0.2379  0.0357  0.6969
12185TIP3    H158046   2.606   6.316  16.046  0.0438  0.5828  1.1102
12185TIP3    H258047   2.685   6.378  16.159  0.8363 -0.2151  1.0054
12186TIP3   OH258048   3.774   3.597   0.050 -0.1115 -0.2575  0.0368
12186TIP3    H158049   3.797   3.578   0.141  0.3070  0.0031 -0.0099
12186TIP3    H258050   3.788   3.691   0.041 -0.1944 -0.2742 -0.2856
12187TIP3   OH258051   5.058   3.697  14.201  0.2125 -0.0975  0.3351
12187TIP3    H158052   5.111   3.766  14.162  0.5153  0.3319  1.4683
12187TIP3    H258053   4.998   3.743  14.260 -0.6870 -0.6719 -0.0992
12188TIP3   OH258054   1.303   0.207   4.856  0.1122  0.4580  0.2767
12188TIP3    H158055   1.346   0.125   4.830  0.1547 -0.1573  2.1196
12188TIP3    H258056   1.230   0.216   4.794  0.6160 -0.5069 -0.4994
12189TIP3   OH258057   1.827   4.604   5.331  0.5157  0.0048 -0.0161
12189TIP3    H158058   1.818   4.665   5.404 -0.3032  0.3072 -0.3685
12189TIP3    H258059   1.801   4.519   5.367 -0.6766  0.2960 -0.1568
12190TIP3   OH258060   0.934   6.095  17.043  0.2578 -0.2996 -0.7352
12190TIP3    H158061   1.023   6.125  17.063 -0.3146  1.7273 -1.0029
12190TIP3    H258062   0.946   6.009  17.003  1.8343 -1.8817  2.7019
12191TIP3   OH258063   1.777   2.155   3.415 -0.9158  0.1560  0.0948
12191TIP3    H158064   1.712   2.211   3.372 -0.5456 -1.1228 -2.2712
12191TIP3    H258065   1.844   2.216   3.447 -0.6849  1.1250 -2.0963
12192TIP3   OH258066   5.916   1.071   3.291 -0.3530 -0.1543 -0.3697
12192TIP3    H158067   5.995   1.095   3.339 -0.2614 -0.7217 -0.2283
12192TIP3    H258068   5.850   1.134   3.320 -0.3211 -0.5416  0.5657
12193TIP3   OH258069   1.264   2.097   5.149 -0.2872 -0.0510  0.6003
12193TIP3    H158070   1.336   2.087   5.211 -0.0820 -0.3305  0.3183
12193TIP3    H258071   1.289   2.045   5.073  0.1707  1.4813 -0.3547
12194TIP3   OH258072   4.236   2.447   4.304 -0.7375 -0.5850 -1.0130
12194TIP3    H158073   4.300   2.437   4.374 -3.2389 -0.6468  1.4234
12194TIP3    H258074   4.248   2.536   4.272 -0.7391  0.1079  0.8186
12195TIP3   OH258075   2.076   1.869  12.188  0.2281  0.4162 -0.2534
12195TIP3    H158076   2.022   1.852  12.266  0.8685  1.8518  0.5488
12195TIP3    H258077   2.147   1.806  12.193 -2.1084 -2.7073 -2.2334
12196TIP3   OH258078   4.879   0.070   1.318  0.3270 -0.5618 -0.2509
12196TIP3    H158079   4.938   0.074   1.393  0.7246 -0.6230 -0.5517
12196TIP3    H258080   4.890  -0.019   1.284  1.2791 -0.0924 -1.2581
12197TIP3   OH258081   2.872   5.211   4.454  0.2354  0.4071  0.1558
12197TIP3    H158082   2.869   5.253   4.368  0.8143  0.8721  0.3613
12197TIP3    H258083   2.802   5.145   4.450  0.3932  0.2777 -0.7406
12198TIP3   OH258084   3.465   1.825  13.578  0.2901  0.0071 -0.2817
12198TIP3    H158085   3.410   1.878  13.637 -0.4445 -0.7032 -0.3063
12198TIP3    H258086   3.492   1.886  13.509  0.3549  0.6105  0.2652
12199TIP3   OH258087   3.881   5.997  15.238  0.5099  0.3104 -0.3164
12199TIP3    H158088   3.888   6.064  15.170  1.2312  0.6240  0.0458
12199TIP3    H258089   3.972   5.969  15.253  0.1728 -1.2289 -0.9186
12200TIP3   OH258090   4.475   5.625   0.590 -0.2054  0.2486  0.2097
12200TIP3    H158091   4.439   5.684   0.524 -1.0142  0.2536  0.6399
12200TIP3    H258092   4.399   5.583   0.629  0.2490  0.3172  1.2043
12201TIP3   OH258093   0.736   2.634   5.778 -0.0278 -0.1592  0.0786
12201TIP3    H158094   0.668   2.591   5.725 -0.9765 -1.1468  1.9706
12201TIP3    H258095   0.739   2.723   5.745 -1.5179 -0.3787 -0.7733
12202TIP3   OH258096   3.293   4.100  17.084 -0.1643  0.3488  0.4500
12202TIP3    H158097   3.207   4.059  17.088 -0.3011  0.5787 -0.0255
12202TIP3    H258098   3.275   4.189  17.052  0.3009  0.2316 -0.1519
12203TIP3   OH258099   0.716   1.626   4.712 -0.7900 -0.5917 -0.0825
12203TIP3    H158100   0.700   1.557   4.648 -0.6343 -2.0023  1.3445
12203TIP3    H258101   0.793   1.597   4.760  1.4143  2.2228 -1.5924
12204TIP3   OH258102   0.919   5.016   1.693  0.5731  0.4138  1.0614
12204TIP3    H158103   1.010   4.992   1.712  0.1746 -0.4175  1.9875
12204TIP3    H258104   0.907   4.992   1.601  1.0361 -0.3105  1.1751
12205TIP3   OH258105   0.066   2.798   1.662  0.0670  0.4154  0.0145
12205TIP3    H158106   0.159   2.810   1.681 -0.0937 -0.4428  1.4736
12205TIP3    H258107   0.042   2.875   1.610  1.2863  1.3274  0.7607
12206TIP3   OH258108   2.023   5.292   1.345 -0.4047  0.4308 -0.0030
12206TIP3    H158109   2.104   5.326   1.306  0.5586 -0.1443  1.4299
12206TIP3    H258110   2.038   5.297   1.439 -1.9864  0.1488  0.2835
12207TIP3   OH258111   6.683   0.168  14.415  0.4401  0.8997 -0.2112
12207TIP3    H158112   6.700   0.079  14.383 -0.3213  0.5235  0.3909
12207TIP3    H258113   6.725   0.225  14.351  0.8418  0.1095 -0.6682
12208TIP3   OH258114   2.039   1.854   1.518 -0.1232  0.2155 -0.2800
12208TIP3    H158115   1.985   1.930   1.538  0.0217  0.0578  0.8012
12208TIP3    H258116   2.026   1.839   1.425 -2.2108 -0.0194  0.0012
12209TIP3   OH258117   5.296   0.193   4.181 -0.0650  0.1457  0.5151
12209TIP3    H158118   5.384   0.176   4.213 -0.4992 -3.8012  0.0219
12209TIP3    H258119   5.308   0.225   4.092  0.8493  0.0233  0.5869
12210TIP3   OH258120   1.290   1.234  12.589  0.2214  0.0625 -0.6989
12210TIP3    H158121   1.235   1.284  12.649  1.5627 -0.6082  1.2298
12210TIP3    H258122   1.230   1.178  12.541 -0.8992  0.4865  0.1744
12211TIP3   OH258123   6.654   0.970  14.067 -0.0352 -0.5001 -0.2696
12211TIP3    H158124   6.650   1.060  14.033 -2.2118 -0.5910 -0.3984
12211TIP3    H258125   6.648   0.981  14.162 -0.6339 -0.5143 -0.3034
12212TIP3   OH258126   2.624   2.002  15.083  0.1073  0.3165 -0.4739
12212TIP3    H158127   2.610   2.059  15.008 -0.6236 -1.4066 -1.7155
12212TIP3    H258128   2.715   1.973  15.076 -0.0918 -0.2010 -0.9741
12213TIP3   OH258129   4.615   1.819   4.315  0.6910 -0.2225  0.2610
12213TIP3    H158130   4.686   1.880   4.336 -0.0362  0.3124  1.3060
12213TIP3    H258131   4.655   1.733   4.320  1.3707  0.0962  0.4304
12214TIP3   OH258132   0.229   0.258   2.440 -0.4229  0.5048 -0.0475
12214TIP3    H158133   0.307   0.312   2.431  1.5309 -2.1519  0.0070
12214TIP3    H258134   0.174   0.282   2.365  1.4576  0.8824 -1.3513
12215TIP3   OH258135   6.595   6.450  10.713 -0.3644  0.6691 -0.1002
12215TIP3    H158136   6.617   6.417  10.800 -1.2260 -0.5331 -0.2961
12215TIP3    H258137   6.664   6.512  10.692  0.9554 -0.4790  0.6389
12216TIP3   OH258138   3.847   1.512  11.440  0.3246  0.1693 -0.0899
12216TIP3    H158139   3.893   1.501  11.523  0.8047  0.0918 -0.3624
12216TIP3    H258140   3.764   1.554  11.464 -0.2372 -1.2921  0.6042
12217TIP3   OH258141   3.011   0.621  17.038 -0.1728  0.2701 -0.0016
12217TIP3    H158142   2.934   0.665  17.003  0.6577  0.1262 -2.1461
12217TIP3    H258143   2.987   0.528  17.040  0.2472  0.1002 -1.6438
12218TIP3   OH258144   3.490   2.109   4.099  0.8028  0.8087 -0.1406
12218TIP3    H158145   3.551   2.036   4.095  0.0472  0.1269  0.4792
12218TIP3    H258146   3.531   2.178   4.047  1.9086  0.2341 -0.0423
12219TIP3   OH258147   5.587   2.336  10.896 -0.7625  0.3985 -0.4672
12219TIP3    H158148   5.642   2.388  10.955 -2.0031  1.1796  0.0401
12219TIP3    H258149   5.633   2.252  10.888 -0.5251  0.2762  1.5830
12220TIP3   OH258150   2.855   1.369  13.619 -0.0127  0.0515 -0.2016
12220TIP3    H158151   2.874   1.436  13.684  1.0494  0.3883 -0.8362
12220TIP3    H258152   2.764   1.345  13.636  0.7155 -1.2208  2.6231
12221TIP3   OH258153   2.398   0.307  16.441  1.1284 -0.0736 -0.9284
12221TIP3    H158154   2.449   0.271  16.514 -0.9694  0.5484  0.9373
12221TIP3    H258155   2.368   0.231  16.393  2.0555 -0.5225 -0.8218
12222TIP3   OH258156   2.131   3.190  11.590  0.0741 -0.1274 -0.0159
12222TIP3    H158157   2.160   3.201  11.499  0.6054 -3.1298 -0.2901
12222TIP3    H258158   2.044   3.151  11.583  0.5606 -1.3862  0.7365
12223TIP3   OH258159   4.848   5.301   0.264  0.2079 -0.1783  0.2364
12223TIP3    H158160   4.870   5.225   0.318 -0.6679  0.0800  0.9841
12223TIP3    H258161   4.819   5.367   0.327  2.4700  1.3760 -0.2301
12224TIP3   OH258162   5.166   5.179   0.512 -0.3026 -0.4694 -0.7247
12224TIP3    H158163   5.204   5.092   0.505 -1.4251 -1.1654  1.1315
12224TIP3    H258164   5.236   5.238   0.482  0.1535 -2.0072 -2.8758
12225TIP3   OH258165   5.640   2.500   1.696  0.0044 -0.4259  0.4972
12225TIP3    H158166   5.596   2.581   1.671 -1.1012 -1.2281 -0.2439
12225TIP3    H258167   5.719   2.529   1.741  1.1074  1.1195 -2.1788
12226TIP3   OH258168   2.504   0.654  12.701 -0.8490  0.0979 -0.0315
12226TIP3    H158169   2.557   0.713  12.754 -1.7489  2.4125 -1.5553
12226TIP3    H258170   2.552   0.571  12.703  2.2097  1.6999 -0.3027
12227TIP3   OH258171   5.696   0.312  14.192 -0.1837  0.5710 -0.0906
12227TIP3    H158172   5.762   0.375  14.221  0.4773  0.5838 -1.5197
12227TIP3    H258173   5.743   0.230  14.182 -0.4430  0.4930 -0.7682
12228TIP3   OH258174   6.608   3.647  13.151 -0.1946  0.3932  0.2422
12228TIP3    H158175   6.553   3.569  13.143  0.9979 -0.4425 -0.1719
12228TIP3    H258176   6.692   3.613  13.184  0.0591  1.6325  0.9134
12229TIP3   OH258177   3.856   5.261  11.623  0.3676 -0.2338  0.4039
12229TIP3    H158178   3.869   5.171  11.652 -1.9432 -0.5733  0.5839
12229TIP3    H258179   3.901   5.314  11.689  0.6628 -1.2053  1.0070
12230TIP3   OH258180   5.484   3.487  11.735  0.4622  0.2766  0.1942
12230TIP3    H158181   5.389   3.477  11.745  0.2664  0.1558 -1.4182
12230TIP3    H258182   5.522   3.421  11.792 -0.4313  0.0268  0.5199
12231TIP3   OH258183   2.125   0.750  15.896 -0.1102 -0.1274 -0.0320
12231TIP3    H158184   2.208   0.725  15.936 -0.2114  0.4903  0.5866
12231TIP3    H258185   2.063   0.683  15.926 -0.2395  0.4617  1.0759
12232TIP3   OH258186   0.198   3.895  16.492  0.5120 -0.3489 -0.0148
12232TIP3    H158187   0.214   3.852  16.576  1.1464 -0.9227 -0.4218
12232TIP3    H258188   0.277   3.947  16.476 -0.0153  0.5429  0.2049
12233TIP3   OH258189   0.322   0.630   0.646  0.5185 -0.2348  0.0949
12233TIP3    H158190   0.229   0.652   0.655  0.2840 -0.9478 -0.5305
12233TIP3    H258191   0.340   0.570   0.718  0.1508 -1.1627 -0.5734
12234TIP3   OH258192   0.916   3.972   0.057  0.2363  0.1449 -0.4056
12234TIP3    H158193   0.954   4.051   0.095 -1.3789  1.0613 -0.6072
12234TIP3    H258194   0.988   3.933   0.007  1.0482  1.5378 -0.3798
12235TIP3   OH258195   2.550   3.650   4.288 -0.2684 -0.3452 -0.7271
12235TIP3    H158196   2.492   3.629   4.361 -0.4333 -0.1167 -0.7898
12235TIP3    H258197   2.631   3.602   4.306  0.2005  0.7745  0.3192
12236TIP3   OH258198   3.016   2.836   5.241 -0.2219 -0.1269  0.1118
12236TIP3    H158199   2.989   2.799   5.324  0.4390  1.1321  0.9207
12236TIP3    H258200   3.012   2.931   5.254 -0.5302  0.1076 -1.4347
12237TIP3   OH258201   4.140   3.580   2.567 -0.5905 -1.1132  0.5948
12237TIP3    H158202   4.062   3.619   2.527 -0.4462 -1.3891  0.0337
12237TIP3    H258203   4.121   3.579   2.660 -1.8623 -2.5038  0.3653
12238TIP3   OH258204   4.790   0.509   1.212  0.1276  0.3370 -0.2551
12238TIP3    H158205   4.705   0.472   1.188  0.6627 -0.8196 -0.4226
12238TIP3    H258206   4.780   0.533   1.304  0.0733 -1.2244  0.1745
12239TIP3   OH258207   0.928   6.006  11.901  0.6704 -0.3835  0.1530
12239TIP3    H158208   0.906   6.057  11.823  0.5367 -0.3249  0.2283
12239TIP3    H258209   1.016   5.973  11.885 -0.6303 -3.3229 -1.5904
12240TIP3   OH258210   2.408   1.537   1.075  0.4162 -0.2965  0.3330
12240TIP3    H158211   2.363   1.576   1.000  0.9472  0.9276  0.6293
12240TIP3    H258212   2.370   1.449   1.083  0.4075 -0.4931 -1.4171
12241TIP3   OH258213   2.041   6.261   5.163 -0.1892 -0.1134  0.1932
12241TIP3    H158214   2.087   6.309   5.232  1.4692 -0.7353 -0.4307
12241TIP3    H258215   1.955   6.303   5.158  0.7249  1.9243  0.5623
12242TIP3   OH258216   3.503   1.192   2.986  0.1657  0.1248 -0.1038
12242TIP3    H158217   3.469   1.215   2.899 -0.6150 -0.4037  0.0559
12242TIP3    H258218   3.597   1.181   2.973 -0.2827 -2.9011 -1.5486
12243TIP3   OH258219   0.313   0.849  11.671  0.4808  0.4496  0.3622
12243TIP3    H158220   0.390   0.800  11.645 -0.3344 -1.2749  1.0592
12243TIP3    H258221   0.250   0.783  11.699 -1.1059  1.8222  0.2250
12244TIP3   OH258222   0.535   5.010   0.322 -0.0786  0.3741  0.9864
12244TIP3    H158223   0.508   5.078   0.383  2.0610  0.8320  1.5153
12244TIP3    H258224   0.578   5.057   0.250 -1.2269 -0.2570 -0.1585
12245TIP3   OH258225   6.347   6.172  13.107  0.3640  0.0104 -0.3937
12245TIP3    H158226   6.327   6.182  13.200 -1.2114 -1.5805 -0.5091
12245TIP3    H258227   6.413   6.240  13.089  1.0543  0.0566  1.9654
12246TIP3   OH258228   0.456   3.533   1.122  0.0038 -0.2858 -0.1091
12246TIP3    H158229   0.465   3.592   1.197  3.2502  0.0693 -0.6440
12246TIP3    H258230   0.453   3.591   1.046  0.1581 -0.7469 -0.4721
12247TIP3   OH258231   0.585   4.426  14.778 -0.1351  0.3521  0.7102
12247TIP3    H158232   0.626   4.339  14.774 -0.2998  0.3156 -0.8004
12247TIP3    H258233   0.512   4.421  14.716  0.2971  1.7852  0.0416
12248TIP3   OH258234   6.391   4.706   1.823 -0.2006  0.1006 -0.0664
12248TIP3    H158235   6.473   4.739   1.786 -0.0511 -0.1738  0.0094
12248TIP3    H258236   6.323   4.733   1.761  0.0608 -0.4806 -0.6259
12249TIP3   OH258237   5.216   0.525  13.501 -0.1873  0.2030 -0.3051
12249TIP3    H158238   5.216   0.489  13.590 -2.2207 -0.1230 -0.3931
12249TIP3    H258239   5.191   0.451  13.446 -0.1955  0.7200 -0.9947
12250TIP3   OH258240   3.510   4.117   6.057 -0.2901 -0.5471  0.2445
12250TIP3    H158241   3.518   4.039   6.112  0.5031 -0.6990 -0.0766
12250TIP3    H258242   3.431   4.102   6.005 -0.6534 -0.7151  0.8344
12251TIP3   OH258243   1.586   0.474   0.264  0.7141  0.3448 -0.3074
12251TIP3    H158244   1.534   0.554   0.275 -1.5136 -1.0680  0.0347
12251TIP3    H258245   1.562   0.441   0.178  0.8440 -0.4686 -0.0413
12252TIP3   OH258246   0.365   1.914  16.420  0.2637 -0.0699  0.3426
12252TIP3    H158247   0.329   2.001  16.400 -0.6847 -0.5293 -0.0331
12252TIP3    H258248   0.457   1.919  16.394  0.2870  0.9078  0.5874
12253TIP3   OH258249   6.634   1.318   1.417 -0.3265 -0.2992 -0.3608
12253TIP3    H158250   6.694   1.377   1.463  0.7971 -0.5163 -1.4799
12253TIP3    H258251   6.577   1.376   1.366 -1.0471 -0.0939  0.6629
12254TIP3   OH258252   2.180   6.588  16.991  0.1247  0.2744 -0.3913
12254TIP3    H158253   2.124   6.643  17.046  0.2197 -0.2520  0.2427
12254TIP3    H258254   2.237   6.650  16.945  0.5235  0.6840  0.6442
12255TIP3   OH258255   2.181   5.554   1.791  0.0710 -0.0902 -0.1335
12255TIP3    H158256   2.164   5.500   1.868  1.6491 -1.9947 -1.0343
12255TIP3    H258257   2.166   5.496   1.716  1.4808  0.7796 -1.1651
12256TIP3   OH258258   0.770   3.059   2.319 -0.6089  0.0948 -0.6203
12256TIP3    H158259   0.851   3.030   2.277 -0.1887 -1.7209  1.2756
12256TIP3    H258260   0.779   3.032   2.411 -1.5314  3.6913  0.7109
12257TIP3   OH258261   6.790   3.945   2.203 -0.5207  0.7497  0.2528
12257TIP3    H158262   6.840   3.944   2.121 -0.7898 -0.4769  0.0870
12257TIP3    H258263   6.781   3.853   2.227 -1.2574  1.0436  1.1689
12258TIP3   OH258264   1.436   1.929   5.366  0.7305  0.0526  0.0986
12258TIP3    H158265   1.388   1.958   5.444 -1.0874 -1.4717 -0.3734
12258TIP3    H258266   1.500   1.998   5.350 -0.7767  1.8111  1.2506
12259TIP3   OH258267   0.609   2.436  12.352  0.7983 -0.6778  0.1151
12259TIP3    H158268   0.581   2.397  12.269  0.0254  0.6868 -0.3084
12259TIP3    H258269   0.671   2.373  12.389 -0.5104 -2.3535 -0.4236
12260TIP3   OH258270   1.723   1.478   5.414  0.2474  0.3220 -0.2947
12260TIP3    H158271   1.694   1.568   5.398 -0.7079  0.1146  0.2048
12260TIP3    H258272   1.662   1.424   5.365 -1.1480 -0.1876  1.8663
12261TIP3   OH258273   2.120   0.090  12.358  0.5357 -0.1336  0.1300
12261TIP3    H158274   2.154   0.031  12.291 -0.7214 -1.3161  0.4909
12261TIP3    H258275   2.177   0.167  12.354  0.7697 -0.3623 -1.9732
12262TIP3   OH258276   5.741   5.758  15.897  0.5503  0.0617 -0.9332
12262TIP3    H158277   5.784   5.843  15.910  1.0950 -0.5394  1.6011
12262TIP3    H258278   5.660   5.764  15.948  0.2738 -0.7198 -1.2624
12263TIP3   OH258279   5.209   4.654  10.947 -0.2389  0.2272  0.1319
12263TIP3    H158280   5.149   4.721  10.978 -0.1803  0.3575 -0.0294
12263TIP3    H258281   5.292   4.674  10.990 -0.5982 -0.6573  1.2768
12264TIP3   OH258282   5.630   2.888   3.271  0.6006 -0.6716  0.1235
12264TIP3    H158283   5.656   2.823   3.206  1.9790  1.6135 -1.7704
12264TIP3    H258284   5.711   2.909   3.317  0.3945  0.3900  0.0274
12265TIP3   OH258285   3.155   1.078   6.649 -0.2659 -0.5931 -0.7028
12265TIP3    H158286   3.226   1.019   6.625  0.2498 -0.7475  1.0234
12265TIP3    H258287   3.163   1.087   6.744  1.1606  4.1101 -0.9931
12266TIP3   OH258288   3.901   4.060  10.627  0.0819  0.0080 -0.1588
12266TIP3    H158289   3.893   4.045  10.533 -1.1638 -0.3106 -0.0287
12266TIP3    H258290   3.844   4.135  10.644 -1.9187 -1.6002  0.7077
12267TIP3   OH258291   2.748   3.796   2.102 -0.3389 -0.4149 -0.3369
12267TIP3    H158292   2.767   3.889   2.110 -1.3897 -0.1960 -0.3583
12267TIP3    H258293   2.822   3.753   2.146 -0.3776  0.4468  0.5974
12268TIP3   OH258294   3.943   3.364   5.603 -1.0922  0.0399  0.0194
12268TIP3    H158295   3.857   3.329   5.584 -0.8341 -0.5098 -0.1603
12268TIP3    H258296   3.980   3.303   5.667 -1.1984  0.7913  0.8046
12269TIP3   OH258297   0.842   2.715   4.825  0.6957  0.5181  0.6273
12269TIP3    H158298   0.871   2.765   4.748  0.0385 -0.2309 -0.1294
12269TIP3    H258299   0.923   2.690   4.869  1.1224  0.2176 -0.3086
12270TIP3   OH258300   2.406   2.143   3.608  0.2963 -0.1581  0.2359
12270TIP3    H158301   2.400   2.192   3.526  1.3103 -0.1047  0.1780
12270TIP3    H258302   2.461   2.198   3.664 -0.1854 -0.3130  0.8701
12271TIP3   OH258303   6.051   4.007  16.478  0.9643  0.5777 -0.0469
12271TIP3    H158304   5.987   4.036  16.412  1.4448 -0.2421 -0.9106
12271TIP3    H258305   6.045   3.912  16.476  0.1391  0.5366  1.9923
12272TIP3   OH258306   4.363   4.591   0.890 -0.0127  0.4644  0.0394
12272TIP3    H158307   4.446   4.606   0.844 -0.5757  0.0698 -1.1374
12272TIP3    H258308   4.385   4.528   0.959  0.5377 -0.1074 -0.6494
12273TIP3   OH258309   5.239   5.155   1.049  0.3911 -0.3128 -0.2379
12273TIP3    H158310   5.327   5.169   1.084  0.0794 -0.1285  0.4895
12273TIP3    H258311   5.234   5.212   0.972  1.2466 -1.0714 -0.8761
12274TIP3   OH258312   0.590   3.654  16.773 -0.2855  0.2975  0.6058
12274TIP3    H158313   0.599   3.654  16.868  0.4399  0.7478  0.5498
12274TIP3    H258314   0.677   3.628  16.741 -0.7217 -0.5764  0.0751
12275TIP3   OH258315   6.602   5.347   3.439  0.2778 -0.2715  0.5392
12275TIP3    H158316   6.650   5.403   3.377  0.9829  0.3342  1.5841
12275TIP3    H258317   6.656   5.268   3.446  0.5631 -0.0482  0.8939
12276TIP3   OH258318   0.874   3.115   5.447 -0.1152 -0.1638 -0.5361
12276TIP3    H158319   0.860   3.030   5.405 -1.8174  0.4887 -1.3767
12276TIP3    H258320   0.799   3.126   5.505 -0.3811  1.1343 -1.0804
12277TIP3   OH258321   0.971   5.660  16.747  0.1567 -0.1012 -0.6048
12277TIP3    H158322   0.986   5.609  16.667 -2.2421  0.8682 -1.7514
12277TIP3    H258323   0.902   5.612  16.793  1.1900 -0.3899  0.6944
12278TIP3   OH258324   4.664   5.771  13.266 -0.1337 -0.5451 -0.1132
12278TIP3    H158325   4.718   5.841  13.302 -0.4541 -0.7135  0.7141
12278TIP3    H258326   4.639   5.718  13.341 -4.6878  1.6521  0.2726
12279TIP3   OH258327   5.946   5.154   5.878  0.2354  0.1403  0.0093
12279TIP3    H158328   6.010   5.200   5.825 -0.0721 -1.6890 -2.0932
12279TIP3    H258329   5.862   5.170   5.834  0.1218 -2.2857 -0.8134
12280TIP3   OH258330   5.538   2.757  10.879 -0.1553 -0.2060 -0.1855
12280TIP3    H158331   5.469   2.696  10.852  0.6339 -0.6777 -1.2116
12280TIP3    H258332   5.604   2.751  10.810  0.5937  0.7659  0.4142
12281TIP3   OH258333   2.165   2.923  14.021  0.0684 -0.0305 -0.0892
12281TIP3    H158334   2.097   2.902  14.084  0.0434 -1.3184 -0.5130
12281TIP3    H258335   2.118   2.967  13.949 -0.1296  0.0949  0.1154
12282TIP3   OH258336   3.569   1.700   4.434 -0.6224  0.3970  0.8371
12282TIP3    H158337   3.590   1.639   4.363  2.1396  1.7001  0.4143
12282TIP3    H258338   3.645   1.697   4.491 -2.0446  0.7135  2.8466
12283TIP3   OH258339   5.386   2.801   6.400  0.8166 -0.3701 -0.4667
12283TIP3    H158340   5.418   2.785   6.489 -1.4471 -2.8675  0.0334
12283TIP3    H258341   5.299   2.837   6.413  0.8840  0.2624 -1.7034
12284TIP3   OH258342   4.668   4.318   5.303 -0.1216 -0.0790  0.5324
12284TIP3    H158343   4.624   4.273   5.375 -1.8147 -1.0668 -1.0065
12284TIP3    H258344   4.597   4.361   5.255  1.0313  1.1287 -0.1755
12285TIP3   OH258345   3.880   3.711   3.319  0.4687  0.5053 -0.6211
12285TIP3    H158346   3.875   3.678   3.409 -0.6758  0.0802 -0.8248
12285TIP3    H258347   3.929   3.644   3.271 -1.9249 -1.0317 -1.0562
12286TIP3   OH258348   4.128   0.964   0.137  0.2428 -0.3121  0.0213
12286TIP3    H158349   4.172   1.031   0.084  1.2266 -0.8689  0.1150
12286TIP3    H258350   4.104   0.896   0.074  1.6088 -1.0763  0.2925
12287TIP3   OH258351   6.191   4.045   4.244 -0.2180  0.4347 -0.6626
12287TIP3    H158352   6.128   3.984   4.282  1.8711 -1.7549 -0.4210
12287TIP3    H258353   6.196   4.117   4.307  0.0481 -1.0685  1.1450
12288TIP3   OH258354   4.935   6.411  15.248  0.2096 -0.6468 -0.2817
12288TIP3    H158355   5.025   6.442  15.260 -0.1827 -0.1568  1.8080
12288TIP3    H258356   4.927   6.337  15.308 -0.7560 -0.7257 -0.4956
12289TIP3   OH258357   4.136   1.950   2.460  0.3154 -0.2169 -0.0110
12289TIP3    H158358   4.122   1.868   2.413  0.3805 -0.9602  1.2443
12289TIP3    H258359   4.053   1.997   2.451  0.7618  0.2698 -2.0004
12290TIP3   OH258360   6.463   6.041   3.769 -0.5350 -0.5673  0.0243
12290TIP3    H158361   6.519   6.110   3.806  0.5046 -0.8705 -0.9292
12290TIP3    H258362   6.453   6.065   3.677  1.5299 -2.6651 -0.8591
12291TIP3   OH258363   4.315   6.152   5.117 -0.2372 -0.4402  0.4130
12291TIP3    H158364   4.242   6.113   5.068 -1.2042  1.4614  0.2448
12291TIP3    H258365   4.273   6.209   5.181  1.1005  1.0068  0.0498
12292TIP3   OH258366   4.846   6.138   5.237  0.0286  0.2862 -0.0989
12292TIP3    H158367   4.937   6.164   5.251 -0.0655 -0.1916  1.6401
12292TIP3    H258368   4.850   6.065   5.176  0.9575 -0.6407  1.0249
12293TIP3   OH258369   5.747   5.387   2.062 -0.4666 -0.2057  0.7589
12293TIP3    H158370   5.824   5.334   2.047  0.1075  0.7589  0.1924
12293TIP3    H258371   5.743   5.447   1.987 -1.6602 -0.1176  0.8598
12294TIP3   OH258372   5.670   6.706   2.057  0.7308 -0.3931 -0.2172
12294TIP3    H158373   5.760   6.688   2.029 -0.1538 -2.1204 -2.1756
12294TIP3    H258374   5.660   6.801   2.043  2.3544 -0.0585  0.5546
12295TIP3   OH258375   6.622   5.920  14.096  0.1157  0.3698  0.0445
12295TIP3    H158376   6.607   5.828  14.119 -1.5805  0.3679 -0.9161
12295TIP3    H258377   6.707   5.941  14.134 -0.2653 -1.0866  1.8270
12296TIP3   OH258378   1.486   0.925   1.189 -0.0894 -0.0438  0.3554
12296TIP3    H158379   1.483   0.860   1.119  0.0686 -0.2387  0.5256
12296TIP3    H258380   1.409   0.980   1.175 -0.3463 -0.4039  0.3388
12297TIP3   OH258381   6.482   6.101   1.281 -0.2946 -0.3851  0.4803
12297TIP3    H158382   6.514   6.053   1.204 -0.1375 -0.1129  0.3765
12297TIP3    H258383   6.436   6.176   1.244 -1.0895 -0.7870  0.6214
12298TIP3   OH258384   0.434   6.800  11.770  0.2326 -0.1110 -0.4482
12298TIP3    H158385   0.451   6.709  11.744 -0.2945  0.0118 -1.2331
12298TIP3    H258386   0.458   6.802  11.863  2.9420 -0.3430 -1.0428
12299TIP3   OH258387   6.729   5.032  13.431  0.4489  0.0696 -0.0615
12299TIP3    H158388   6.696   4.953  13.388  1.7044 -1.1268  1.0893
12299TIP3    H258389   6.661   5.055  13.493 -0.6242  0.8433 -1.4574
12300TIP3   OH258390   1.560   6.644  14.613  0.3071  0.0183  0.3815
12300TIP3    H158391   1.538   6.723  14.662  0.6524  1.0783 -1.0781
12300TIP3    H258392   1.517   6.656  14.528  0.9582 -1.0245 -0.1147
12301TIP3   OH258393   6.061   2.431   5.380  0.2434  0.3257  0.1102
12301TIP3    H158394   5.975   2.395   5.399  0.7366 -0.7590  0.3859
12301TIP3    H258395   6.093   2.462   5.465  0.5626 -0.2790  0.2160
12302TIP3   OH258396   3.907   3.715   2.582 -0.3245 -0.7603  0.4525
12302TIP3    H158397   3.862   3.638   2.619 -2.3018  0.6537  1.1825
12302TIP3    H258398   3.836   3.768   2.545  0.7889  1.4459  1.3384
12303TIP3   OH258399   3.082   6.196  11.039  0.3346 -0.2250 -0.0702
12303TIP3    H158400   3.106   6.255  10.968 -1.0186  0.0457 -0.3150
12303TIP3    H258401   2.999   6.229  11.071  0.3802 -1.0135  0.9068
12304TIP3   OH258402   3.831   1.749   0.973  0.3798  1.0023  0.3747
12304TIP3    H158403   3.925   1.738   0.984  0.2815  0.0082  0.2807
12304TIP3    H258404   3.809   1.698   0.896 -0.0053  2.4941 -0.5563
12305TIP3   OH258405   0.879   2.856   0.715  0.7466 -0.2111 -0.2119
12305TIP3    H158406   0.795   2.812   0.705  0.3343  0.4499  0.2937
12305TIP3    H258407   0.857   2.948   0.729  1.5192 -0.1294  0.5783
12306TIP3   OH258408   3.648   1.136  13.415  0.1454 -0.4072  0.3946
12306TIP3    H158409   3.657   1.104  13.325  1.2910 -1.8467  0.9865
12306TIP3    H258410   3.691   1.070  13.469  0.5196  0.9869  1.9044
12307TIP3   OH258411   0.468   3.507  11.544  0.6016 -0.2325 -0.0194
12307TIP3    H158412   0.561   3.504  11.566  0.2937 -1.2980  1.2429
12307TIP3    H258413   0.457   3.444  11.472  1.1858  1.4776 -1.7026
12308TIP3   OH258414   3.005   6.274   3.220 -0.8236 -0.4593 -0.0419
12308TIP3    H158415   3.073   6.255   3.284  0.2936 -1.4611 -1.4395
12308TIP3    H258416   2.964   6.355   3.251  2.0960  1.1156  0.0555
12309TIP3   OH258417   1.664   0.287   0.999  0.0104 -0.1622 -0.1939
12309TIP3    H158418   1.752   0.258   1.023 -0.0815 -0.8428 -0.6692
12309TIP3    H258419   1.677   0.339   0.920  0.0215  0.0127 -0.0778
12310TIP3   OH258420   6.551   3.971   2.994  0.0709  0.2704  0.4959
12310TIP3    H158421   6.640   3.999   2.970 -0.8418  0.7890 -2.6932
12310TIP3    H258422   6.531   3.900   2.934 -1.7180  0.2133  1.0963
12311TIP3   OH258423   0.979   4.196  15.064  0.7197  0.0796 -0.8868
12311TIP3    H158424   0.924   4.159  14.996 -2.4996  1.1863  0.8911
12311TIP3    H258425   1.000   4.122  15.121 -0.5267 -0.1034 -0.6300
12312TIP3   OH258426   0.813   0.982  16.951  0.1973  0.8018 -0.1662
12312TIP3    H158427   0.760   0.992  17.030  0.4719  0.1872  0.1027
12312TIP3    H258428   0.858   1.066  16.940 -0.4592  1.1630 -0.1278
12313TIP3   OH258429   0.123   0.031  11.392 -0.4421 -0.5605  0.0308
12313TIP3    H158430   0.179   0.095  11.435 -1.0131  0.3604 -0.5598
12313TIP3    H258431   0.042   0.031  11.442 -0.9237  0.1514 -0.7164
12314TIP3   OH258432   0.621   3.739  16.157  0.4956  0.1029  0.6714
12314TIP3    H158433   0.671   3.731  16.076 -0.1944  0.7875  0.1661
12314TIP3    H258434   0.545   3.682  16.145  1.4950 -1.5693  1.7551
12315TIP3   OH258435   6.184   5.676   1.559 -0.1270 -0.2228  0.1779
12315TIP3    H158436   6.125   5.723   1.619  0.3672  1.5560 -0.6515
12315TIP3    H258437   6.259   5.734   1.548  0.1127 -0.7933 -1.6222
12316TIP3   OH258438   3.169   1.588   4.787 -0.3200 -0.1094 -0.0909
12316TIP3    H158439   3.167   1.625   4.698 -0.0981  0.5995  0.1953
12316TIP3    H258440   3.087   1.619   4.827  1.4279  3.1917  1.3640
12317TIP3   OH258441   5.014   0.473  15.660  0.0595  0.3296 -0.0452
12317TIP3    H158442   5.036   0.382  15.683 -0.2123  0.1535 -0.4719
12317TIP3    H258443   5.034   0.523  15.739 -0.3044 -0.1819  0.3808
12318TIP3   OH258444   4.981   1.447   2.490 -0.4929 -0.7458  0.2741
12318TIP3    H158445   4.973   1.539   2.513  0.7758 -0.4600 -0.3734
12318TIP3    H258446   4.892   1.412   2.500 -0.4598 -0.2708  3.8005
12319TIP3   OH258447   0.679   4.787   0.874  0.6244  0.5378 -0.0481
12319TIP3    H158448   0.667   4.815   0.965 -1.3806  0.5300 -0.2710
12319TIP3    H258449   0.682   4.692   0.879 -1.3704  0.4325 -0.1299
12320TIP3   OH258450   1.589   1.066  11.811 -0.0203  0.4391 -0.0035
12320TIP3    H158451   1.612   1.155  11.786 -1.3721  0.7006 -0.4044
12320TIP3    H258452   1.623   1.057  11.900 -1.6517  2.1050  0.8694
12321TIP3   OH258453   5.754   0.894   1.820  0.0176  0.1476  0.0111
12321TIP3    H158454   5.841   0.897   1.781  0.1442 -0.2805  0.2657
12321TIP3    H258455   5.702   0.952   1.764 -0.4411 -2.3915 -2.3938
12322TIP3   OH258456   2.779   5.178   5.037 -0.0129  0.3682  0.0046
12322TIP3    H158457   2.756   5.120   5.109 -2.2057  1.9188  0.6518
12322TIP3    H258458   2.721   5.152   4.966  2.1890 -1.1985 -1.3141
12323TIP3   OH258459   1.011   6.749  14.909 -0.3817  0.0932 -0.1915
12323TIP3    H158460   1.063   6.830  14.909 -0.9864  0.4951  0.2958
12323TIP3    H258461   0.921   6.778  14.895 -0.6208 -0.4843  0.0881
12324TIP3   OH258462   1.715   4.598  13.878  0.0449 -0.1321  0.0387
12324TIP3    H158463   1.636   4.562  13.838 -0.0931 -0.6369  0.7474
12324TIP3    H258464   1.683   4.651  13.950  0.3300  0.1799 -0.0602
12325TIP3   OH258465   2.189   4.898  16.859 -0.5869 -0.1394 -0.1990
12325TIP3    H158466   2.204   4.986  16.824 -1.2073 -0.4957 -1.4149
12325TIP3    H258467   2.277   4.863  16.875 -0.3352  0.6514  0.1768
12326TIP3   OH258468   3.992   3.479  15.502 -0.2441  0.0684 -0.3932
12326TIP3    H158469   4.009   3.487  15.408  0.9275  1.6046 -0.1051
12326TIP3    H258470   4.009   3.567  15.536  4.2711 -1.3778  1.9830
12327TIP3   OH258471   1.333   5.055   3.644 -0.3773 -0.5027  0.0654
12327TIP3    H158472   1.315   4.974   3.692  0.7351 -0.5507  0.4318
12327TIP3    H258473   1.363   5.117   3.710  0.1462 -0.2330 -0.4143
12328TIP3   OH258474   2.745   2.484  12.170 -0.0626 -0.8869 -0.1933
12328TIP3    H158475   2.736   2.390  12.154 -2.7158 -0.6117 -0.8592
12328TIP3    H258476   2.828   2.508  12.129  0.3301 -2.8169 -0.5979
12329TIP3   OH258477   4.822   3.790   0.700  0.5119 -0.2279  0.6806
12329TIP3    H158478   4.783   3.777   0.614 -1.0262 -1.4199  1.5159
12329TIP3    H258479   4.875   3.711   0.714 -0.1588 -0.5748  1.2901
12330TIP3   OH258480   2.165   0.479   2.586 -0.3210  0.3576  0.0063
12330TIP3    H158481   2.081   0.447   2.620 -1.0803  2.2575  0.0540
12330TIP3    H258482   2.202   0.529   2.659  0.8019 -0.3175 -0.0789
12331TIP3   OH258483   1.815   5.085  10.628 -0.6690 -0.0407 -0.2473
12331TIP3    H158484   1.782   5.010  10.579 -0.5730  0.0639 -0.4718
12331TIP3    H258485   1.747   5.152  10.617  0.0535  0.5231 -1.5460
12332TIP3   OH258486   5.102   1.033   4.812  0.4592  0.1359 -0.5796
12332TIP3    H158487   5.164   1.080   4.868  0.0053 -1.5826  1.4681
12332TIP3    H258488   5.114   0.941   4.834 -0.9154 -0.4723 -2.1578
12333TIP3   OH258489   1.422   3.042  15.298  0.1284 -0.5706 -0.2370
12333TIP3    H158490   1.339   3.004  15.326 -0.3603  0.2846 -0.4714
12333TIP3    H258491   1.398   3.128  15.262  0.9292 -0.9444 -1.7223
12334TIP3   OH258492   6.594   2.988   2.528  0.2151  0.3127  0.1179
12334TIP3    H158493   6.667   2.929   2.510  1.1940  1.5865 -0.1983
12334TIP3    H258494   6.520   2.930   2.546  0.7140 -1.0218 -1.8907
12335TIP3   OH258495   0.973   5.203   2.348 -0.0943 -0.4138 -0.0742
12335TIP3    H158496   0.999   5.240   2.264  1.0490 -2.1318 -0.5277
12335TIP3    H258497   0.956   5.279   2.403  0.2787  0.7593 -1.5069
12336TIP3   OH258498   0.061   5.266   4.813  0.8561  0.4832 -0.2059
12336TIP3    H158499  -0.029   5.256   4.845  1.0059 -0.3238 -0.0173
12336TIP3    H258500   0.084   5.356   4.835  0.8507  0.0692  1.7365
12337TIP3   OH258501   2.387   2.571  13.820  0.3496 -0.2765 -0.3137
12337TIP3    H158502   2.435   2.627  13.881  0.3496  0.1236 -0.6696
12337TIP3    H258503   2.446   2.497  13.803  0.4838 -0.2228 -0.0863
12338TIP3   OH258504   6.348   5.356  10.487 -0.5615  0.1986  0.3366
12338TIP3    H158505   6.270   5.384  10.535 -1.4683  0.2862 -1.1188
12338TIP3    H258506   6.405   5.434  10.486 -0.6984  0.3120  0.9094
12339TIP3   OH258507   6.249   0.373   2.133 -0.1777  0.1471  0.3891
12339TIP3    H158508   6.209   0.288   2.111  1.0321 -0.3566  0.0372
12339TIP3    H258509   6.302   0.395   2.056 -0.1498  1.0236  0.6524
12340TIP3   OH258510   4.256   2.890   5.070  0.4358 -0.4188 -0.5565
12340TIP3    H158511   4.197   2.837   5.124 -0.2329  1.5749  0.7826
12340TIP3    H258512   4.257   2.846   4.985 -3.4849 -0.2353 -0.8417
12341TIP3   OH258513   4.537   3.546   1.917  0.3995 -0.1120 -0.5241
12341TIP3    H158514   4.601   3.477   1.932  0.9337  0.2477 -1.1288
12341TIP3    H258515   4.520   3.544   1.823 -0.8530 -0.5267 -0.3154
12342TIP3   OH258516   5.423   5.049   0.685  0.5397 -0.2422  0.1896
12342TIP3    H158517   5.483   5.123   0.697 -0.4166  0.8279 -1.3305
12342TIP3    H258518   5.433   5.024   0.594 -1.5722  0.2238 -0.2174
12343TIP3   OH258519   4.048   1.694  11.098 -0.2471 -0.1562  0.4731
12343TIP3    H158520   4.099   1.692  11.017 -0.4053  0.5196  0.3504
12343TIP3    H258521   4.018   1.603  11.109 -0.3270 -0.2362 -0.2937
12344TIP3   OH258522   4.737   3.806  13.159  0.2283 -0.3487 -0.6039
12344TIP3    H158523   4.739   3.754  13.239 -2.4378 -1.8623 -1.4082
12344TIP3    H258524   4.713   3.894  13.188 -0.2893 -0.7788  0.2901
12345TIP3   OH258525   2.353   0.936   3.206 -0.1930  0.0430 -0.2835
12345TIP3    H158526   2.369   0.883   3.284  1.4751 -1.0590 -1.3003
12345TIP3    H258527   2.318   1.018   3.240  0.6550 -0.3252  1.6574
12346TIP3   OH258528   1.679   0.057   2.688  0.3272  0.0713  0.6222
12346TIP3    H158529   1.761   0.094   2.657  0.3437  0.6036  1.2722
12346TIP3    H258530   1.668   0.093   2.776 -2.3763  3.0072 -0.6859
12347TIP3   OH258531   4.741   2.190   0.632  0.0209 -0.1285 -0.0360
12347TIP3    H158532   4.823   2.180   0.585  0.0923 -0.5862  0.1807
12347TIP3    H258533   4.673   2.168   0.568  0.0328  0.7583 -0.3679
12348TIP3   OH258534   3.323   4.415  12.382  0.6322  0.2222 -0.1321
12348TIP3    H158535   3.409   4.433  12.345  0.2946 -0.0972 -1.0955
12348TIP3    H258536   3.319   4.320  12.390 -0.3282  0.0917 -1.8583
12349TIP3   OH258537   4.109   2.623   1.907 -0.0381 -0.3997 -1.0532
12349TIP3    H158538   4.084   2.532   1.919  0.2527 -0.3724 -0.2345
12349TIP3    H258539   4.084   2.667   1.988  2.2254 -0.2831 -0.3418
12350TIP3   OH258540   6.383   3.598  15.398  0.5996 -0.2510 -0.0025
12350TIP3    H158541   6.456   3.537  15.387 -0.1055 -1.0476 -0.3741
12350TIP3    H258542   6.365   3.598  15.492  1.9125  0.9695  0.2867
12351TIP3   OH258543   2.289   5.232  14.346 -0.4641 -0.5787  0.0873
12351TIP3    H158544   2.320   5.206  14.433 -0.2956 -0.1862  0.1436
12351TIP3    H258545   2.315   5.159  14.289  2.0914  0.4476 -0.1952
12352TIP3   OH258546   3.330   2.295  12.336  0.1830  0.4095 -0.0981
12352TIP3    H158547   3.399   2.339  12.385  0.6011  0.3868 -0.6644
12352TIP3    H258548   3.282   2.246  12.403  3.2329 -2.9948 -0.0995
12353TIP3   OH258549   4.223   0.409  13.844  0.2885  0.6572  0.0052
12353TIP3    H158550   4.220   0.367  13.930  3.2977 -1.6747 -0.8282
12353TIP3    H258551   4.255   0.497  13.862 -0.3635  0.6519  1.3554
12354TIP3   OH258552   5.413   2.802  15.898 -0.0612  0.4209 -0.5073
12354TIP3    H158553   5.476   2.745  15.942 -0.4754  0.0844 -0.3451
12354TIP3    H258554   5.340   2.744  15.875  0.2864  0.5120 -1.9556
12355TIP3   OH258555   5.066   1.228  16.783 -0.0461 -0.0655  0.2970
12355TIP3    H158556   5.124   1.162  16.821 -0.4512 -1.6995 -1.7419
12355TIP3    H258557   4.978   1.202  16.810 -0.0325  2.1615  3.0147
12356TIP3   OH258558   4.823   3.861   1.995  0.2616  0.1834 -0.4758
12356TIP3    H158559   4.906   3.864   2.043  0.7038 -0.3202 -1.2023
12356TIP3    H258560   4.847   3.833   1.907 -0.6526  0.2787 -0.7608
12357TIP3   OH258561   3.575   1.413  10.974  0.0051 -0.0014 -0.4295
12357TIP3    H158562   3.537   1.326  10.987  1.0518 -0.2200  1.4317
12357TIP3    H258563   3.653   1.397  10.920  0.0104 -0.1850 -0.3687
12358TIP3   OH258564   1.984   4.727   0.165  0.2474  0.1533  0.5955
12358TIP3    H158565   1.918   4.671   0.207  0.9482 -2.2166 -1.1871
12358TIP3    H258566   2.067   4.695   0.199  0.7021 -0.4576 -1.0027
12359TIP3   OH258567   6.620   5.857   4.420 -0.1417  0.7629 -0.0012
12359TIP3    H158568   6.557   5.893   4.482  0.6145  0.4741  0.9657
12359TIP3    H258569   6.588   5.769   4.402  0.3932  0.2978  1.1524
12360TIP3   OH258570   0.883   4.908   3.944  0.0364  0.5602  0.3822
12360TIP3    H158571   0.834   4.827   3.930  1.9438 -0.8377  1.3025
12360TIP3    H258572   0.817   4.971   3.972 -1.6933 -0.3251 -1.4257
12361TIP3   OH258573   5.793   4.043  12.999  0.0706  0.4105 -0.2035
12361TIP3    H158574   5.805   4.000  12.914  1.6471 -1.3571  0.8217
12361TIP3    H258575   5.724   3.992  13.042  1.3504 -0.6581  0.6829
12362TIP3   OH258576   3.903   0.784  12.048 -0.1691 -0.1885  0.0437
12362TIP3    H158577   3.980   0.748  12.004  0.0237  1.6185 -1.1708
12362TIP3    H258578   3.831   0.725  12.022 -0.0007  0.6030 -2.4862
12363TIP3   OH258579   6.122   4.612   1.121 -0.6729 -0.3039 -0.5654
12363TIP3    H158580   6.065   4.688   1.130  0.9856  1.0608 -1.0116
12363TIP3    H258581   6.169   4.627   1.039  2.1321 -0.0662  0.9780
12364TIP3   OH258582   2.809   1.298  15.344  0.2376 -0.4570 -0.4477
12364TIP3    H158583   2.776   1.296  15.255 -0.9091  0.5221 -0.0644
12364TIP3    H258584   2.812   1.391  15.367  3.8944 -0.3759 -0.6497
12365TIP3   OH258585   5.609   5.500   5.530 -0.7516 -0.4465  0.4125
12365TIP3    H158586   5.695   5.464   5.551  0.7203  1.2708 -2.1450
12365TIP3    H258587   5.582   5.545   5.610  1.5971  0.4876  0.7616
12366TIP3   OH258588   2.353   2.402   2.526 -0.2942  0.1852 -0.1480
12366TIP3    H158589   2.388   2.485   2.558 -1.0456  0.2511  0.5302
12366TIP3    H258590   2.276   2.428   2.474  0.5548  0.0380 -1.5388
12367TIP3   OH258591   6.036   4.841   6.365  0.5224  0.2265 -0.2794
12367TIP3    H158592   6.115   4.839   6.420  0.0380 -1.9585  0.3913
12367TIP3    H258593   6.024   4.751   6.336 -1.9353  0.4392 -0.0945
12368TIP3   OH258594   1.616   1.735   0.077  0.5027 -0.4100  0.3117
12368TIP3    H158595   1.568   1.766   0.001 -0.8738 -2.3097  0.3352
12368TIP3    H258596   1.554   1.745   0.150  0.6593 -1.4816  0.6086
12369TIP3   OH258597   3.129   2.912  12.717 -0.5148 -0.0070 -0.1279
12369TIP3    H158598   3.184   2.955  12.784  1.8314  0.0794 -1.9594
12369TIP3    H258599   3.076   2.983  12.681  1.2243  0.8787 -1.1154
12370TIP3   OH258600   6.003   5.266   2.066  0.2311 -0.1667 -0.0615
12370TIP3    H158601   6.005   5.203   1.993 -0.4600 -1.4771  0.9982
12370TIP3    H258602   6.031   5.214   2.142 -1.7346  0.4095  1.1093
12371TIP3   OH258603   1.069   0.623  13.275  0.2629 -0.4375 -0.0196
12371TIP3    H158604   1.066   0.609  13.369  1.2818  0.2237  0.1214
12371TIP3    H258605   1.099   0.539  13.240 -1.3976 -1.1148  0.1069
12372TIP3   OH258606   3.543   3.509   1.630 -0.0161 -0.0141 -0.1923
12372TIP3    H158607   3.566   3.600   1.615 -1.1762  0.3246  0.0373
12372TIP3    H258608   3.550   3.468   1.543  0.4200  0.3014 -0.3090
12373TIP3   OH258609   3.158   6.563  15.694  0.3291  0.4107 -0.1259
12373TIP3    H158610   3.171   6.612  15.775  1.2265  2.9272 -1.6784
12373TIP3    H258611   3.065   6.573  15.674 -0.2032 -1.3640  1.1961
12374TIP3   OH258612   5.279   3.145  14.404 -0.0230  0.2367 -0.1344
12374TIP3    H158613   5.349   3.093  14.444  0.7443  1.2202 -0.1467
12374TIP3    H258614   5.319   3.230  14.389 -0.2675 -0.0489 -2.9802
12375TIP3   OH258615   5.129   0.521   0.028 -0.0370  0.2652  0.7408
12375TIP3    H158616   5.073   0.588  -0.012 -0.5317 -0.3127  0.4480
12375TIP3    H258617   5.085   0.438   0.009  0.5942 -0.1527  1.0515
12376TIP3   OH258618   0.490   3.852   5.155  0.2004 -0.4203  0.4200
12376TIP3    H158619   0.449   3.835   5.240 -1.1423 -2.4483 -0.5666
12376TIP3    H258620   0.583   3.867   5.175  0.0508 -1.6195  2.1763
12377TIP3   OH258621   5.733   2.405  11.123  0.3222 -0.0383 -0.1215
12377TIP3    H158622   5.804   2.469  11.128 -1.7201  2.4256 -0.5022
12377TIP3    H258623   5.764   2.331  11.175  2.1973  1.9137  1.7949
12378TIP3   OH258624   5.734   2.923   5.420  0.6191  0.1482  0.6486
12378TIP3    H158625   5.696   2.888   5.500  0.4910  0.2100  0.6164
12378TIP3    H258626   5.772   3.007   5.446 -1.0817  1.0769  0.2760
12379TIP3   OH258627   4.833   6.236  16.037 -0.4506 -0.3904  0.1589
12379TIP3    H158628   4.781   6.258  16.115  1.3958  0.9023  1.1169
12379TIP3    H258629   4.769   6.222  15.968 -2.0963  0.0391  1.5345
12380TIP3   OH258630   0.841   3.658  16.420  0.6374  0.0949  0.4832
12380TIP3    H158631   0.753   3.681  16.390  0.8094  2.0972  1.3533
12380TIP3    H258632   0.866   3.584  16.365 -2.7058 -2.5693  2.1417
12381TIP3   OH258633   2.470   2.372  13.203  0.3774  0.3089 -0.1199
12381TIP3    H158634   2.542   2.393  13.263 -0.2868 -0.0629  0.8444
12381TIP3    H258635   2.430   2.456  13.183  0.7571  0.4626 -0.2387
12382TIP3   OH258636   1.527   5.562  15.892  0.4402  0.8907 -0.2457
12382TIP3    H158637   1.439   5.594  15.869  0.6942  1.9845  0.2361
12382TIP3    H258638   1.560   5.522  15.811  0.2414  2.1993 -1.0085
12383TIP3   OH258639   2.170   6.364   5.414 -0.0286 -0.4280  0.0132
12383TIP3    H158640   2.192   6.436   5.473 -0.4711  0.1703 -0.5453
12383TIP3    H258641   2.214   6.288   5.452  2.0462  0.4776 -0.4110
12384TIP3   OH258642   5.385   2.691  13.393  0.0810  0.3388  0.2568
12384TIP3    H158643   5.473   2.666  13.423  0.0249  0.3372  0.4232
12384TIP3    H258644   5.335   2.610  13.396  0.3447  0.1198 -0.8425
12385TIP3   OH258645   0.323   4.831   1.161  0.1190 -0.3389 -0.0023
12385TIP3    H158646   0.268   4.760   1.191 -0.0139  0.0148  0.6010
12385TIP3    H258647   0.306   4.903   1.222  0.8599 -0.0581 -0.1136
12386TIP3   OH258648   6.515   3.253  13.943 -0.2963  0.1297  0.0671
12386TIP3    H158649   6.610   3.262  13.933  0.0637 -2.1355  0.9207
12386TIP3    H258650   6.495   3.167  13.905 -1.9638  0.4367  0.1765
12387TIP3   OH258651   4.813   4.160  11.419 -0.2326  0.6209 -0.2211
12387TIP3    H158652   4.836   4.069  11.438  0.9941  0.8953 -0.3135
12387TIP3    H258653   4.741   4.154  11.356  0.0096 -0.2849 -0.4278
12388TIP3   OH258654   3.863   2.278   2.748 -0.0533  0.1532  0.0372
12388TIP3    H158655   3.826   2.269   2.661 -0.4833  2.3840 -0.0634
12388TIP3    H258656   3.793   2.317   2.800  0.8201  0.6536  0.8803
12389TIP3   OH258657   6.514   6.715   0.552  0.2829 -0.6936  0.0004
12389TIP3    H158658   6.512   6.796   0.501 -0.4208 -0.3079  0.6277
12389TIP3    H258659   6.429   6.711   0.596 -0.4042 -2.6422 -1.3514
12390TIP3   OH258660   0.758   6.346   3.803 -0.5840  0.4996 -0.5710
12390TIP3    H158661   0.698   6.273   3.816 -1.3471  1.1400 -0.4281
12390TIP3    H258662   0.836   6.322   3.853 -0.5418 -0.5418 -1.1105
12391TIP3   OH258663   4.527   6.503  15.304 -0.0164  0.2931  0.2134
12391TIP3    H158664   4.536   6.595  15.280 -0.7604 -0.1821 -2.1534
12391TIP3    H258665   4.582   6.457  15.241 -0.4675 -0.9526  0.7069
12392TIP3   OH258666   3.448   1.389  14.599  0.2365 -0.3057 -0.3549
12392TIP3    H158667   3.465   1.303  14.560 -1.8059  0.4799 -3.2647
12392TIP3    H258668   3.521   1.444  14.569  1.3133 -0.8386  1.1560
12393TIP3   OH258669   1.011   1.152   4.638 -0.0708 -0.0323 -0.4943
12393TIP3    H158670   1.072   1.080   4.654  0.2447  0.2715 -0.2911
12393TIP3    H258671   0.944   1.142   4.706 -0.5136 -0.6416 -1.0064
12394TIP3   OH258672   3.615   1.650   2.289 -0.9012 -0.3262 -1.0963
12394TIP3    H158673   3.565   1.728   2.313  0.2885  0.9284 -2.5189
12394TIP3    H258674   3.700   1.661   2.332 -1.0550 -1.3467 -0.5003
12395TIP3   OH258675   1.579   6.695  14.132 -0.5992 -0.2457  0.4536
12395TIP3    H158676   1.663   6.721  14.171 -0.5995  2.2801 -1.0060
12395TIP3    H258677   1.580   6.600  14.135  2.7944 -0.3800 -0.3740
12396TIP3   OH258678   5.671   0.140  15.330 -0.0944 -0.2841  0.0171
12396TIP3    H158679   5.645   0.224  15.368 -2.3365 -1.6329  1.7618
12396TIP3    H258680   5.617   0.131  15.251  0.8499  0.2956 -0.7132
12397TIP3   OH258681   5.111   5.673  13.327  1.2047  0.1482 -0.2817
12397TIP3    H158682   5.114   5.590  13.280  1.1262  0.7768 -1.4444
12397TIP3    H258683   5.093   5.738  13.259 -0.7675  0.8941  0.8813
12398TIP3   OH258684   1.853   6.410  16.568  0.7735 -0.6602  0.5899
12398TIP3    H158685   1.910   6.429  16.643  2.3227  0.9543 -0.9055
12398TIP3    H258686   1.861   6.315  16.556 -0.2946 -1.1339  3.0078
12399TIP3   OH258687   4.116   1.279   0.904 -0.4391 -0.0739 -0.2442
12399TIP3    H158688   4.068   1.353   0.865 -0.9744  0.0185  0.5555
12399TIP3    H258689   4.167   1.318   0.975  0.2560 -0.2891 -0.6214
12400TIP3   OH258690   2.406   0.651  11.200  0.5692  0.5110 -0.1104
12400TIP3    H158691   2.399   0.558  11.181 -1.8903  0.3452  1.2069
12400TIP3    H258692   2.500   0.669  11.198  1.1822 -2.2033  0.5481
12401TIP3   OH258693   0.036   3.435  14.612 -0.5124  0.0623 -0.0829
12401TIP3    H158694   0.025   3.369  14.680 -0.4700  0.3396  0.1905
12401TIP3    H258695  -0.053   3.459  14.587 -0.5502  1.3205  1.1865
12402TIP3   OH258696   3.655   6.059  15.396 -0.3002 -0.1265 -0.3568
12402TIP3    H158697   3.577   6.004  15.410 -0.6212  0.3738 -0.1498
12402TIP3    H258698   3.693   6.026  15.315 -0.9875 -0.0794 -0.7112
12403TIP3   OH258699   4.560   2.813  11.862 -0.2319 -0.4060 -0.3778
12403TIP3    H158700   4.536   2.723  11.842  0.2658 -0.5196 -0.4836
12403TIP3    H258701   4.647   2.806  11.903 -0.2665  0.0084 -0.2256
12404TIP3   OH258702   2.684   4.096  13.468 -0.5843 -0.7264 -0.1312
12404TIP3    H158703   2.601   4.133  13.436  0.0637  0.8562 -0.0383
12404TIP3    H258704   2.750   4.160  13.442  0.4476 -1.3207  0.9731
12405TIP3   OH258705   1.551   2.106   0.331 -0.7840  0.5894  0.2170
12405TIP3    H158706   1.583   2.176   0.273  1.2667  0.0802  0.6485
12405TIP3    H258707   1.575   2.136   0.419  0.4073 -0.7534  0.3840
12406TIP3   OH258708   3.439   2.458   2.020 -0.1633  0.0693  0.5621
12406TIP3    H158709   3.440   2.542   1.973  1.5133  0.8816  1.9005
12406TIP3    H258710   3.381   2.474   2.095  0.2662  0.1063  0.8931
12407TIP3   OH258711   4.090   5.860  13.005  0.4903 -0.0765 -0.3589
12407TIP3    H158712   4.026   5.797  13.036 -0.3140  1.1084  0.5109
12407TIP3    H258713   4.063   5.881  12.916  0.5880 -0.7284 -0.5413
12408TIP3   OH258714   5.949   2.513   3.469 -0.4216  0.1801 -0.3920
12408TIP3    H158715   5.999   2.432   3.455  0.2336  0.2867  1.2191
12408TIP3    H258716   5.913   2.504   3.557 -0.1610  1.7478 -0.1100
12409TIP3   OH258717   5.632   1.974  12.318  0.4712 -0.3700  0.7349
12409TIP3    H158718   5.672   2.002  12.236  3.3114  0.4867  2.2358
12409TIP3    H258719   5.594   2.054  12.355  0.5376 -0.4135  0.9019
12410TIP3   OH258720   5.791   2.473   1.225  0.4950  0.2718 -0.2695
12410TIP3    H158721   5.799   2.548   1.165 -0.6105  0.8851  0.3052
12410TIP3    H258722   5.795   2.512   1.312 -0.3834 -0.3033  0.0360
12411TIP3   OH258723   3.138   5.005   3.331  0.2595 -0.0995 -0.4884
12411TIP3    H158724   3.068   4.948   3.364 -0.3055  1.8105  1.8516
12411TIP3    H258725   3.218   4.969   3.369  0.4041 -1.2681 -1.7922
12412TIP3   OH258726   2.172   5.605  12.288 -0.3314  0.4815  0.6332
12412TIP3    H158727   2.079   5.627  12.298 -0.5468  2.2402 -3.3522
12412TIP3    H258728   2.193   5.553  12.365 -5.1613 -1.8605  0.7343
12413TIP3   OH258729   4.212   2.259   3.084  0.3914  0.0033 -0.0933
12413TIP3    H158730   4.149   2.232   3.017 -0.2380  1.1541  0.0126
12413TIP3    H258731   4.190   2.350   3.103  2.3308  0.5509 -0.3032
12414TIP3   OH258732   4.668   1.766   2.355  0.8932  0.3270 -0.2929
12414TIP3    H158733   4.753   1.777   2.399  2.2804  0.0066 -2.7237
12414TIP3    H258734   4.687   1.708   2.281 -1.7328 -0.6974 -0.2405
12415TIP3   OH258735   5.432   5.216  11.158  0.2223 -0.1824  0.9103
12415TIP3    H158736   5.445   5.151  11.089 -2.9908  0.3123 -0.3231
12415TIP3    H258737   5.386   5.169  11.227 -0.2094  0.2860  0.9437
12416TIP3   OH258738   4.057   5.929   0.779 -0.3359 -0.3587 -0.0863
12416TIP3    H158739   4.019   5.930   0.867 -2.8496  2.0193 -1.0753
12416TIP3    H258740   4.006   5.864   0.731 -3.7139  2.9880 -1.4758
12417TIP3   OH258741   4.209   6.645   5.518  0.1901 -0.1425  0.1453
12417TIP3    H158742   4.216   6.673   5.426 -0.1524  1.4021  0.5444
12417TIP3    H258743   4.230   6.724   5.568 -2.1075 -0.2221  1.3762
12418TIP3   OH258744   4.497   6.252  12.140  0.1650 -0.0039  0.1430
12418TIP3    H158745   4.537   6.337  12.126 -1.8815  0.7679 -1.5118
12418TIP3    H258746   4.404   6.270  12.151 -0.2793 -2.0099  0.1358
12419TIP3   OH258747   5.983   4.960  13.743  0.6076 -0.0325 -0.3813
12419TIP3    H158748   6.073   4.971  13.773  0.4808  1.7119 -0.5389
12419TIP3    H258749   5.930   5.002  13.811 -0.1407 -1.3270 -0.1236
12420TIP3   OH258750   2.281   3.993   5.800  0.0375  0.4284  0.3295
12420TIP3    H158751   2.273   4.019   5.709  0.2194  0.2105  0.2497
12420TIP3    H258752   2.304   4.074   5.847 -1.6347  0.8786  0.4297
12421TIP3   OH258753   2.711   4.072  16.035 -0.6937 -0.7304 -0.1484
12421TIP3    H158754   2.706   3.997  15.976 -0.7947 -0.3362 -0.6495
12421TIP3    H258755   2.758   4.039  16.111 -1.4764 -1.5351  0.0041
12422TIP3   OH258756   6.176   1.937  15.885 -0.4145  0.0999 -0.8294
12422TIP3    H158757   6.128   1.966  15.962 -0.1402  0.7435 -0.9002
12422TIP3    H258758   6.229   2.012  15.859 -0.2298 -0.2300 -1.4315
12423TIP3   OH258759   5.509   6.829   0.301  0.1059  0.1356 -0.0488
12423TIP3    H158760   5.566   6.832   0.378  1.0953 -0.0039 -0.7546
12423TIP3    H258761   5.444   6.763   0.322  0.8532 -0.4907  0.3518
12424TIP3   OH258762   6.171   1.481   2.951 -0.8005 -0.5623 -0.0633
12424TIP3    H158763   6.130   1.401   2.916 -1.0470  0.8495 -3.3447
12424TIP3    H258764   6.250   1.492   2.899 -1.4831  2.0085 -0.7133
12425TIP3   OH258765   1.829   4.307  12.124 -0.6256 -0.0962 -0.0788
12425TIP3    H158766   1.861   4.217  12.122  0.6998  0.2752  1.8169
12425TIP3    H258767   1.806   4.327  12.033  0.7009 -1.7522 -0.8253
12426TIP3   OH258768   5.694   5.558   2.324  0.4869 -0.5474 -0.0447
12426TIP3    H158769   5.747   5.614   2.382  0.7966  0.5366 -1.3223
12426TIP3    H258770   5.618   5.535   2.377  1.3570 -0.6374  1.2181
12427TIP3   OH258771   1.655   5.406   5.353  0.4225  0.7689  0.1568
12427TIP3    H158772   1.698   5.491   5.366  1.6120  0.4815 -1.5320
12427TIP3    H258773   1.724   5.349   5.320 -0.2312 -1.0557  1.7591
12428TIP3   OH258774   4.035   3.676   6.156 -0.4485  1.1405 -0.1521
12428TIP3    H158775   4.008   3.767   6.168 -0.5024  0.9230  1.7112
12428TIP3    H258776   4.100   3.662   6.224 -1.6759 -0.6784  0.7149
12429TIP3   OH258777   0.858   6.192   1.288 -0.1264  0.2642 -0.4763
12429TIP3    H158778   0.842   6.125   1.355  3.7300  0.3299  0.7280
12429TIP3    H258779   0.834   6.275   1.330  0.5313  0.1389  0.1475
12430TIP3   OH258780   2.206   5.573   2.672 -0.3876 -0.2634  0.1429
12430TIP3    H158781   2.131   5.567   2.613 -1.6547  1.0868  1.5015
12430TIP3    H258782   2.167   5.598   2.756  1.4662 -0.9531  1.2468
12431TIP3   OH258783   1.363   0.581   4.624  0.6583  0.1013  0.5270
12431TIP3    H158784   1.409   0.499   4.611 -0.3120 -0.3637 -0.1478
12431TIP3    H258785   1.405   0.642   4.564 -0.3611 -0.6461 -1.0113
12432TIP3   OH258786   1.139   4.591   0.496 -0.0044  0.0762  0.3565
12432TIP3    H158787   1.229   4.611   0.471  0.4330  0.9849  2.4012
12432TIP3    H258788   1.087   4.608   0.417  1.5940 -0.5002 -0.8602
12433TIP3   OH258789   2.883   0.466  14.978  0.1798  0.2458 -0.8697
12433TIP3    H158790   2.898   0.556  15.009  1.6494 -0.3849  0.3806
12433TIP3    H258791   2.965   0.441  14.936  0.9337 -1.5210  1.4632
12434TIP3   OH258792   4.783   5.696   2.940 -0.1857  0.2876  0.2988
12434TIP3    H158793   4.804   5.661   3.026 -0.4854  1.2446  0.7674
12434TIP3    H258794   4.825   5.635   2.879  0.6190 -0.0159  1.1263
12435TIP3   OH258795   0.568   6.346   5.486  0.2951 -0.1141  0.3265
12435TIP3    H158796   0.523   6.377   5.564  0.8850 -0.7859  0.9477
12435TIP3    H258797   0.613   6.267   5.514  0.1848 -0.6007 -0.8022
12436TIP3   OH258798   1.127   1.609  11.630 -0.0022 -0.3015 -0.5426
12436TIP3    H158799   1.194   1.581  11.568 -0.6562 -0.4878 -1.1791
12436TIP3    H258800   1.156   1.696  11.658 -0.1335  0.1714 -1.7842
12437TIP3   OH258801   0.458   3.733   2.286  0.5496 -0.1521  0.6549
12437TIP3    H158802   0.519   3.736   2.212 -0.4723  0.2238 -0.1957
12437TIP3    H258803   0.385   3.679   2.254 -0.7636  1.5144  0.6875
12438TIP3   OH258804   6.226   2.488   4.819 -0.0399  0.0383 -0.4451
12438TIP3    H158805   6.152   2.536   4.855  2.2076  1.2568  2.9744
12438TIP3    H258806   6.214   2.398   4.849 -0.6771 -0.0415 -0.9157
12439TIP3   OH258807   4.632   4.726   4.805  0.0711 -1.1308  0.0147
12439TIP3    H158808   4.630   4.813   4.846 -1.2258 -1.1779  0.0831
12439TIP3    H258809   4.723   4.698   4.815  0.1971 -0.3884  1.2752
12440TIP3   OH258810   0.716   4.930  16.408 -0.7321 -0.2979 -0.1284
12440TIP3    H158811   0.654   4.997  16.380 -0.4385  0.2704  0.5288
12440TIP3    H258812   0.800   4.960  16.374 -0.3163  0.5683  1.5351
12441TIP3   OH258813   0.846   0.982  11.688  0.3596 -0.0575 -0.2503
12441TIP3    H158814   0.934   0.966  11.723 -0.3331 -0.3434  1.5053
12441TIP3    H258815   0.859   1.041  11.614  1.9291  0.9008  0.7435
12442TIP3   OH258816   4.404   4.299   2.266 -0.2765  0.6282 -0.2547
12442TIP3    H158817   4.317   4.259   2.276 -0.5187  1.0334 -0.6534
12442TIP3    H258818   4.428   4.280   2.175  0.1232  0.3817 -0.0959
12443TIP3   OH258819   2.978   2.892  13.683 -0.0088  0.2121  0.1430
12443TIP3    H158820   2.968   2.799  13.703  0.5720  0.0420 -0.3451
12443TIP3    H258821   3.068   2.913  13.708 -0.1948  0.6988  0.4393
12444TIP3   OH258822   5.784   0.796   3.966  0.2345 -0.3873 -0.0067
12444TIP3    H158823   5.850   0.729   3.980  0.4494 -0.0970  0.4198
12444TIP3    H258824   5.700   0.749   3.966  0.4803 -0.8719 -1.3899
12445TIP3   OH258825   0.410   2.669   5.788  0.3276  0.1027  0.3708
12445TIP3    H158826   0.460   2.725   5.729  0.3473  0.3271  0.6003
12445TIP3    H258827   0.451   2.582   5.779  0.1694  0.0819 -0.1292
12446TIP3   OH258828   0.021   4.600  12.889 -0.0287 -0.0521  0.6125
12446TIP3    H158829   0.111   4.576  12.868  0.6447  2.1579  0.7076
12446TIP3    H258830  -0.033   4.546  12.832  1.4266 -0.3847 -0.4953
12447TIP3   OH258831   3.581   3.461   6.094 -0.0601  0.0088 -0.4002
12447TIP3    H158832   3.555   3.457   6.186  3.1045  0.4785  0.6321
12447TIP3    H258833   3.587   3.555   6.075  0.2871 -0.0876 -0.7760
12448TIP3   OH258834   6.305   6.336  11.862 -0.5562 -0.1740  0.3753
12448TIP3    H158835   6.384   6.342  11.917  0.8350  0.7537 -1.5937
12448TIP3    H258836   6.309   6.248  11.825  1.4885  0.8558 -2.2435
12449TIP3   OH258837   3.239   5.725   4.274  0.0807  0.3858  0.5479
12449TIP3    H158838   3.195   5.738   4.358  0.9286  3.8542  0.6032
12449TIP3    H258839   3.327   5.762   4.287  1.1490 -1.3410 -1.1594
12450TIP3   OH258840   2.603   5.779   3.509  0.2187 -0.4054  0.4428
12450TIP3    H158841   2.554   5.716   3.457  0.3499  0.8442 -1.3011
12450TIP3    H258842   2.693   5.746   3.508  0.4258  0.1274 -1.0735
12451TIP3   OH258843   1.405   3.290   1.467  0.3672 -0.3387  0.4620
12451TIP3    H158844   1.367   3.288   1.555  0.8370 -0.6966  0.6584
12451TIP3    H258845   1.474   3.357   1.473  0.3890 -0.3523  0.3608
12452TIP3   OH258846   1.887   1.043   2.401 -0.0598  0.4195  0.5834
12452TIP3    H158847   1.974   1.015   2.430  0.1478  2.1208  1.7769
12452TIP3    H258848   1.826   0.992   2.454  0.2074 -0.2342  0.2744
12453TIP3   OH258849   6.640   4.856   1.449  0.4314  0.5250  0.4573
12453TIP3    H158850   6.731   4.885   1.445  0.3136  0.8374 -0.1784
12453TIP3    H258851   6.591   4.930   1.413 -0.0440  0.2267  0.4897
12454TIP3   OH258852   6.223   1.753   5.751 -0.5554 -0.4197  0.1384
12454TIP3    H158853   6.237   1.784   5.662 -0.9689  0.4205  0.3520
12454TIP3    H258854   6.171   1.673   5.741  0.1328 -0.8072 -0.4073
12455TIP3   OH258855   2.694   0.214   5.915  0.2343 -0.1516  0.6682
12455TIP3    H158856   2.729   0.292   5.872  1.5185 -0.5501  0.9302
12455TIP3    H258857   2.716   0.142   5.856 -0.3895 -0.3989  0.7272
12456TIP3   OH258858   5.730   5.365  12.190 -0.5438 -0.2042  0.2605
12456TIP3    H158859   5.705   5.428  12.257 -0.4336 -0.0970  0.2012
12456TIP3    H258860   5.812   5.327  12.222 -0.6884 -0.4237  0.3684
12457TIP3   OH258861   1.388   4.233   3.697 -0.2568 -0.3798 -0.6418
12457TIP3    H158862   1.437   4.309   3.665  0.9796 -0.4195  0.9999
12457TIP3    H258863   1.431   4.158   3.657  0.5310 -0.3664  0.1498
12458TIP3   OH258864   0.818   1.340  14.345  0.1339  1.2446  1.3556
12458TIP3    H158865   0.757   1.411  14.324  0.2420  0.7710 -0.7912
12458TIP3    H258866   0.803   1.274  14.277  1.0806 -0.1466  2.4307
12459TIP3   OH258867   4.233   0.381  17.025 -0.2034  0.2302 -0.3883
12459TIP3    H158868   4.248   0.362  17.118 -1.3038 -1.1256 -0.4324
12459TIP3    H258869   4.264   0.302  16.980 -0.7526  0.3866 -1.0523
12460TIP3   OH258870   1.226   6.423   4.282 -0.3445  0.5028  0.1063
12460TIP3    H158871   1.186   6.489   4.224  1.1285  0.9316 -0.4772
12460TIP3    H258872   1.218   6.460   4.370 -0.5443  0.9377 -0.0912
12461TIP3   OH258873   4.303   3.627  13.009  0.0066  0.0351  0.6548
12461TIP3    H158874   4.387   3.671  13.001 -0.7592  1.4537  0.2054
12461TIP3    H258875   4.278   3.642  13.101 -0.3936  0.8169  0.4242
12462TIP3   OH258876   0.038   3.781  12.847  0.0753 -0.2895 -0.1983
12462TIP3    H158877   0.061   3.799  12.938  1.5241  1.5425 -0.8489
12462TIP3    H258878   0.101   3.832  12.796 -2.3389  0.8910 -2.2311
12463TIP3   OH258879   1.082   5.458  14.201  0.5221 -0.2293  0.6506
12463TIP3    H158880   1.108   5.370  14.226  1.0756 -1.1141 -2.6062
12463TIP3    H258881   1.011   5.480  14.262  1.1725 -2.3648  2.3304
12464TIP3   OH258882   3.066   2.597  15.713  0.2796 -0.5525  0.0057
12464TIP3    H158883   3.123   2.564  15.783  0.8867 -0.6573 -0.5354
12464TIP3    H258884   3.118   2.590  15.634 -0.4355 -0.4976 -0.4766
12465TIP3   OH258885   5.066   0.847  14.823  0.2376 -0.0383  0.4919
12465TIP3    H158886   5.054   0.765  14.872  1.6784 -0.6116 -0.0872
12465TIP3    H258887   5.033   0.827  14.736  0.6132 -0.0156  0.3444
12466TIP3   OH258888   1.309   6.111  14.621  0.4575 -0.1603 -0.8275
12466TIP3    H158889   1.236   6.060  14.586 -1.4360  1.3836  0.6412
12466TIP3    H258890   1.355   6.050  14.679 -0.5480 -0.7711 -0.6434
12467TIP3   OH258891   3.412   2.738  14.986  0.5160 -0.3930  0.0299
12467TIP3    H158892   3.382   2.793  15.059  0.4202 -1.2424  0.6422
12467TIP3    H258893   3.342   2.675  14.973  0.9581 -0.8521 -0.1622
12468TIP3   OH258894   0.183   6.558   3.689  0.8254 -0.1937  0.8267
12468TIP3    H158895   0.141   6.527   3.770  0.8597  0.9404  1.2878
12468TIP3    H258896   0.115   6.548   3.622 -0.1366  1.3740  1.5105
12469TIP3   OH258897   3.261   3.083  16.569 -0.1059  0.2750 -0.7865
12469TIP3    H158898   3.223   3.057  16.485  0.5469 -0.3813 -0.8987
12469TIP3    H258899   3.213   3.033  16.635  0.0536  0.0177 -0.8639
12470TIP3   OH258900   2.848   1.495  11.993 -0.1377  0.0244  0.0669
12470TIP3    H158901   2.756   1.477  11.973 -0.2759  0.2625  0.4625
12470TIP3    H258902   2.845   1.539  12.078  0.4124 -0.8895  0.5717
12471TIP3   OH258903   5.162   6.200  14.915  0.2284  0.7043  0.1843
12471TIP3    H158904   5.084   6.256  14.913  0.2145  0.6806  0.0447
12471TIP3    H258905   5.193   6.199  14.825  0.8419  1.3438  0.3856
12472TIP3   OH258906   6.058   4.888   4.521 -0.2713  0.0135  0.4340
12472TIP3    H158907   6.076   4.980   4.500 -0.0572 -0.0249  0.4383
12472TIP3    H258908   6.054   4.844   4.436  0.4823 -0.1229  0.4629
12473TIP3   OH258909   1.019   2.662  10.650  0.1020  0.0646 -0.4375
12473TIP3    H158910   1.036   2.580  10.605  0.0685 -1.0542  1.4627
12473TIP3    H258911   1.096   2.675  10.706 -0.4986  0.5924  0.2956
12474TIP3   OH258912   1.274   4.319  11.258 -0.4423  0.0467  0.1277
12474TIP3    H158913   1.206   4.351  11.317 -1.3109 -2.1198  0.4037
12474TIP3    H258914   1.245   4.348  11.171 -0.3244  1.3519  0.5021
12475TIP3   OH258915   1.520   2.088   6.276 -0.1097 -0.5172  0.2959
12475TIP3    H158916   1.450   2.152   6.266 -2.5261 -2.9200  0.7830
12475TIP3    H258917   1.522   2.069   6.370  1.2527 -0.4560  0.2982
12476TIP3   OH258918   0.174   0.691  12.845 -0.3453 -0.1981  0.2038
12476TIP3    H158919   0.266   0.677  12.866 -0.2272 -0.0615 -0.2169
12476TIP3    H258920   0.171   0.692  12.749 -0.7160  0.2678  0.2196
12477TIP3   OH258921   0.841   0.028   1.841  0.1972  0.1992 -0.2209
12477TIP3    H158922   0.758   0.064   1.872  1.3408  1.1687  1.8950
12477TIP3    H258923   0.871   0.090   1.775 -1.1044 -0.6053 -1.6454
12478TIP3   OH258924   0.921   1.794  15.379  0.0273  0.4710 -0.4766
12478TIP3    H158925   0.918   1.876  15.330 -0.5373  1.0563  0.5118
12478TIP3    H258926   0.853   1.803  15.446  0.0026 -0.7785 -0.3039
12479TIP3   OH258927   1.789   3.706  16.584  0.2497 -0.1799  0.7092
12479TIP3    H158928   1.770   3.733  16.494  0.5964 -0.8562  0.4197
12479TIP3    H258929   1.738   3.766  16.639 -2.0423 -1.3656  0.0197
12480TIP3   OH258930   4.909   4.846  15.566  0.3777 -1.0583 -0.3003
12480TIP3    H158931   4.834   4.838  15.624  0.6540  0.7296  0.3817
12480TIP3    H258932   4.896   4.930  15.522  1.4203 -1.2330 -0.9773
12481TIP3   OH258933   2.580   5.267   5.269 -0.0097  0.0934 -0.0556
12481TIP3    H158934   2.517   5.240   5.336  3.9305 -1.7199  3.3481
12481TIP3    H258935   2.581   5.195   5.206 -0.1031 -0.6451  0.7800
12482TIP3   OH258936   6.792   2.200   4.611  0.4659 -0.1937  0.0948
12482TIP3    H158937   6.704   2.181   4.645  1.5342 -1.4268  2.4009
12482TIP3    H258938   6.842   2.120   4.627  2.0703  0.5163 -1.0608
12483TIP3   OH258939   5.417   3.612   0.213  0.8336  0.5550  0.4204
12483TIP3    H158940   5.344   3.550   0.220 -0.7258  2.4032  1.1742
12483TIP3    H258941   5.459   3.609   0.299 -0.0975  1.5284  0.9258
12484TIP3   OH258942   6.079   5.909  15.412 -0.1236 -0.1468 -0.3020
12484TIP3    H158943   6.116   5.873  15.492  1.5684  0.6515 -0.6889
12484TIP3    H258944   6.061   5.833  15.357  0.7001 -0.5743  0.0038
12485TIP3   OH258945   3.508   2.701   3.303 -0.0015 -0.0169  0.2185
12485TIP3    H158946   3.533   2.616   3.339 -1.4826 -1.0918 -1.1336
12485TIP3    H258947   3.534   2.696   3.211 -0.7930  0.6943 -0.0504
12486TIP3   OH258948   4.582   0.678   3.124  0.2090  0.3332  0.4177
12486TIP3    H158949   4.610   0.767   3.101 -1.7130  1.3815  1.8303
12486TIP3    H258950   4.503   0.691   3.175  0.8232 -2.1229  2.1528
12487TIP3   OH258951   0.600   0.016  13.435 -0.2126  0.1483 -0.0431
12487TIP3    H158952   0.519   0.049  13.394 -0.9353  0.3729  1.5130
12487TIP3    H258953   0.593  -0.079  13.426 -1.1778  0.1021  0.9884
12488TIP3   OH258954   4.165   1.435   0.609  0.2258 -0.1874 -0.0424
12488TIP3    H158955   4.076   1.441   0.642  0.6291 -2.8584  1.9152
12488TIP3    H258956   4.200   1.524   0.617 -1.6628  0.5069  1.0105
12489TIP3   OH258957   1.181   2.254  13.709  0.1848 -0.8059  0.3176
12489TIP3    H158958   1.132   2.239  13.790 -1.8858  2.8861 -0.0334
12489TIP3    H258959   1.115   2.255  13.640  1.7492 -2.5589 -1.3372
12490TIP3   OH258960   2.917   2.484  14.739  0.1686  0.1873  0.4247
12490TIP3    H158961   2.854   2.503  14.670  0.3020 -3.9429 -1.0492
12490TIP3    H258962   2.883   2.531  14.816 -3.3254  0.1402 -0.9354
12491TIP3   OH258963   4.904   6.324  12.090  0.1541  0.5651  0.4614
12491TIP3    H158964   4.862   6.255  12.141 -0.0447  0.1419 -0.2609
12491TIP3    H258965   4.995   6.326  12.121  0.5304 -0.9731 -0.4606
12492TIP3   OH258966   2.333   2.648   3.571  0.0758  0.0795  0.5456
12492TIP3    H158967   2.395   2.707   3.613  0.3054  0.8682 -0.8622
12492TIP3    H258968   2.331   2.571   3.628 -0.8619  1.7232  2.8733
12493TIP3   OH258969   4.224   5.125   4.170  0.3874  0.3078 -0.7715
12493TIP3    H158970   4.225   5.087   4.083  0.2956 -0.5471 -0.4133
12493TIP3    H258971   4.131   5.125   4.195  0.4914 -0.2029 -0.3640
12494TIP3   OH258972   4.800   5.986  15.581 -0.3493  0.6332 -0.1945
12494TIP3    H158973   4.730   5.999  15.518  0.3606  0.8987 -0.9397
12494TIP3    H258974   4.805   5.891  15.592 -0.8813  0.6174 -0.0658
12495TIP3   OH258975   3.397   4.594   1.005 -0.6872 -0.2534  0.1934
12495TIP3    H158976   3.348   4.632   1.078  0.3119  1.3013  0.0943
12495TIP3    H258977   3.488   4.621   1.020 -0.3773 -0.3488 -1.3304
12496TIP3   OH258978   0.224   1.604   0.083  0.3924  0.1240  0.0529
12496TIP3    H158979   0.214   1.567   0.171 -0.4637 -0.7212 -0.3959
12496TIP3    H258980   0.299   1.663   0.091 -0.2519  0.7856  1.5927
12497TIP3   OH258981   0.253   1.737  14.057 -0.0263  0.1062 -0.6521
12497TIP3    H158982   0.292   1.652  14.040  1.0168  0.2145  0.9593
12497TIP3    H258983   0.308   1.799  14.008  0.9222  0.0999  0.3633
12498TIP3   OH258984   4.669   5.952   1.151 -0.4096 -0.9926  0.3479
12498TIP3    H158985   4.661   5.892   1.226  1.0894 -1.6443  0.0225
12498TIP3    H258986   4.735   5.912   1.095  1.5374  1.5004  0.6657
12499TIP3   OH258987   2.214   2.840   4.845 -0.2511 -0.2392 -0.4238
12499TIP3    H158988   2.133   2.879   4.812 -0.6352 -2.1597 -1.8954
12499TIP3    H258989   2.204   2.840   4.940 -2.1011 -0.6654 -0.5884
12500TIP3   OH258990   4.480   5.598   2.591  0.0005  0.5142  0.1474
12500TIP3    H158991   4.508   5.569   2.677 -1.7109  1.8923  1.2495
12500TIP3    H258992   4.454   5.518   2.545 -0.6851 -0.1039  1.5526
12501TIP3   OH258993   0.130   1.923   6.418 -0.9676  0.5913  0.6233
12501TIP3    H158994   0.114   1.870   6.496  0.6463  1.4597  1.5813
12501TIP3    H258995   0.056   1.984   6.415 -1.6807 -0.2518  0.7544
12502TIP3   OH258996   5.330   2.703   2.181 -0.3821 -1.0962  0.2362
12502TIP3    H158997   5.361   2.787   2.215  2.4810 -0.9321 -2.3846
12502TIP3    H258998   5.381   2.637   2.228 -0.1843 -1.1652 -0.0727
12503TIP3   OH258999   2.973   4.166  13.180 -0.5392  0.2357  0.0920
12503TIP3    H159000   2.925   4.145  13.100 -2.5092  0.7080  1.0685
12503TIP3    H259001   3.029   4.240  13.156 -1.2192  0.4789 -0.8271
12504TIP3   OH259002   5.583   2.460  16.485 -0.1044  0.7686  0.0712
12504TIP3    H159003   5.496   2.499  16.473 -0.8871 -0.9797 -0.2384
12504TIP3    H259004   5.572   2.400  16.559  0.8550  0.5833  0.0753
12505TIP3   OH259005   2.551   6.342   1.615 -0.2535  0.0660  0.1074
12505TIP3    H159006   2.566   6.277   1.684  0.3829 -0.4413 -0.5001
12505TIP3    H259007   2.526   6.290   1.539 -0.1340  0.5667 -0.2710
12506TIP3   OH259008   3.052   6.588   6.353 -0.7669 -0.5153  0.8867
12506TIP3    H159009   3.080   6.547   6.435 -2.1147 -0.7972  1.2202
12506TIP3    H259010   3.021   6.674   6.379 -0.9550 -0.5047  0.6269
12507TIP3   OH259011   1.038   4.458  12.888  0.6814  0.1660  0.1338
12507TIP3    H159012   1.057   4.516  12.814 -0.8361  0.7203  0.1428
12507TIP3    H259013   1.124   4.438  12.926  1.3331  1.3709 -0.6466
12508TIP3   OH259014   4.516   3.787  12.982 -0.2623  0.3343 -0.0637
12508TIP3    H159015   4.590   3.789  13.043 -0.7157 -0.5725  0.5443
12508TIP3    H259016   4.549   3.738  12.906 -0.2344 -0.0726  0.2083
12509TIP3   OH259017   6.000   2.432  10.994  0.1746 -0.4492 -0.1459
12509TIP3    H159018   5.987   2.468  11.082  0.6255  1.5400 -0.8320
12509TIP3    H259019   6.088   2.394  10.996 -0.8134 -2.8453  0.9791
12510TIP3   OH259020   5.222   6.770   5.023 -0.1713 -0.3034 -0.3379
12510TIP3    H159021   5.150   6.790   4.964 -0.7215 -1.2392 -0.0079
12510TIP3    H259022   5.301   6.795   4.975 -0.6229 -0.7663 -1.3532
12511TIP3   OH259023   5.497   1.354  12.840 -0.4230 -0.4146  0.4236
12511TIP3    H159024   5.425   1.395  12.792  0.9948  1.8069  0.0357
12511TIP3    H259025   5.459   1.334  12.926 -1.1678  2.1359  0.7765
12512TIP3   OH259026   0.224   1.439  16.973  0.3357  0.1618  0.0923
12512TIP3    H159027   0.220   1.486  17.056  0.0018 -1.6379  1.1464
12512TIP3    H259028   0.316   1.441  16.948  0.6916 -0.5259  1.2925
12513TIP3   OH259029   4.909   4.848  11.598  0.1125 -0.4041 -0.3021
12513TIP3    H159030   4.823   4.891  11.595 -0.0371 -0.6566  0.1485
12513TIP3    H259031   4.954   4.889  11.672 -0.2101 -1.3151  0.4368
12514TIP3   OH259032   2.421   6.748  11.760 -0.3165  0.1475 -1.0181
12514TIP3    H159033   2.457   6.822  11.711 -0.6965  1.9988  1.3207
12514TIP3    H259034   2.497   6.693  11.778  0.3931  1.1221 -0.9112
12515TIP3   OH259035   1.570   3.089   3.178 -0.1643 -0.3191 -0.2450
12515TIP3    H159036   1.546   3.023   3.243 -1.0019 -0.2192 -0.4428
12515TIP3    H259037   1.518   3.166   3.202  1.8529  0.7870  0.8585
12516TIP3   OH259038   6.542   6.270   1.875 -0.9861  0.2965  0.0947
12516TIP3    H159039   6.573   6.282   1.786  0.1251 -2.5762 -0.0056
12516TIP3    H259040   6.464   6.216   1.866  1.8815 -4.5651  0.8510
12517TIP3   OH259041   0.463   4.849   0.535 -0.0383  0.1654 -0.0234
12517TIP3    H159042   0.550   4.827   0.500  0.1059  1.5143 -0.6032
12517TIP3    H259043   0.432   4.919   0.477 -1.3347 -0.0011  0.4437
12518TIP3   OH259044   0.527   5.887   3.273 -0.4244 -0.9007 -0.0771
12518TIP3    H159045   0.569   5.893   3.359 -2.5935 -0.9746  1.0380
12518TIP3    H259046   0.510   5.794   3.262 -1.7458 -0.7222  0.2611
12519TIP3   OH259047   6.828   3.298  11.974 -0.0615  0.1419 -0.0386
12519TIP3    H159048   6.790   3.385  11.987  2.3217  1.2001  0.2494
12519TIP3    H259049   6.922   3.310  11.982  0.4395 -2.3007 -1.0263
12520TIP3   OH259050   0.119   1.854   5.990  0.1560  1.1902  0.1209
12520TIP3    H159051   0.111   1.808   6.074 -2.2211  1.5757  0.1555
12520TIP3    H259052   0.042   1.827   5.940  0.1201  3.0343 -0.9010
12521TIP3   OH259053   0.624   5.078  13.465 -0.6799 -0.3913 -0.1000
12521TIP3    H159054   0.682   5.060  13.391 -1.9766 -2.2675 -0.7525
12521TIP3    H259055   0.580   5.160  13.443  0.1580 -0.0666 -0.5991
12522TIP3   OH259056   1.629   4.888  10.831  0.0820  0.3238  0.0522
12522TIP3    H159057   1.587   4.802  10.842  0.5455  0.2142  1.0634
12522TIP3    H259058   1.618   4.908  10.738  1.2716 -1.5286 -0.5458
12523TIP3   OH259059   2.964   1.619   4.233  0.2737 -0.0895 -0.2558
12523TIP3    H159060   2.958   1.535   4.277  0.7766 -2.0601 -3.5512
12523TIP3    H259061   2.876   1.636   4.199  0.4023  0.1674 -0.4704
12524TIP3   OH259062   2.165   2.249   0.559 -0.0725 -0.2871  0.1943
12524TIP3    H159063   2.168   2.208   0.646  1.5801  0.1235  0.3805
12524TIP3    H259064   2.072   2.261   0.541 -0.4765  0.7913  2.4869
12525TIP3   OH259065   4.089   4.507   2.765  0.4200 -0.3362  0.0846
12525TIP3    H159066   4.051   4.579   2.816  1.0487  0.6092 -0.7509
12525TIP3    H259067   4.052   4.518   2.677 -0.5820 -1.8900  0.2802
12526TIP3   OH259068   2.368   5.554  13.992  0.1401 -0.0424 -0.6361
12526TIP3    H159069   2.398   5.639  14.025 -1.6320  1.0472 -1.6585
12526TIP3    H259070   2.310   5.521  14.061  0.7720 -0.4034 -0.2705
12527TIP3   OH259071   6.291   5.451  12.660  0.2272  0.6127  0.0695
12527TIP3    H159072   6.297   5.545  12.679 -0.4555  0.9659 -1.2870
12527TIP3    H259073   6.310   5.444  12.567 -1.0179 -0.4328 -0.1381
12528TIP3   OH259074   2.212   2.355   1.762  0.1343 -0.1934  0.0657
12528TIP3    H159075   2.305   2.334   1.774  0.6131  1.8765  0.3218
12528TIP3    H259076   2.169   2.269   1.757  2.0696 -1.2070 -0.3151
12529TIP3   OH259077   0.323   5.731  10.471 -0.6397  0.0387 -0.4565
12529TIP3    H159078   0.382   5.774  10.410  1.8616 -1.8058  0.5122
12529TIP3    H259079   0.339   5.774  10.555 -2.1100  0.7608 -0.5026
12530TIP3   OH259080   6.345   2.300  11.665  0.3631  0.0301 -1.0069
12530TIP3    H159081   6.404   2.277  11.593  0.8923  0.9168 -0.8720
12530TIP3    H259082   6.390   2.272  11.744  0.2184 -0.0590 -0.9552
12531TIP3   OH259083   5.696   3.661   1.699 -0.5308 -0.6414 -0.3189
12531TIP3    H159084   5.698   3.658   1.795  1.2548  2.6127 -0.0901
12531TIP3    H259085   5.777   3.616   1.673 -0.9596 -1.4284 -0.3028
12532TIP3   OH259086   6.696   3.328  16.822 -0.0150  0.5278 -0.1596
12532TIP3    H159087   6.600   3.327  16.817 -0.1680  0.4143  1.9123
12532TIP3    H259088   6.725   3.306  16.733 -1.8700  1.8348 -1.1690
12533TIP3   OH259089   1.296   4.714  11.142  0.0600 -0.7557 -0.2646
12533TIP3    H159090   1.369   4.718  11.205 -0.7527  0.3480  0.6626
12533TIP3    H259091   1.315   4.784  11.079  1.6790 -2.8451 -2.2503
12534TIP3   OH259092   4.746   1.037  16.365  0.2579  0.7301 -0.0086
12534TIP3    H159093   4.825   0.982  16.373 -0.8086 -0.6421  2.2990
12534TIP3    H259094   4.769   1.117  16.411  0.1881  0.1267  1.1173
12535TIP3   OH259095   6.255   4.559  11.904 -0.3530  0.1054  0.0687
12535TIP3    H159096   6.176   4.507  11.890  1.2196 -2.4165  0.0346
12535TIP3    H259097   6.317   4.499  11.946  2.5524  1.0395 -2.5106
12536TIP3   OH259098   3.183   6.772  15.874  0.4599 -0.3990  0.1152
12536TIP3    H159099   3.206   6.822  15.796 -0.3283 -1.1676 -0.6325
12536TIP3    H259100   3.161   6.839  15.940  1.1255  0.2521 -0.3127
12537TIP3   OH259101   5.230   4.533   4.407 -0.3833  0.0702  0.2926
12537TIP3    H159102   5.168   4.565   4.473  0.7450  0.6726  1.0851
12537TIP3    H259103   5.195   4.566   4.324 -0.8218  0.9015  0.7895
12538TIP3   OH259104   3.173   4.355   5.828  0.1431 -0.0988  0.0067
12538TIP3    H159105   3.092   4.308   5.805  0.4212  0.3252 -1.9715
12538TIP3    H259106   3.216   4.297   5.891 -0.0380 -2.0599 -1.5534
12539TIP3   OH259107   2.643   4.872   6.268  0.4637  0.1734 -0.0325
12539TIP3    H159108   2.656   4.949   6.212  0.1093  1.5490  1.6887
12539TIP3    H259109   2.565   4.893   6.319  1.7972 -0.1925  2.2706
12540TIP3   OH259110   3.678   6.142   2.769  0.1250 -0.8336 -0.3674
12540TIP3    H159111   3.610   6.103   2.824  1.4693 -0.9115  1.3080
12540TIP3    H259112   3.635   6.217   2.727 -0.9908 -0.8706  0.6572
12541TIP3   OH259113   4.582   4.385  12.106 -0.3818 -0.1581 -0.4407
12541TIP3    H159114   4.500   4.429  12.085 -0.6363  0.9841  2.5439
12541TIP3    H259115   4.615   4.430  12.184  2.7124 -1.0804 -1.0559
12542TIP3   OH259116   4.036   0.785  16.963 -0.9407 -0.3735  0.5138
12542TIP3    H159117   4.078   0.720  17.019  0.7933 -1.6699 -2.1049
12542TIP3    H259118   3.963   0.739  16.923 -0.7426 -0.2147 -0.0430
12543TIP3   OH259119   3.899   0.685   2.929 -0.6335  0.6142 -0.3705
12543TIP3    H159120   3.994   0.674   2.923 -0.7402 -1.1756  0.4505
12543TIP3    H259121   3.886   0.772   2.965  0.7309  0.5245  0.3794
12544TIP3   OH259122   4.419   4.570   2.282 -0.3874 -0.6129  0.3121
12544TIP3    H159123   4.423   4.475   2.274 -1.3784 -0.7152  0.8020
12544TIP3    H259124   4.474   4.590   2.358 -1.2253 -0.9378  1.0162
12545TIP3   OH259125   1.656   6.479   2.502  0.0609 -0.9656  0.3462
12545TIP3    H159126   1.695   6.402   2.543  1.6108 -1.3508 -1.7164
12545TIP3    H259127   1.718   6.505   2.434 -1.4195  0.8474 -0.4103
12546TIP3   OH259128   1.239   0.589   1.310 -0.6703 -0.5067  0.3563
12546TIP3    H159129   1.200   0.603   1.223 -1.2083  0.4504  0.7370
12546TIP3    H259130   1.178   0.529   1.353 -1.1179  0.0663  0.5354
12547TIP3   OH259131   2.641   3.297  14.287 -0.1530 -0.7120 -0.6096
12547TIP3    H159132   2.706   3.231  14.312  1.0024  1.0446  1.4029
12547TIP3    H259133   2.670   3.328  14.202  1.5315 -0.2179  0.0948
12548TIP3   OH259134   1.675   6.016   0.873  0.8134  0.2725  0.2501
12548TIP3    H159135   1.725   5.935   0.867 -1.6412 -1.7124  3.1661
12548TIP3    H259136   1.584   5.986   0.884 -0.3942  3.5091 -0.0226
12549TIP3   OH259137   6.573   1.148  14.597 -0.1904 -0.2952  0.3472
12549TIP3    H159138   6.654   1.147  14.647 -0.3614  2.1119  0.7753
12549TIP3    H259139   6.535   1.061  14.611  1.5309 -0.9239  1.3906
12550TIP3   OH259140   0.816   6.057  16.241 -0.0875 -0.1232 -0.9126
12550TIP3    H159141   0.739   6.011  16.210 -0.1060  0.5077 -1.8520
12550TIP3    H259142   0.877   5.988  16.268 -2.0927 -0.6618  2.9226
12551TIP3   OH259143   1.482   5.225   2.674 -0.2744  0.3441  0.0398
12551TIP3    H159144   1.552   5.241   2.611  0.8873  0.8685  1.3987
12551TIP3    H259145   1.402   5.228   2.622  0.7372 -1.3368 -1.7447
12552TIP3   OH259146   2.406   0.987   0.518  0.0104 -0.2714  0.5480
12552TIP3    H159147   2.423   1.056   0.582 -0.4895  0.0108  0.3848
12552TIP3    H259148   2.443   1.020   0.436 -1.4129  0.4217  0.1516
12553TIP3   OH259149   3.628   1.739  14.536 -0.1015  0.3373 -0.1827
12553TIP3    H159150   3.702   1.796  14.555 -0.5752  1.0748 -0.5277
12553TIP3    H259151   3.653   1.655  14.575  2.5405 -0.5674 -3.3447
12554TIP3   OH259152   2.605   0.766   4.895 -0.3057 -0.6047 -0.0667
12554TIP3    H159153   2.586   0.768   4.801 -0.0909  0.2039 -0.1006
12554TIP3    H259154   2.592   0.674   4.920  0.7212 -1.0545 -1.1012
12555TIP3   OH259155   2.166   1.153   4.592  0.4976  0.5199  0.0473
12555TIP3    H159156   2.169   1.083   4.527 -0.0470  0.7556 -0.2409
12555TIP3    H259157   2.103   1.123   4.657  1.7063 -0.1149  0.9533
12556TIP3   OH259158   1.748   6.340   0.387  0.4260  0.2042  0.1897
12556TIP3    H159159   1.810   6.369   0.454  0.7309  0.2999 -0.1338
12556TIP3    H259160   1.802   6.297   0.321  0.0571 -0.5013  0.3351
12557TIP3   OH259161   1.616   2.108  15.821 -0.5973 -0.0940  0.5080
12557TIP3    H159162   1.521   2.110  15.822 -0.6482  2.3936  2.9610
12557TIP3    H259163   1.642   2.170  15.753 -0.5837 -2.1860 -1.5306
12558TIP3   OH259164   6.788   0.926  15.307  0.0564  0.1919  0.7820
12558TIP3    H159165   6.754   0.836  15.307 -0.6532  0.4532  1.1979
12558TIP3    H259166   6.723   0.976  15.357 -0.1133  1.1454 -0.3460
12559TIP3   OH259167   1.576   2.339  16.487 -0.1551  0.6574 -0.0485
12559TIP3    H159168   1.550   2.258  16.531  0.0646  0.3331 -0.5088
12559TIP3    H259169   1.642   2.377  16.544 -0.7056  0.8381  0.4858
12560TIP3   OH259170   4.496   3.179  13.430 -0.3939  0.2012  0.1125
12560TIP3    H159171   4.439   3.188  13.507 -0.3229 -1.6671  0.4200
12560TIP3    H259172   4.585   3.177  13.467 -0.2459  0.9225 -0.1826
12561TIP3   OH259173   1.510   5.924  13.120  0.0289  0.1040 -0.5652
12561TIP3    H159174   1.415   5.923  13.130 -0.0964 -2.3130 -1.4549
12561TIP3    H259175   1.539   5.841  13.158  1.5458 -0.1751 -2.1944
12562TIP3   OH259176   3.153   3.871  14.781  0.6590 -0.0463 -0.1725
12562TIP3    H159177   3.109   3.886  14.864  1.7495 -1.3070  0.6704
12562TIP3    H259178   3.152   3.776  14.770  4.4301 -0.3163  0.6589
12563TIP3   OH259179   3.160   4.282   5.150 -0.6277 -0.4757 -0.3486
12563TIP3    H159180   3.194   4.348   5.089  1.5966 -0.2376  1.0337
12563TIP3    H259181   3.198   4.200   5.121  2.5491 -0.0272  1.9554
12564TIP3   OH259182   1.033   6.089  11.116  0.1800 -0.0751 -0.1036
12564TIP3    H159183   1.037   6.081  11.021  2.6044 -1.9489  0.0535
12564TIP3    H259184   1.074   6.173  11.136 -0.3889  0.3478 -0.6939
12565TIP3   OH259185   4.826   0.742  11.643 -0.6451  0.2421 -0.3194
12565TIP3    H159186   4.871   0.765  11.724  1.2641 -0.1117 -1.2282
12565TIP3    H259187   4.821   0.824  11.593  0.6498 -0.0486 -0.9679
12566TIP3   OH259188   1.140   4.461  11.046 -0.2021 -0.0594  0.1538
12566TIP3    H159189   1.195   4.539  11.049 -0.6825  0.3461 -0.8197
12566TIP3    H259190   1.062   4.485  11.097  0.0827 -0.2670  0.6886
12567TIP3   OH259191   3.012   3.553   1.188  0.0410 -0.6893 -0.4637
12567TIP3    H159192   3.059   3.499   1.124  1.3290  0.1369 -0.2559
12567TIP3    H259193   2.921   3.552   1.158 -0.0594 -3.1865 -0.3049
12568TIP3   OH259194   0.893   5.427   0.272 -1.0693  0.3754 -0.1926
12568TIP3    H159195   0.912   5.481   0.348 -0.0882 -0.1917 -0.0252
12568TIP3    H259196   0.855   5.487   0.208  1.0171  1.5371 -0.4332
12569TIP3   OH259197   4.694   3.544   0.492  0.5663 -0.3406  0.2680
12569TIP3    H159198   4.785   3.527   0.465  1.6304  2.6455  1.5525
12569TIP3    H259199   4.651   3.577   0.413  0.8836 -0.7462 -0.0827
12570TIP3   OH259200   1.773   4.332  14.952  0.2014 -0.0838 -0.0494
12570TIP3    H159201   1.763   4.307  15.044 -4.5131 -1.3898 -0.6714
12570TIP3    H259202   1.742   4.422  14.948 -1.6855 -0.7168 -0.5659
12571TIP3   OH259203   0.105   5.146   2.356 -0.9797 -0.0670  0.3098
12571TIP3    H159204   0.071   5.229   2.323  1.0076  0.3485 -0.8678
12571TIP3    H259205   0.049   5.079   2.315 -3.5250  0.6394  2.3987
12572TIP3   OH259206   4.259   6.813  14.711  0.0393 -0.0427 -0.5350
12572TIP3    H159207   4.328   6.875  14.733 -1.7642  1.8334  0.2369
12572TIP3    H259208   4.305   6.733  14.685  2.4557  1.2214 -0.4155
12573TIP3   OH259209   5.385   1.177   5.635 -0.3706 -0.1069 -0.2516
12573TIP3    H159210   5.444   1.185   5.560  0.3872 -0.7741  0.2567
12573TIP3    H259211   5.298   1.167   5.595  0.2451 -2.7114 -1.1702
12574TIP3   OH259212   0.232   6.349  14.128 -0.2977 -0.1877 -0.8191
12574TIP3    H159213   0.290   6.322  14.199 -0.1262  1.0500 -0.4576
12574TIP3    H259214   0.288   6.398  14.068 -0.7901  0.3319 -0.8717
12575TIP3   OH259215   0.653   6.696  14.729  0.2121  0.1771  0.2176
12575TIP3    H159216   0.655   6.787  14.699 -0.6523  0.2834  0.4668
12575TIP3    H259217   0.668   6.644  14.649  1.5152  0.5371  0.2012
12576TIP3   OH259218   2.159   6.447   0.703 -0.0705  0.2705  0.0434
12576TIP3    H159219   2.110   6.394   0.641 -1.4094  0.2336  1.0967
12576TIP3    H259220   2.122   6.535   0.695  1.9432  1.0617 -1.4892
12577TIP3   OH259221   6.441   6.655  12.056  0.3103  0.4053  0.1208
12577TIP3    H159222   6.437   6.624  11.966  1.9230 -4.5810  1.4046
12577TIP3    H259223   6.535   6.663  12.075  0.0748 -0.1564  1.7009
12578TIP3   OH259224   3.733   3.730  16.807  0.1818 -0.3943 -0.1835
12578TIP3    H159225   3.762   3.779  16.884 -0.1828 -0.2226 -0.1526
12578TIP3    H259226   3.689   3.795  16.752  2.2662 -0.0468 -1.5482
12579TIP3   OH259227   1.086   2.423  10.851  0.0823  0.7494 -0.4008
12579TIP3    H159228   0.997   2.446  10.827 -0.0625  0.0631 -0.5316
12579TIP3    H259229   1.141   2.470  10.788 -0.1732  1.2856 -0.2295
12580TIP3   OH259230   4.489   0.572  14.417 -0.3296 -0.0260  0.0334
12580TIP3    H159231   4.420   0.517  14.381  0.7214 -1.0819 -0.4718
12580TIP3    H259232   4.527   0.519  14.487  0.1482  0.4090  0.1077
12581TIP3   OH259233   3.329   3.181  11.091  0.3625  0.4370  0.4511
12581TIP3    H159234   3.321   3.254  11.030  0.7295  0.5459  0.5269
12581TIP3    H259235   3.374   3.219  11.167 -1.7397  0.7870  1.6011
12582TIP3   OH259236   5.425   1.898  14.871  0.1139 -0.2504  0.1502
12582TIP3    H159237   5.388   1.833  14.931  1.8310 -0.3556  1.1641
12582TIP3    H259238   5.423   1.855  14.785 -0.9458 -0.7032  0.3827
12583TIP3   OH259239   5.181   1.306  11.560 -0.7406 -0.0247  0.4909
12583TIP3    H159240   5.124   1.360  11.505 -0.4783 -0.7977 -0.5790
12583TIP3    H259241   5.260   1.358  11.571 -0.2009 -0.4532 -1.1444
12584TIP3   OH259242   5.358   2.736  16.739  0.0229  0.2458 -0.4428
12584TIP3    H159243   5.419   2.808  16.721 -1.0688  1.1182 -0.7692
12584TIP3    H259244   5.287   2.777  16.789  0.2356 -0.9842  0.9369
12585TIP3   OH259245   6.524   5.390   1.594 -0.3505 -0.4756 -0.4133
12585TIP3    H159246   6.429   5.381   1.603 -0.3625 -1.0556 -1.0190
12585TIP3    H259247   6.536   5.473   1.548 -0.4431  0.7279  1.6493
12586TIP3   OH259248   4.072   3.535   1.926  0.5687  0.6328  0.6083
12586TIP3    H159249   4.095   3.604   1.988  0.4279  0.7984  0.4790
12586TIP3    H259250   3.997   3.491   1.967 -0.3071  1.5205 -0.0012
12587TIP3   OH259251   3.018   3.435   3.701 -0.3087  0.2868 -0.2236
12587TIP3    H159252   3.020   3.476   3.787 -0.0591 -0.4842  0.1503
12587TIP3    H259253   3.103   3.456   3.662  0.7090 -1.6201  0.8280
12588TIP3   OH259254   5.516   0.101  14.319 -0.1240 -0.4127  0.0467
12588TIP3    H159255   5.534   0.186  14.281 -0.6277  0.7193  2.1707
12588TIP3    H259256   5.467   0.054  14.251 -0.6562  1.3345 -0.8366
12589TIP3   OH259257   3.067   5.082  13.537 -0.3346  0.5398  0.0482
12589TIP3    H159258   3.152   5.075  13.582 -0.1606 -2.1196 -0.5444
12589TIP3    H259259   3.080   5.154  13.475  1.3168  0.5534  0.3427
12590TIP3   OH259260   5.164   1.666   1.363  0.5385  0.4754  0.2971
12590TIP3    H159261   5.118   1.714   1.295  0.2191 -0.5982 -0.2674
12590TIP3    H259262   5.257   1.683   1.347  0.6044 -1.2580 -1.6234
12591TIP3   OH259263   3.730   3.018   0.267 -0.4165 -0.6232  0.1243
12591TIP3    H159264   3.691   2.984   0.347 -1.2637 -1.8658 -0.7603
12591TIP3    H259265   3.747   2.940   0.214  1.0125  0.0919 -0.5292
12592TIP3   OH259266   5.671   5.864   5.949  0.3191 -0.4552 -0.0745
12592TIP3    H159267   5.760   5.869   5.915  0.6809 -0.7662  0.7891
12592TIP3    H259268   5.647   5.955   5.967  0.4594 -0.3705 -0.3125
12593TIP3   OH259269   1.146   0.008   2.998  0.1991  0.3569 -0.7955
12593TIP3    H159270   1.192  -0.063   3.043 -1.4479  0.1524  0.6560
12593TIP3    H259271   1.186   0.088   3.032 -0.0446  0.1700 -0.0629
12594TIP3   OH259272   5.838   4.735  15.394  0.4077  0.6776 -0.1239
12594TIP3    H159273   5.901   4.791  15.438  0.6771 -1.3681  2.3074
12594TIP3    H259274   5.889   4.661  15.362 -0.4209  0.1303 -0.2142
12595TIP3   OH259275   3.528   2.588   5.634  0.1244 -0.0392  0.1880
12595TIP3    H159276   3.567   2.509   5.597  0.1498  0.2029 -0.3086
12595TIP3    H259277   3.521   2.570   5.728  1.6453 -0.0144  0.3332
12596TIP3   OH259278   3.805   4.765  12.225  0.3035  0.6364 -0.0850
12596TIP3    H159279   3.829   4.765  12.318 -0.6376 -0.2035  0.1760
12596TIP3    H259280   3.710   4.773  12.224  0.0870 -1.3286 -0.8724
12597TIP3   OH259281   5.108   0.735   4.160 -0.1680  0.0293 -0.0089
12597TIP3    H159282   5.072   0.808   4.109 -0.6101 -0.9851 -1.1834
12597TIP3    H259283   5.057   0.659   4.133  0.8445 -0.8795  0.5699
12598TIP3   OH259284   0.465   1.174   4.373  0.2043  0.1112  0.2581
12598TIP3    H159285   0.428   1.263   4.372  0.4819  0.2362  0.9386
12598TIP3    H259286   0.536   1.178   4.436  0.0103 -0.6793  0.5404
12599TIP3   OH259287   6.714   0.403  16.100 -0.1883 -0.4825 -0.2197
12599TIP3    H159288   6.675   0.478  16.055 -0.3268 -1.2239 -1.3752
12599TIP3    H259289   6.642   0.341  16.109  0.5459 -1.6604 -1.9237
12600TIP3   OH259290   6.800   2.401   5.086 -0.2187  0.4032 -0.1750
12600TIP3    H159291   6.877   2.348   5.107 -0.5599  0.6709  2.0134
12600TIP3    H259292   6.760   2.419   5.171 -1.6212  1.9074 -1.1017
12601TIP3   OH259293   6.118   0.007  14.078 -0.5272 -0.2659  0.2329
12601TIP3    H159294   6.160   0.048  14.002  0.6845 -1.6819  0.0792
12601TIP3    H259295   6.080  -0.073  14.044 -1.8773  0.1369  0.7377
12602TIP3   OH259296   1.558   1.736  10.727 -0.1648 -0.1271  0.0538
12602TIP3    H159297   1.486   1.795  10.750 -0.0874  0.4806 -1.2056
12602TIP3    H259298   1.611   1.785  10.664  0.7271 -0.9994  0.0930
12603TIP3   OH259299   4.552   0.826  11.489  0.0194  1.1197 -0.0959
12603TIP3    H159300   4.536   0.849  11.581 -0.1015  0.4858  0.0487
12603TIP3    H259301   4.470   0.786  11.460  1.4826 -3.4357  1.0487
12604TIP3   OH259302   2.678   5.135   2.112  0.0276 -0.2078  0.1598
12604TIP3    H159303   2.759   5.084   2.098 -0.7125 -1.4733  0.2820
12604TIP3    H259304   2.645   5.151   2.024 -0.0751 -0.5265  0.1369
12605TIP3   OH259305   5.581   1.004   3.436  0.0439 -0.2999  0.2300
12605TIP3    H159306   5.614   0.941   3.371 -0.3453 -0.0789 -0.1884
12605TIP3    H259307   5.517   1.057   3.388 -1.3405 -1.0702  1.1510
12606TIP3   OH259308   1.819   5.875   4.174 -0.2362 -0.2675 -0.1503
12606TIP3    H159309   1.780   5.896   4.258 -0.3248 -1.7083  0.1831
12606TIP3    H259310   1.842   5.960   4.136  0.3186  0.3818  1.5631
12607TIP3   OH259311   2.919   6.097   0.752  0.4602  0.2298 -0.0814
12607TIP3    H159312   2.913   6.169   0.816  0.5206  2.5651 -2.5114
12607TIP3    H259313   3.001   6.113   0.706  0.2290 -1.1391 -1.0120
12608TIP3   OH259314   2.418   3.412  15.879 -0.0471 -0.0481  0.2492
12608TIP3    H159315   2.330   3.382  15.857  0.2516 -1.1311  0.4825
12608TIP3    H259316   2.474   3.337  15.861  1.1743  1.3025 -2.0293
12609TIP3   OH259317   4.267   3.532   5.332 -0.1623  0.0967  0.0094
12609TIP3    H159318   4.203   3.502   5.267  0.0628 -0.0459 -0.1510
12609TIP3    H259319   4.351   3.532   5.285  0.2679 -1.4821  0.6953
12610TIP3   OH259320   4.506   6.848  12.938  0.0244 -0.1027 -0.4434
12610TIP3    H159321   4.548   6.918  12.888  1.2751  0.7960  1.7354
12610TIP3    H259322   4.414   6.873  12.940 -0.4977 -1.2257 -3.8811
12611TIP3   OH259323   1.389   1.346   5.605 -0.0817  0.1012 -0.0446
12611TIP3    H159324   1.360   1.392   5.684 -0.5847  1.1507 -0.8161
12611TIP3    H259325   1.386   1.412   5.536  1.5590 -0.4672 -0.7176
12612TIP3   OH259326   1.643   5.517  10.980 -0.3077  0.0360 -0.3890
12612TIP3    H159327   1.548   5.529  10.987 -0.6557 -1.6091 -1.5481
12612TIP3    H259328   1.660   5.433  11.024  0.4411 -0.1777 -1.0602
12613TIP3   OH259329   6.757   4.419  16.630  0.3120  0.2270 -0.1471
12613TIP3    H159330   6.697   4.345  16.632 -0.6319  0.9506 -0.9709
12613TIP3    H259331   6.839   4.384  16.666 -0.9583 -0.4234  2.3555
12614TIP3   OH259332   5.896   2.435   2.899 -0.2376  0.5265  0.2302
12614TIP3    H159333   5.939   2.425   2.814 -0.9231 -0.2748 -0.0399
12614TIP3    H259334   5.878   2.529   2.905 -1.4755  0.4292 -1.1938
12615TIP3   OH259335   4.170   2.846  16.011  0.4595  0.1067  0.8106
12615TIP3    H159336   4.109   2.782  16.047 -0.0105  0.2952  0.3680
12615TIP3    H259337   4.143   2.930  16.048 -0.7470  0.4818 -0.7986
12616TIP3   OH259338   6.087   1.955  12.792 -0.2037 -0.0713  0.3670
12616TIP3    H159339   6.116   1.871  12.755 -0.7671  0.0910 -0.4533
12616TIP3    H259340   6.141   1.965  12.871  0.7248 -0.6233 -0.1770
12617TIP3   OH259341   4.772   6.674  13.067  0.8163 -0.6421 -0.5595
12617TIP3    H159342   4.822   6.621  13.128  1.3604 -0.7842 -1.1182
12617TIP3    H259343   4.766   6.621  12.988 -0.1861 -0.6062 -0.5208
12618TIP3   OH259344   0.304   1.956  12.327  0.3356 -0.2683 -0.4818
12618TIP3    H159345   0.363   1.884  12.349  1.2597  0.4661 -0.5217
12618TIP3    H259346   0.336   1.988  12.243 -0.5052 -0.2545 -0.8073
12619TIP3   OH259347   0.025   4.113   5.839  0.1365 -0.2569 -0.4288
12619TIP3    H159348   0.051   4.020   5.839  1.1321  0.0090 -0.5353
12619TIP3    H259349   0.087   4.155   5.780  0.8224  0.7815  0.9710
12620TIP3   OH259350   5.552   4.114  11.859  0.4792  0.5890 -0.9130
12620TIP3    H159351   5.460   4.133  11.843  0.5368  0.3660 -1.5549
12620TIP3    H259352   5.555   4.018  11.866  0.6707  0.5903 -0.9712
12621TIP3   OH259353   1.139   5.334  15.394 -0.4054 -0.0073 -0.1457
12621TIP3    H159354   1.071   5.309  15.457  1.4929 -0.4593  1.8509
12621TIP3    H259355   1.195   5.257  15.388  1.3186  1.1632  0.2211
12622TIP3   OH259356   3.439   5.822   1.472  0.0440  0.2401 -0.0688
12622TIP3    H159357   3.448   5.776   1.389  0.7508 -0.5933  0.4530
12622TIP3    H259358   3.353   5.798   1.504  0.1908 -0.2853 -0.0651
12623TIP3   OH259359   2.048   3.472   3.900 -0.4134  0.0720  0.1263
12623TIP3    H159360   2.140   3.470   3.872 -0.6371  0.1953 -0.6477
12623TIP3    H259361   2.007   3.537   3.843 -0.6650  1.1806  1.5182
12624TIP3   OH259362   5.353   0.278   5.015 -0.4110  0.1448 -0.6075
12624TIP3    H159363   5.351   0.229   5.098  1.7022  1.0858  0.0562
12624TIP3    H259364   5.331   0.213   4.949 -0.3694 -1.0660  0.5217
12625TIP3   OH259365   2.865   1.512   2.487 -0.1262  0.3796 -0.8287
12625TIP3    H159366   2.769   1.518   2.485 -0.0366  2.5702 -2.8434
12625TIP3    H259367   2.887   1.454   2.415  0.1011 -1.5816  0.7129
12626TIP3   OH259368   5.419   0.890   0.977 -0.1093  0.2383  0.1963
12626TIP3    H159369   5.342   0.933   1.013 -0.3688  0.8699 -1.0479
12626TIP3    H259370   5.477   0.876   1.052 -0.2993  2.1552  0.7418
12627TIP3   OH259371   0.755   0.656   5.679  0.4167 -0.1047 -0.2945
12627TIP3    H159372   0.807   0.663   5.599 -0.5219  0.9510 -0.8456
12627TIP3    H259373   0.760   0.742   5.719 -0.9402  0.0623 -0.4104
12628TIP3   OH259374   3.267   5.818  13.119 -0.1240  0.1780 -0.2135
12628TIP3    H159375   3.199   5.766  13.076 -1.2753  0.8155  0.7468
12628TIP3    H259376   3.241   5.909  13.102 -0.1113  0.4297  1.0306
12629TIP3   OH259377   3.927   3.577   3.568 -0.0353 -0.0251 -0.4052
12629TIP3    H159378   4.020   3.575   3.591  0.4142 -0.3548 -2.1298
12629TIP3    H259379   3.891   3.496   3.604  0.1597  0.4091  0.8425
12630TIP3   OH259380   3.505   0.934   6.292  0.1873  0.3406 -0.2519
12630TIP3    H159381   3.443   0.869   6.326  1.2840  0.4958  2.2000
12630TIP3    H259382   3.587   0.916   6.337  0.6662  3.1291  0.1719
12631TIP3   OH259383   0.558   1.715  12.930 -0.6968 -0.2528  0.0476
12631TIP3    H159384   0.587   1.799  12.892 -1.1325  0.2200  0.7320
12631TIP3    H259385   0.637   1.680  12.972 -0.6191  0.0417  0.1556
12632TIP3   OH259386   1.907   0.982  15.061 -0.3288 -0.0623 -0.0612
12632TIP3    H159387   1.936   1.070  15.081  0.5351  0.3175 -2.5930
12632TIP3    H259388   1.829   0.969  15.115  0.1888  1.7952  1.2064
12633TIP3   OH259389   1.574   5.701   3.177  0.4559 -0.2917  0.0317
12633TIP3    H159390   1.525   5.677   3.098  0.4249 -1.3767  0.3655
12633TIP3    H259391   1.540   5.643   3.245 -0.0454  1.1193  1.0395
12634TIP3   OH259392   3.033   5.252  16.657 -0.0541  0.1352 -0.0704
12634TIP3    H159393   3.092   5.212  16.722  1.1407 -0.6045 -1.5446
12634TIP3    H259394   2.975   5.181  16.631  1.8416 -0.7000 -2.4334
12635TIP3   OH259395   2.550   6.843  16.711 -0.0817 -0.4075  0.2434
12635TIP3    H159396   2.633   6.798  16.731 -0.3966 -1.1665 -0.1080
12635TIP3    H259397   2.483   6.777  16.725 -0.4745 -0.3705 -1.3078
12636TIP3   OH259398   5.102   5.750   5.446  0.3389  0.0706  0.0897
12636TIP3    H159399   5.082   5.715   5.359 -1.0897  0.0345  0.4167
12636TIP3    H259400   5.111   5.672   5.502 -1.3564  0.1530  0.5064
12637TIP3   OH259401   2.260   4.074   3.462 -0.2160  0.0223 -0.4183
12637TIP3    H159402   2.331   4.011   3.453 -1.2160 -1.0696 -0.8972
12637TIP3    H259403   2.212   4.069   3.379  1.3881  3.6507 -1.7971
12638TIP3   OH259404   4.694   2.041   0.869  0.3293  0.4623  0.5184
12638TIP3    H159405   4.610   2.087   0.874  0.7650  1.7783 -2.2151
12638TIP3    H259406   4.717   2.044   0.776  3.1752 -0.2795  1.1160
12639TIP3   OH259407   1.892   1.152  10.124 -1.0881  0.6940 -0.3569
12639TIP3    H159408   1.981   1.156  10.089 -0.8242 -0.3407  0.1250
12639TIP3    H259409   1.878   1.059  10.142 -1.4984  1.0632  1.4923
12640TIP3   OH259410   3.672   1.554  14.713 -0.2708 -0.0655  0.7780
12640TIP3    H159411   3.684   1.624  14.777 -1.9298 -0.8655  2.0395
12640TIP3    H259412   3.710   1.476  14.754 -0.9757 -0.4996  0.6325
12641TIP3   OH259413   3.915   2.429  15.851  0.3596  0.1432  0.0547
12641TIP3    H159414   3.963   2.469  15.778 -1.7632 -1.1818 -2.2130
12641TIP3    H259415   3.921   2.335  15.835 -1.8786 -0.1005  0.3912
12642TIP3   OH259416   5.499   2.472  14.565  0.3739  0.4202  0.5765
12642TIP3    H159417   5.526   2.441  14.652  3.0481 -0.1036 -0.3440
12642TIP3    H259418   5.470   2.393  14.519 -1.1976  0.7219  1.0067
12643TIP3   OH259419   2.013   6.073  15.834  0.3071 -0.0397  0.3988
12643TIP3    H159420   2.073   6.131  15.882  1.8346 -2.1607  1.2434
12643TIP3    H259421   1.933   6.073  15.887  1.5781 -1.4775  2.4716
12644TIP3   OH259422   5.993   0.389   3.986 -0.0595 -0.5224  0.0985
12644TIP3    H159423   5.900   0.413   3.978 -0.5871 -2.6846 -1.0808
12644TIP3    H259424   5.994   0.323   4.055 -0.0213 -2.9660 -2.0717
12645TIP3   OH259425   4.006   5.643   2.730  0.0331 -0.7244  0.3206
12645TIP3    H159426   4.091   5.679   2.757 -0.8770  0.9927  1.0274
12645TIP3    H259427   3.977   5.700   2.659 -0.9242 -0.7753  0.6646
12646TIP3   OH259428   6.039   2.559  15.529  0.0016  0.6999  0.0902
12646TIP3    H159429   6.052   2.464  15.521  1.5299  0.8308  0.6807
12646TIP3    H259430   6.003   2.571  15.617  0.7450  0.7385  0.3936
12647TIP3   OH259431   3.462   2.213   5.900 -0.0739 -0.1867 -0.5267
12647TIP3    H159432   3.368   2.196   5.909 -0.5805 -0.2770 -4.3453
12647TIP3    H259433   3.499   2.129   5.874  1.2178 -0.2558  1.3416
12648TIP3   OH259434   3.121   2.776   4.554 -0.2475 -0.5350 -0.4431
12648TIP3    H159435   3.126   2.757   4.647  0.5089  2.6569  0.2914
12648TIP3    H259436   3.028   2.769   4.532 -0.8118  1.1505  1.2079
12649TIP3   OH259437   5.407   5.796   5.000 -0.0476  0.0344 -0.5242
12649TIP3    H159438   5.332   5.777   4.943 -0.2453 -2.6301  0.4997
12649TIP3    H259439   5.406   5.727   5.065  1.1503  2.0655  1.8006
12650TIP3   OH259440   3.565   1.538   5.212 -0.1141  0.1391 -0.3391
12650TIP3    H159441   3.554   1.600   5.140 -0.6549 -0.0338 -0.4117
12650TIP3    H259442   3.541   1.453   5.175  3.1203 -0.6313 -1.0299
12651TIP3   OH259443   1.013   6.472   4.663  0.1371 -0.2478  0.4956
12651TIP3    H159444   1.038   6.564   4.668  1.5459 -0.6449  1.2564
12651TIP3    H259445   0.956   6.467   4.586  1.2904  0.9768 -0.4841
12652TIP3   OH259446   2.821   1.300  10.345 -0.1345 -0.4775 -0.0823
12652TIP3    H159447   2.871   1.382  10.340  1.4808 -1.3636  0.7826
12652TIP3    H259448   2.732   1.327  10.368  0.5931  0.9868  1.1610
12653TIP3   OH259449   1.822   3.340   3.910 -0.2088 -0.1374  0.4773
12653TIP3    H159450   1.816   3.246   3.923  0.5604 -0.3839 -0.7306
12653TIP3    H259451   1.915   3.358   3.906 -0.3561  0.5286 -0.2047
12654TIP3   OH259452   1.879   2.451   1.286  0.8418  0.3350  0.1805
12654TIP3    H159453   1.817   2.418   1.221  0.1116  0.1811  0.9232
12654TIP3    H259454   1.951   2.389   1.284  0.4960 -0.0704  0.0160
12655TIP3   OH259455   0.339   2.061  10.850 -0.2412 -0.0874 -1.0710
12655TIP3    H159456   0.312   2.092  10.763  2.0687 -0.8171 -2.1094
12655TIP3    H259457   0.365   2.141  10.897  0.1967  0.1417 -1.6913
12656TIP3   OH259458   0.673   0.901  15.780  1.1464  0.1163  0.0140
12656TIP3    H159459   0.610   0.869  15.715  1.1553  2.0999 -1.0442
12656TIP3    H259460   0.681   0.829  15.843  0.4181 -1.5115 -1.6534
12657TIP3   OH259461   6.043   5.198   0.132 -0.0165  0.6125  0.0619
12657TIP3    H159462   6.080   5.272   0.180  0.1529  1.0527 -0.7264
12657TIP3    H259463   5.958   5.228   0.103  0.9452  1.3714 -2.1961
12658TIP3   OH259464   4.851   2.174  13.816 -0.4188 -0.4730 -0.3120
12658TIP3    H159465   4.936   2.131  13.815  0.0729  0.2272  2.2501
12658TIP3    H259466   4.818   2.159  13.905 -3.1414 -0.9839 -1.3230
12659TIP3   OH259467   0.897   4.693   2.517  0.0114 -0.1953 -0.2483
12659TIP3    H159468   0.885   4.600   2.501  0.8752 -0.2094 -0.8870
12659TIP3    H259469   0.824   4.735   2.472  0.1310 -0.5167 -0.7523
12660TIP3   OH259470   2.118   4.117  15.698  0.9861 -0.2295 -0.1174
12660TIP3    H159471   2.142   4.076  15.781 -3.3548 -1.5695  0.7011
12660TIP3    H259472   2.142   4.052  15.631 -1.4949 -2.1693  0.7700
12661TIP3   OH259473   5.908   5.064   6.375 -0.1620  0.0453 -0.3704
12661TIP3    H159474   5.946   4.979   6.352  1.7636  0.8809 -0.4118
12661TIP3    H259475   5.918   5.117   6.297  1.2643  1.1728  0.5520
12662TIP3   OH259476   4.743   1.261   0.914 -1.1059  0.0383 -0.1197
12662TIP3    H159477   4.756   1.350   0.946  2.6590 -0.7925  1.0689
12662TIP3    H259478   4.672   1.226   0.969 -1.4156  1.6909  0.5969
12663TIP3   OH259479   1.192   3.189  15.531  0.7493  0.0418 -0.6268
12663TIP3    H159480   1.228   3.101  15.523 -1.6052 -1.2979  1.6583
12663TIP3    H259481   1.147   3.205  15.448 -1.8408 -2.5750  0.0954
12664TIP3   OH259482   4.913   0.820   0.737  0.1808  0.3980  0.3065
12664TIP3    H159483   4.861   0.897   0.757 -1.5157 -1.0922  2.0688
12664TIP3    H259484   4.862   0.747   0.771  1.4521 -1.5996 -1.7450
12665TIP3   OH259485   4.983   3.773  12.128  0.0210 -0.4722  0.8842
12665TIP3    H159486   5.048   3.842  12.142  1.1445 -1.5471  1.1255
12665TIP3    H259487   4.918   3.788  12.196  0.8976 -0.3855  1.7293
12666TIP3   OH259488   0.437   2.892   3.643  0.1443  0.0842  0.0254
12666TIP3    H159489   0.517   2.889   3.590  0.1618 -1.5781  0.0759
12666TIP3    H259490   0.467   2.918   3.730  0.4788  0.4388 -0.1928
12667TIP3   OH259491   4.717   0.931  10.998  0.2793 -0.1445  0.1438
12667TIP3    H159492   4.757   0.844  10.991 -0.8770 -0.7378  0.7661
12667TIP3    H259493   4.684   0.949  10.910  0.7256 -0.2217 -0.0438
12668TIP3   OH259494   3.540   2.169  13.764 -0.7085  0.1256 -0.1108
12668TIP3    H159495   3.569   2.226  13.835 -0.7699  0.3815 -0.2900
12668TIP3    H259496   3.612   2.107  13.753 -0.6622  0.1383  0.1167
12669TIP3   OH259497   4.717   0.742  16.195  0.4142  0.7774  0.8173
12669TIP3    H159498   4.726   0.705  16.283  2.2883  0.4090  0.5157
12669TIP3    H259499   4.787   0.700  16.145 -0.3730  1.2923 -0.7484
12670TIP3   OH259500   4.248   0.910  15.753 -0.3619  0.4083 -0.4444
12670TIP3    H159501   4.202   0.991  15.730  1.7137  2.1473  1.1832
12670TIP3    H259502   4.314   0.936  15.816 -0.1458 -2.7321  0.8272
12671TIP3   OH259503   1.879   1.360  14.758  0.3539  0.6817 -0.3011
12671TIP3    H159504   1.792   1.319  14.765  0.2763  0.6197 -1.3843
12671TIP3    H259505   1.895   1.363  14.664  0.0432  3.8120 -0.3344
12672TIP3   OH259506   0.650   5.809  15.972  0.2908  0.4837  0.0026
12672TIP3    H159507   0.562   5.824  16.009  0.6216 -0.3614  1.1941
12672TIP3    H259508   0.635   5.749  15.899 -0.1606  0.6520 -0.0495
12673TIP3   OH259509   2.534   3.505  17.053 -0.3591 -0.1863  0.2474
12673TIP3    H159510   2.571   3.557  17.124 -1.4317  1.1665 -0.1465
12673TIP3    H259511   2.596   3.517  16.980 -0.1593 -0.1612  0.4207
12674TIP3   OH259512   4.416   2.818  13.031  0.0510  0.7796 -0.4947
12674TIP3    H159513   4.475   2.805  13.105  0.7223  0.9879 -0.9820
12674TIP3    H259514   4.380   2.906  13.044 -0.4418  0.5112 -0.0030
12675TIP3   OH259515   2.411   2.804   5.238  0.3695 -0.0356 -0.0487
12675TIP3    H159516   2.318   2.821   5.225  0.6496  0.2583 -1.9185
12675TIP3    H259517   2.422   2.803   5.333 -1.5243 -0.0359  0.2112
12676TIP3   OH259518   3.125   0.659   4.492  0.1100 -0.3801 -0.3436
12676TIP3    H159519   3.199   0.601   4.509  2.1307  1.8654 -0.8621
12676TIP3    H259520   3.131   0.727   4.559 -0.7919  0.4608 -1.0720
12677TIP3   OH259521   1.720   2.222  13.668 -0.2520 -0.0116 -0.1022
12677TIP3    H159522   1.777   2.295  13.644  0.1405 -0.5695 -0.9107
12677TIP3    H259523   1.778   2.145  13.669 -0.4501 -0.1983  1.6739
12678TIP3   OH259524   0.716   0.193  16.374 -0.3051  0.4812  0.3558
12678TIP3    H159525   0.685   0.195  16.464  4.1304  2.1451  2.1280
12678TIP3    H259526   0.675   0.268  16.332 -1.6746  0.2559  1.2310
12679TIP3   OH259527   5.404   5.764  14.270  0.4917 -0.7022  0.0031
12679TIP3    H159528   5.484   5.765  14.218  0.9390  1.1983  0.6382
12679TIP3    H259529   5.390   5.855  14.294 -1.2749 -1.1461  0.8280
12680TIP3   OH259530   0.624   5.801  13.318 -0.5237 -0.0850 -0.4485
12680TIP3    H159531   0.616   5.871  13.253 -2.0177  0.1481 -0.0634
12680TIP3    H259532   0.540   5.803  13.365  0.1013 -0.9678  0.7516
12681TIP3   OH259533   4.676   1.389   2.119 -0.5825  0.1243  0.4757
12681TIP3    H159534   4.671   1.317   2.182  0.3913  1.0696  1.6874
12681TIP3    H259535   4.586   1.403   2.090 -0.5690 -3.0677 -1.5906
12682TIP3   OH259536   6.470   1.265   2.743 -0.3044 -0.7063  0.1535
12682TIP3    H159537   6.560   1.294   2.761  0.0253 -1.5363 -0.1058
12682TIP3    H259538   6.420   1.346   2.736  0.5200 -0.2089 -0.1806
12683TIP3   OH259539   0.760   3.008  17.007 -0.1274  0.0988 -0.3077
12683TIP3    H159540   0.800   2.928  16.971 -1.5479 -0.0959 -1.5084
12683TIP3    H259541   0.667   3.001  16.985 -0.5247  1.4291  0.8039
12684TIP3   OH259542   5.053   3.692  10.932 -0.4000 -0.2765 -0.5971
12684TIP3    H159543   5.063   3.600  10.909  1.3562 -0.0614 -0.7972
12684TIP3    H259544   4.958   3.707  10.928 -0.6486 -1.8244 -1.4878
12685TIP3   OH259545   5.150   6.427   5.264  0.1322  0.0357  0.0227
12685TIP3    H159546   5.149   6.353   5.324 -0.2436 -0.0613 -0.0974
12685TIP3    H259547   5.120   6.501   5.316  3.5709  0.8593  1.0611
12686TIP3   OH259548   1.711   6.417  13.653 -0.3113  0.7126  0.4042
12686TIP3    H159549   1.709   6.335  13.603 -0.8338  1.2884 -0.5407
12686TIP3    H259550   1.761   6.478  13.598 -0.3291  1.1645  0.8853
12687TIP3   OH259551   4.173   2.349   4.830  0.1846  0.2130  0.2656
12687TIP3    H159552   4.142   2.260   4.817 -1.7794  1.1203 -2.2210
12687TIP3    H259553   4.254   2.354   4.779 -0.1622  0.0682 -0.3053
12688TIP3   OH259554   2.669   3.735  10.746 -0.1085 -0.7577 -0.0013
12688TIP3    H159555   2.682   3.828  10.727  0.1240 -1.0922 -1.5511
12688TIP3    H259556   2.577   3.727  10.769  0.4261  0.2914  2.9909
12689TIP3   OH259557   4.020   0.818   1.288 -0.3612  0.0977  0.2836
12689TIP3    H159558   3.946   0.842   1.344 -0.3465 -2.4550  1.5696
12689TIP3    H259559   4.093   0.871   1.320 -1.7071  3.4731 -1.7085
12690TIP3   OH259560   6.474   4.914  11.913 -0.1070 -0.3412 -0.3817
12690TIP3    H159561   6.500   4.990  11.859 -3.1427  0.6966 -0.5816
12690TIP3    H259562   6.550   4.856  11.910  1.1391  1.2171 -2.9543
12691TIP3   OH259563   4.617   5.498  11.574 -0.1994 -0.0355  0.0919
12691TIP3    H159564   4.694   5.448  11.601 -1.2294 -1.5950  0.2549
12691TIP3    H259565   4.544   5.437  11.584 -1.2675  0.8924 -1.5180
12692TIP3   OH259566   2.621   2.913   5.085 -0.0502 -0.4922 -0.1024
12692TIP3    H159567   2.708   2.895   5.119  0.9741 -0.7148 -2.6108
12692TIP3    H259568   2.561   2.879   5.151  1.6890  0.9778  2.3899
12693TIP3   OH259569   1.713   0.817   5.476 -0.3516  0.8276  0.6160
12693TIP3    H159570   1.636   0.772   5.511 -1.2617  0.2335 -1.9169
12693TIP3    H259571   1.691   0.910   5.480 -0.9085  0.7000  0.5496
12694TIP3   OH259572   4.683   5.796  15.225 -0.1600 -0.1544 -0.1722
12694TIP3    H159573   4.706   5.874  15.275 -1.3564 -0.5283  1.0150
12694TIP3    H259574   4.737   5.726  15.264  0.0923 -0.1433 -0.4946
12695TIP3   OH259575   2.019   4.908  15.112 -0.1823  0.4030  0.1889
12695TIP3    H159576   2.101   4.914  15.161  1.0924  0.6643 -1.8411
12695TIP3    H259577   2.005   4.815  15.099  0.1378  0.3758  0.0266
12696TIP3   OH259578   2.005   1.489   2.328  0.2331  0.6351  0.2681
12696TIP3    H159579   1.936   1.425   2.306  1.5533 -0.6761 -0.2594
12696TIP3    H259580   2.029   1.469   2.418 -0.0784  1.0969  0.4549
12697TIP3   OH259581   3.483   2.093   0.288  0.1941 -0.0676  0.5805
12697TIP3    H159582   3.472   2.187   0.300  0.1266 -0.0138  0.1181
12697TIP3    H259583   3.567   2.073   0.329  0.4264  0.2751  0.2846
12698TIP3   OH259584   1.370   4.820  13.984  0.0985 -0.5682 -0.0198
12698TIP3    H159585   1.330   4.750  14.036 -1.4583  1.3018  1.4426
12698TIP3    H259586   1.454   4.836  14.027  0.2054 -1.1185 -0.0120
12699TIP3   OH259587   3.399   0.346   3.103  0.4388  0.1621  0.6937
12699TIP3    H159588   3.355   0.337   3.187 -2.2285  0.5699 -0.5636
12699TIP3    H259589   3.329   0.339   3.038  1.8935  3.0312 -1.4008
12700TIP3   OH259590   4.510   4.193   4.995 -0.1665 -0.0301  0.3665
12700TIP3    H159591   4.443   4.260   5.006 -0.0811  0.1227 -0.0477
12700TIP3    H259592   4.476   4.117   5.043 -0.0091  0.4772  1.3030
12701TIP3   OH259593   5.145   0.237  14.486  0.3576 -0.7423 -0.5643
12701TIP3    H159594   5.122   0.177  14.557 -1.3802  1.6585  1.0655
12701TIP3    H259595   5.095   0.205  14.411 -1.6000 -0.6461  0.6273
12702TIP3   OH259596   4.163   2.644  11.745 -0.8321 -0.2289  0.1457
12702TIP3    H159597   4.160   2.739  11.734 -1.3156 -0.3776 -1.1149
12702TIP3    H259598   4.210   2.612  11.668 -0.9045 -1.0432  0.4260
12703TIP3   OH259599   1.394   3.317   2.366  0.0433  0.3142  0.5430
12703TIP3    H159600   1.302   3.317   2.394 -0.5112  1.1800 -1.1391
12703TIP3    H259601   1.390   3.315   2.271  1.8248 -1.0992  0.4580
12704TIP3   OH259602   5.604   2.157  13.065  0.0271  0.1591  0.2414
12704TIP3    H159603   5.543   2.087  13.044  0.2200 -0.4663  1.6203
12704TIP3    H259604   5.681   2.140  13.011  0.4976 -1.3562  1.3063
12705TIP3   OH259605   2.918   5.181  11.730 -0.6919 -0.8905 -0.4676
12705TIP3    H159606   2.934   5.255  11.671 -1.0921  1.1280  1.8022
12705TIP3    H259607   2.868   5.118  11.677  0.3966  0.0221 -2.7241
12706TIP3   OH259608   6.694   5.510  15.328 -0.8100 -0.4255 -0.0813
12706TIP3    H159609   6.683   5.464  15.411 -0.3010  0.7504  0.6561
12706TIP3    H259610   6.605   5.525  15.297 -1.0279 -0.3192  0.5743
12707TIP3   OH259611   6.848   6.450  11.939  0.0422 -0.1018 -0.4694
12707TIP3    H159612   6.847   6.525  11.880 -2.5945  0.2443 -0.1002
12707TIP3    H259613   6.837   6.374  11.882 -0.2460  0.0369 -0.5967
12708TIP3   OH259614   1.100   4.684   5.941  0.3801  0.4301  0.0793
12708TIP3    H159615   1.183   4.731   5.940  0.1675  0.8041 -0.2911
12708TIP3    H259616   1.034   4.751   5.923  0.0246  0.0873  0.0962
12709TIP3   OH259617   1.318   3.940   4.684 -0.1414 -0.8134 -0.1758
12709TIP3    H159618   1.272   3.917   4.603 -1.6341 -1.1009  0.7297
12709TIP3    H259619   1.311   4.035   4.689 -0.2839 -0.8199 -0.2485
12710TIP3   OH259620   3.720   6.527   3.519 -0.1839  1.0493 -0.4688
12710TIP3    H159621   3.686   6.527   3.429 -0.1468  2.6763 -0.5114
12710TIP3    H259622   3.763   6.442   3.528 -3.3554 -0.7331 -0.7126
12711TIP3   OH259623   3.256   3.525  15.621 -0.4325  0.0296  0.3248
12711TIP3    H159624   3.351   3.520  15.619 -0.3925  0.7307 -1.6335
12711TIP3    H259625   3.228   3.443  15.663  0.9951 -0.4470  0.3950
12712TIP3   OH259626   0.265   4.545  16.711 -0.2013 -0.0417 -0.0816
12712TIP3    H159627   0.242   4.463  16.668 -1.1850  0.7719 -1.1616
12712TIP3    H259628   0.279   4.606  16.639  1.8009  0.4410  0.6624
12713TIP3   OH259629   4.537   4.676  11.239  0.2984 -0.9361  0.1864
12713TIP3    H159630   4.507   4.647  11.325  0.8741 -2.9766 -0.2397
12713TIP3    H259631   4.457   4.690  11.189 -0.0239 -0.3793  0.8354
12714TIP3   OH259632   4.715   4.746  15.888  0.0339  0.9447  0.5065
12714TIP3    H159633   4.683   4.773  15.802 -2.0191 -1.4553  0.4092
12714TIP3    H259634   4.641   4.757  15.947  0.3548 -0.5920  1.2466
12715TIP3   OH259635   6.216   3.953  16.087 -0.7237 -0.1043 -0.0109
12715TIP3    H159636   6.227   3.991  16.175 -1.3662 -0.8547  0.4059
12715TIP3    H259637   6.196   4.028  16.031  2.8515  0.8745 -0.1871
12716TIP3   OH259638   4.307   6.091  15.706 -0.2178  0.6744  0.1649
12716TIP3    H159639   4.258   6.156  15.656  1.4224  2.3623  0.5982
12716TIP3    H259640   4.297   6.118  15.797  0.7216  0.5270  0.3283
12717TIP3   OH259641   4.661   3.321   5.212 -0.2438  0.0683  0.2828
12717TIP3    H159642   4.578   3.363   5.190 -0.9500  0.2473  2.9186
12717TIP3    H259643   4.720   3.394   5.233 -0.0467 -0.1208  0.3908
12718TIP3   OH259644   1.017   0.426   3.034 -0.1762  0.0245 -0.6218
12718TIP3    H159645   0.944   0.424   3.097 -0.8766 -1.9858 -1.4193
12718TIP3    H259646   1.078   0.360   3.066  0.2647  0.1638 -1.1541
12719TIP3   OH259647   4.906   4.527  15.834  0.7518 -0.1047 -0.3326
12719TIP3    H159648   4.826   4.485  15.805  0.0860  2.4358 -2.6442
12719TIP3    H259649   4.876   4.607  15.878  1.9891  0.1585  0.0707
12720TIP3   OH259650   6.434   4.570  15.475 -0.0982 -0.4606 -0.0243
12720TIP3    H159651   6.526   4.544  15.479 -0.2690 -1.0646  0.0432
12720TIP3    H259652   6.437   4.663  15.452  0.5601 -0.1179  1.3251
12721TIP3   OH259653   1.412   3.382   4.868 -0.0829 -0.1554  0.1699
12721TIP3    H159654   1.361   3.400   4.947 -3.0487 -0.4910 -1.5469
12721TIP3    H259655   1.502   3.405   4.892 -0.9788  0.4560  3.3707
12722TIP3   OH259656   5.312   0.661  12.637  0.1293  0.0513 -0.1005
12722TIP3    H159657   5.282   0.590  12.693 -1.4198  0.5053 -0.3034
12722TIP3    H259658   5.314   0.738  12.694 -1.2123  0.4631 -0.5628
12723TIP3   OH259659   0.439   1.413   5.077  0.6830  0.1479  0.3114
12723TIP3    H159660   0.464   1.355   5.149  0.4961  1.7552  1.7481
12723TIP3    H259661   0.478   1.498   5.099  1.6698  0.4138 -2.1500
12724TIP3   OH259662   1.825   6.746  13.855 -0.4536  0.2250  0.0723
12724TIP3    H159663   1.745   6.768  13.808 -1.5129 -0.9799  1.2071
12724TIP3    H259664   1.799   6.746  13.948  0.8858 -0.0484  0.4692
12725TIP3   OH259665   2.819   4.201   3.637 -0.8256  0.0616  0.1301
12725TIP3    H159666   2.758   4.128   3.639  0.5036 -1.2421 -2.1460
12725TIP3    H259667   2.807   4.240   3.551  0.0524  1.1216  0.4620
12726TIP3   OH259668   4.951   6.283  11.382 -0.1498 -0.2857  0.7441
12726TIP3    H159669   4.988   6.261  11.297  0.5505 -2.0034  1.4352
12726TIP3    H259670   4.864   6.243  11.382  0.4871 -1.7608  1.3950
12727TIP3   OH259671   0.147   3.521  17.061 -0.2605 -0.4120 -0.0633
12727TIP3    H159672   0.226   3.543  17.011 -0.1526 -0.1831  0.2068
12727TIP3    H259673   0.151   3.577  17.138 -0.5599 -0.5813  0.0762
12728TIP3   OH259674   4.300   0.703  13.820  0.0808  0.2119 -0.4768
12728TIP3    H159675   4.246   0.771  13.859  0.4625 -1.8761  4.6231
12728TIP3    H259676   4.384   0.710  13.867  1.6014 -1.2295 -2.7705
12729TIP3   OH259677   4.868   3.386   4.763 -0.2212  0.2715  0.0585
12729TIP3    H159678   4.884   3.371   4.670 -2.1464 -1.2114 -0.0782
12729TIP3    H259679   4.773   3.390   4.771 -0.2529 -2.1621  2.2831
12730TIP3   OH259680   6.640   4.598   4.796 -0.0813 -0.4408 -0.1971
12730TIP3    H159681   6.673   4.509   4.807  0.2808 -0.2040  0.7480
12730TIP3    H259682   6.715   4.654   4.818 -0.3716  0.0988 -0.5541
12731TIP3   OH259683   5.240   4.035  14.392 -0.0697 -0.0662 -0.4307
12731TIP3    H159684   5.306   4.103  14.377  1.4831 -1.5822 -0.6939
12731TIP3    H259685   5.197   4.023  14.308 -0.6876  0.8883 -0.2702
12732TIP3   OH259686   2.312   2.419  14.642 -0.4597 -0.0249  0.6356
12732TIP3    H159687   2.314   2.371  14.559  3.0450 -0.1778  0.6579
12732TIP3    H259688   2.333   2.354  14.708 -1.1213  0.5182  1.3946
12733TIP3   OH259689   0.484   0.735  16.526  0.1508 -0.7012 -0.2842
12733TIP3    H159690   0.407   0.742  16.469  0.2183 -0.7805 -0.3873
12733TIP3    H259691   0.467   0.658  16.580 -0.4075  0.0053  0.5671
12734TIP3   OH259692   6.065   3.582   5.133 -0.1205  0.0286 -0.3354
12734TIP3    H159693   6.148   3.629   5.134 -1.1174  1.8725  1.2369
12734TIP3    H259694   6.087   3.492   5.159  1.4011  0.4306 -0.1930
12735TIP3   OH259695   0.202   5.500   2.671 -0.3001 -0.2065  0.1497
12735TIP3    H159696   0.124   5.471   2.624 -1.6742  0.1498  2.0800
12735TIP3    H259697   0.239   5.420   2.707  0.5485 -0.4354 -1.1516
12736TIP3   OH259698   2.794   6.110   3.496 -0.1807 -0.4999 -0.0183
12736TIP3    H159699   2.818   6.019   3.511  0.1304 -0.3800  0.2125
12736TIP3    H259700   2.759   6.111   3.407  0.7394 -0.6691 -0.3924
12737TIP3   OH259701   1.881   6.257   0.131  0.3206  0.4782  0.3676
12737TIP3    H159702   1.894   6.202   0.054  1.2377  0.8008  0.2733
12737TIP3    H259703   1.834   6.334   0.098  1.1761  0.8606  0.0129
12738TIP3   OH259704   1.940   0.204  15.590  0.6403  0.0268 -0.3913
12738TIP3    H159705   1.911   0.233  15.676 -0.4186  0.7565 -0.9599
12738TIP3    H259706   1.938   0.283  15.536  0.7709 -0.5112 -1.2153
12739TIP3   OH259707   0.749   4.768  16.073  0.2337 -0.2593 -0.0930
12739TIP3    H159708   0.701   4.690  16.045 -0.9093  0.1534  0.6162
12739TIP3    H259709   0.783   4.746  16.160  0.1565 -0.0751 -0.0152
12740TIP3   OH259710   1.676   0.594  12.336 -0.3720  0.1916  0.2458
12740TIP3    H159711   1.727   0.518  12.365  0.7505  0.2300 -1.4564
12740TIP3    H259712   1.659   0.643  12.416  3.8497  1.1158  0.8290
12741TIP3   OH259713   6.046   4.553   2.383 -0.5936 -0.3173  0.4277
12741TIP3    H159714   6.112   4.623   2.386 -1.3392  0.4088  0.0058
12741TIP3    H259715   6.082   4.490   2.320  0.4633 -0.7264  1.3979
12742TIP3   OH259716   6.312   5.547   2.062 -0.0783  0.6285 -0.4439
12742TIP3    H159717   6.397   5.507   2.045 -0.0606 -0.0108  0.9809
12742TIP3    H259718   6.329   5.610   2.133 -0.9536 -0.2618  0.5952
12743TIP3   OH259719   6.664   1.569  13.586 -0.0735 -0.2508  0.6039
12743TIP3    H159720   6.591   1.629  13.604 -0.4606 -0.1976 -1.0011
12743TIP3    H259721   6.714   1.613  13.517 -0.5412 -1.8950 -0.8361
12744TIP3   OH259722   5.974   6.214  11.798  0.3864  0.6423 -0.0899
12744TIP3    H159723   5.965   6.288  11.737 -1.4526  2.4973  2.2209
12744TIP3    H259724   6.026   6.249  11.871  0.2753 -0.6528  0.6443
12745TIP3   OH259725   2.524   2.537   0.544 -0.0250  0.0733  0.0661
12745TIP3    H159726   2.504   2.470   0.479 -1.3713 -0.0496  0.5837
12745TIP3    H259727   2.509   2.495   0.628  1.1705  0.3985  0.4616
12746TIP3   OH259728   0.153   3.221   6.448 -0.0121 -0.0798  0.4916
12746TIP3    H159729   0.070   3.182   6.477  0.1049 -0.1285  0.7615
12746TIP3    H259730   0.199   3.149   6.405 -0.1157 -0.0489  0.3271
12747TIP3   OH259731   1.828   2.087  14.440 -0.2787 -0.6885 -0.5108
12747TIP3    H159732   1.757   2.090  14.375  0.1842 -2.2256 -1.1410
12747TIP3    H259733   1.851   2.178  14.456 -2.6789 -0.0997  0.0380
12748TIP3   OH259734   1.661   0.100  10.077 -0.6767 -0.1583  0.0568
12748TIP3    H159735   1.751   0.093  10.111 -1.0447  0.2413  1.1610
12748TIP3    H259736   1.611   0.136  10.150 -1.5774  0.4284 -0.8295
12749TIP3   OH259737   2.933   0.648  16.317 -0.5314 -0.5721 -0.4990
12749TIP3    H159738   2.934   0.647  16.221 -1.7536  0.3292 -0.5396
12749TIP3    H259739   2.911   0.559  16.342  1.4431 -1.2621 -0.9862
12750TIP3   OH259740   0.500   5.397   0.185 -0.0640 -0.5043  0.0032
12750TIP3    H159741   0.495   5.442   0.100 -1.1025 -0.5580  0.0144
12750TIP3    H259742   0.432   5.329   0.179 -0.2848 -0.3745  0.9490
12751TIP3   OH259743   1.311   4.519  15.428 -0.1026  0.5615  0.3976
12751TIP3    H159744   1.363   4.498  15.350  0.0127  1.3512  0.2592
12751TIP3    H259745   1.326   4.612  15.443 -0.4127  0.4934  1.1561
12752TIP3   OH259746   3.600   1.858   4.093 -0.4963  0.0527  0.3267
12752TIP3    H159747   3.635   1.795   4.155 -1.7170 -2.3328 -1.2460
12752TIP3    H259748   3.539   1.807   4.039 -1.9835  2.7175 -0.7021
12753TIP3   OH259749   3.198   1.396  15.615  0.3038  0.2325  0.8606
12753TIP3    H159750   3.134   1.370  15.681 -0.2113  1.4944  0.8804
12753TIP3    H259751   3.149   1.449  15.553  1.3164  1.2447  0.8801
12754TIP3   OH259752   3.963   1.462   0.057 -0.1140  0.1705 -0.0287
12754TIP3    H159753   3.928   1.512  -0.018 -1.0723  0.3642  0.5292
12754TIP3    H259754   3.969   1.372   0.025  2.0105  0.6609 -1.1778
12755TIP3   OH259755   6.069   6.703  15.070 -0.1097  0.2755  0.0066
12755TIP3    H159756   6.153   6.661  15.087  2.2140  3.4216 -2.2958
12755TIP3    H259757   6.018   6.638  15.022  1.0816 -1.6071  1.1755
12756TIP3   OH259758   3.815   0.936   0.708  0.0196  0.3159 -0.4309
12756TIP3    H159759   3.759   0.963   0.782  1.6384 -0.2168  1.0508
12756TIP3    H259760   3.904   0.956   0.737  0.9783 -2.6702 -0.9681
12757TIP3   OH259761   0.015   3.687  14.534 -0.8131  0.7122 -0.1407
12757TIP3    H159762  -0.067   3.689  14.583 -0.2340  1.6929  0.8221
12757TIP3    H259763   0.053   3.602  14.553 -2.6447 -0.7233 -2.4128
12758TIP3   OH259764   6.841   4.825  16.163 -0.2250 -0.0935  0.2596
12758TIP3    H159765   6.801   4.791  16.243 -0.1090  2.2076  1.3697
12758TIP3    H259766   6.767   4.846  16.106 -0.3803 -0.2791  0.3920
12759TIP3   OH259767   5.736   3.291   0.582 -0.1999 -0.4820  0.3430
12759TIP3    H159768   5.775   3.351   0.517 -2.5208 -1.4706 -2.1468
12759TIP3    H259769   5.809   3.236   0.610  1.1888  0.9731 -0.2655
12760TIP3   OH259770   1.325   1.644  16.074  0.5355 -0.5996  0.4662
12760TIP3    H159771   1.290   1.594  16.147 -0.2225  0.4163  0.8198
12760TIP3    H259772   1.251   1.698  16.044  0.5715 -1.6099 -1.6013
12761TIP3   OH259773   3.977   6.791   2.482 -0.2606 -0.2571 -0.2898
12761TIP3    H159774   4.065   6.790   2.444  0.3402  2.0808  0.8760
12761TIP3    H259775   3.929   6.854   2.428 -0.4084  0.4696  0.6639
12762TIP3   OH259776   6.647   3.993  14.000  0.6226 -0.2209  0.7715
12762TIP3    H159777   6.692   4.009  13.916 -1.1875  1.8758  0.0979
12762TIP3    H259778   6.718   3.975  14.061  2.0892 -0.8026 -0.9830
12763TIP3   OH259779   2.332   1.288  14.999 -0.1149  0.1079  0.2471
12763TIP3    H159780   2.361   1.375  15.027  2.1154 -0.1953 -0.9302
12763TIP3    H259781   2.276   1.304  14.924  2.7543  0.5364 -1.9846
12764TIP3   OH259782   6.489   3.944   0.085  0.4779  0.4193 -0.3802
12764TIP3    H159783   6.476   3.936   0.179 -1.1232 -0.8905 -0.6548
12764TIP3    H259784   6.550   3.874   0.062 -0.9500 -0.8406 -0.5715
12765TIP3   OH259785   2.178   1.957  11.558 -0.2411  0.1271 -0.5396
12765TIP3    H159786   2.124   2.008  11.618 -1.8643  0.3082 -2.0504
12765TIP3    H259787   2.128   1.876  11.545  1.2593 -0.9661  0.1746
12766TIP3   OH259788   5.994   1.531   3.389 -0.0172  0.1544 -0.2633
12766TIP3    H159789   6.066   1.587   3.420  0.2860 -0.4386  0.1054
12766TIP3    H259790   6.027   1.442   3.398 -1.6813 -0.2924  2.2336
12767TIP3   OH259791   1.924   3.406   6.316 -0.0086 -0.4355 -0.3826
12767TIP3    H159792   1.988   3.335   6.320  0.8396  0.2212 -1.7791
12767TIP3    H259793   1.843   3.363   6.289  0.1202 -1.0767  0.2108
12768TIP3   OH259794   0.098   0.411   3.347 -0.4736 -0.7484  0.2499
12768TIP3    H159795   0.120   0.497   3.382  1.9378 -0.7275 -1.0930
12768TIP3    H259796   0.049   0.429   3.266 -0.4316 -0.6397  0.2494
12769TIP3   OH259797   3.274   3.363  10.884 -0.5697  0.2417  0.6374
12769TIP3    H159798   3.191   3.332  10.849 -0.9841  0.5959  1.2865
12769TIP3    H259799   3.269   3.459  10.876 -0.8067  0.3554  1.9297
12770TIP3   OH259800   1.024   4.347   0.637  0.3705  0.2326  0.5506
12770TIP3    H159801   1.110   4.372   0.603  0.7047 -0.6217  0.7184
12770TIP3    H259802   0.965   4.415   0.608  0.9085  0.2516 -0.5311
12771TIP3   OH259803   3.533   2.806   5.108 -0.1253 -0.2203 -0.3781
12771TIP3    H159804   3.586   2.836   5.182 -0.8802  1.1666 -0.3670
12771TIP3    H259805   3.550   2.712   5.104  0.5958 -0.1903  1.0171
12772TIP3   OH259806   4.256   2.331   6.400  0.0926  0.1635  0.0607
12772TIP3    H159807   4.241   2.376   6.483  1.3417 -0.1577  0.4814
12772TIP3    H259808   4.351   2.340   6.385  0.0170 -0.5367 -0.8823
12773TIP3   OH259809   5.768   5.589   0.134 -0.1381  0.4310  0.5364
12773TIP3    H159810   5.814   5.637   0.066 -0.4034 -0.8306 -0.5839
12773TIP3    H259811   5.835   5.570   0.200  0.6996 -0.3329 -0.4939
12774TIP3   OH259812   1.279   6.844   0.028  0.1768  0.3621 -0.3489
12774TIP3    H159813   1.220   6.804   0.092 -0.6516  1.5316 -0.3385
12774TIP3    H259814   1.257   6.802  -0.055  0.1337 -0.0218 -0.1435
12775TIP3   OH259815   4.398   3.357  16.212  0.5472 -0.2351 -0.1128
12775TIP3    H159816   4.422   3.281  16.266  0.4002 -2.3493 -2.8180
12775TIP3    H259817   4.336   3.406  16.266  0.8268 -1.8628  1.8282
12776TIP3   OH259818   1.586   4.048   3.995 -0.6833 -0.0044 -0.0991
12776TIP3    H159819   1.515   3.986   3.982 -1.7807  0.8453  1.4544
12776TIP3    H259820   1.554   4.130   3.960 -1.2438  0.8068  2.1145
12777TIP3   OH259821   3.521   0.611   0.435  0.0978 -0.3270 -0.4008
12777TIP3    H159822   3.444   0.559   0.413 -3.1354  3.2840  1.2733
12777TIP3    H259823   3.533   0.598   0.529  1.7244 -0.9213 -0.6538
12778TIP3   OH259824   0.171   4.571  11.769  0.9931  0.1067 -0.2862
12778TIP3    H159825   0.155   4.581  11.863  0.1289  1.4571 -0.5546
12778TIP3    H259826   0.234   4.499  11.764  0.5427 -0.4568  1.2772
12779TIP3   OH259827   2.494   4.279  15.013  0.5155 -0.3858  0.3176
12779TIP3    H159828   2.485   4.278  15.108  0.1102  0.5889  0.2990
12779TIP3    H259829   2.499   4.186  14.988  0.3637 -0.6549  1.2569
12780TIP3   OH259830   2.383   0.560  15.620  0.3314  0.0042 -0.2107
12780TIP3    H159831   2.366   0.611  15.700  3.1082 -1.1285  1.2603
12780TIP3    H259832   2.456   0.605  15.578  0.9806 -1.1383 -0.3606
12781TIP3   OH259833   5.170   3.386  14.149  0.7818  0.8650 -0.2364
12781TIP3    H159834   5.099   3.323  14.139  0.3148  0.8143  2.5712
12781TIP3    H259835   5.126   3.470  14.161  1.1756  0.9521  0.7507
12782TIP3   OH259836   1.281   2.177  13.413 -0.6555  0.4323  0.0048
12782TIP3    H159837   1.200   2.200  13.457 -1.7781 -0.4374 -1.4974
12782TIP3    H259838   1.321   2.110  13.468 -3.3631 -2.6334 -1.4777
12783TIP3   OH259839   1.806   2.336  11.045 -0.4927  0.4761  0.1854
12783TIP3    H159840   1.810   2.325  10.950 -0.2831 -1.4636  0.3851
12783TIP3    H259841   1.891   2.307  11.076 -0.0880  2.2794  0.9218
12784TIP3   OH259842   4.401   0.582   6.295 -0.0646 -0.1640  0.1152
12784TIP3    H159843   4.448   0.602   6.376  2.3372 -2.5631 -0.5252
12784TIP3    H259844   4.312   0.564   6.323  0.2755  0.8315  1.9764
12785TIP3   OH259845   6.117   3.989   5.231 -0.2779  0.6393 -0.5371
12785TIP3    H159846   6.123   3.901   5.269  1.5692  0.4045 -1.2892
12785TIP3    H259847   6.195   3.997   5.176 -0.3952  2.7616 -0.4715
12786TIP3   OH259848   4.876   4.188   2.014  0.1657  0.0544  0.3532
12786TIP3    H159849   4.868   4.143   1.929 -3.0026  0.4316  0.3242
12786TIP3    H259850   4.916   4.272   1.993 -1.4852  0.5559 -1.0084
12787TIP3   OH259851   3.464   0.586  13.939  0.2852 -0.1350 -0.2980
12787TIP3    H159852   3.537   0.645  13.921  1.5394 -1.6390 -0.3084
12787TIP3    H259853   3.453   0.590  14.034 -1.8368  2.5739 -0.5420
12788TIP3   OH259854   5.462   0.006   4.879  0.2380  0.3462 -0.4139
12788TIP3    H159855   5.543   0.005   4.929  0.7020 -0.0545 -1.1499
12788TIP3    H259856   5.490  -0.011   4.789 -0.9623 -3.1976 -0.2511
12789TIP3   OH259857   0.652   5.034   1.355 -0.0877  0.1394  0.0907
12789TIP3    H159858   0.594   5.026   1.430  2.5738  1.1612  2.4243
12789TIP3    H259859   0.626   5.117   1.314  1.0525  1.8282  2.5049
12790TIP3   OH259860   5.292   1.216  12.137  0.3692 -0.4047 -0.5577
12790TIP3    H159861   5.294   1.283  12.205  0.5731  0.4497 -1.3796
12790TIP3    H259862   5.365   1.238  12.079 -0.0486 -0.8583 -1.2797
12791TIP3   OH259863   0.746   5.838   4.999 -0.5721  0.0300  0.3129
12791TIP3    H159864   0.750   5.746   5.025 -1.1148 -0.3762 -0.9697
12791TIP3    H259865   0.680   5.876   5.058  0.3886 -0.1350  1.5370
12792TIP3   OH259866   4.510   4.762  16.074 -0.4743  0.4109 -0.2451
12792TIP3    H159867   4.508   4.672  16.106 -2.4998  0.1853 -0.8270
12792TIP3    H259868   4.419   4.791  16.078  0.1093  2.4236 -0.1656
12793TIP3   OH259869   6.373   0.369   4.477  0.0723 -0.2682 -0.4669
12793TIP3    H159870   6.370   0.390   4.571 -1.0847 -2.1509 -0.0168
12793TIP3    H259871   6.433   0.295   4.471 -0.4458 -0.6460 -1.0982
12794TIP3   OH259872   3.622   3.253   3.345  0.2045  0.2527  0.1332
12794TIP3    H159873   3.554   3.194   3.376 -0.2761  0.2305 -0.9149
12794TIP3    H259874   3.620   3.327   3.407 -1.9113  1.0362 -0.7812
12795TIP3   OH259875   1.233   3.418  16.707 -0.3572  0.2983 -0.6708
12795TIP3    H159876   1.169   3.385  16.644 -0.6874  1.4406 -0.9580
12795TIP3    H259877   1.203   3.385  16.791 -0.4364 -0.4709 -0.9907
12796TIP3   OH259878   2.826   4.007   4.778 -0.4119 -0.1755 -0.0106
12796TIP3    H159879   2.819   3.930   4.834 -1.8704  0.7148  1.1237
12796TIP3    H259880   2.869   3.976   4.699  1.0517 -1.6424  1.2992
12797TIP3   OH259881   3.002   2.792  15.903  0.3454  0.0565 -0.5246
12797TIP3    H159882   3.074   2.814  15.962  1.3957 -0.9155 -1.4000
12797TIP3    H259883   3.038   2.726  15.844 -1.6595 -1.4585 -0.1474
12798TIP3   OH259884   4.382   5.580   6.291 -0.3604 -1.2185 -0.2455
12798TIP3    H159885   4.427   5.645   6.237 -1.5413 -0.6195 -0.5268
12798TIP3    H259886   4.417   5.496   6.260 -0.8021 -0.8683 -1.7521
12799TIP3   OH259887   3.258   3.263  15.695  0.1960  0.3871  0.5964
12799TIP3    H159888   3.203   3.298  15.766  1.1787  1.1872  0.9868
12799TIP3    H259889   3.247   3.168  15.701 -1.4742  0.5288  0.3809
12800TIP3   OH259890   2.501   3.938   3.419 -0.3933  0.3813 -0.0948
12800TIP3    H159891   2.533   3.937   3.509  0.7529  0.7742 -0.4868
12800TIP3    H259892   2.579   3.946   3.365 -1.0733  0.2779 -1.1302
12801TIP3   OH259893   0.974   5.322   3.540 -0.1505  0.4829 -0.0938
12801TIP3    H159894   0.932   5.301   3.456 -0.4979 -1.2449  0.4774
12801TIP3    H259895   1.017   5.241   3.566  2.4364  1.7908  0.0268
12802TIP3   OH259896   5.626   4.875   3.838  0.2599 -0.4766 -0.2284
12802TIP3    H159897   5.554   4.820   3.870  0.3892 -0.2191  0.5149
12802TIP3    H259898   5.632   4.947   3.901 -0.6382  1.0264 -1.7560
12803TIP3   OH259899   4.864   3.061  16.611 -0.1169  0.0917  0.0049
12803TIP3    H159900   4.850   3.137  16.555  0.0321 -0.3577 -0.6446
12803TIP3    H259901   4.824   3.085  16.695 -0.8288  0.5498 -0.4599
12804TIP3   OH259902   0.295   4.358  13.070  0.1801  0.1712 -0.1477
12804TIP3    H159903   0.202   4.342  13.083  0.2828  0.1517  0.6319
12804TIP3    H259904   0.333   4.272  13.051 -0.1013  0.3184 -1.4325
12805TIP3   OH259905   1.796   2.289   4.829  0.0392  0.3734 -0.4621
12805TIP3    H159906   1.745   2.366   4.804  0.3679  1.0018  0.7320
12805TIP3    H259907   1.881   2.301   4.788  0.4302  1.1810  0.5329
12806TIP3   OH259908   5.627   3.410   6.123 -0.0863  0.1240 -0.5207
12806TIP3    H159909   5.626   3.498   6.160 -0.2767 -0.3895  0.7188
12806TIP3    H259910   5.568   3.415   6.048  0.2758  1.1686 -0.7537
12807TIP3   OH259911   0.747   4.123   0.295  0.4026 -0.0028  0.4042
12807TIP3    H159912   0.825   4.139   0.242 -0.5671 -1.1773 -1.4705
12807TIP3    H259913   0.688   4.077   0.237 -1.1375 -0.4529  2.2463
12808TIP3   OH259914   1.626   2.234   2.579  0.5546 -0.3720  0.5915
12808TIP3    H159915   1.598   2.185   2.502 -0.1703  1.7517 -0.5440
12808TIP3    H259916   1.714   2.200   2.597  0.4235 -1.4757 -0.6466
12809TIP3   OH259917   5.533   3.577  16.306  0.0641  0.2418  0.0817
12809TIP3    H159918   5.521   3.633  16.229  1.1313  1.5594  0.8365
12809TIP3    H259919   5.616   3.606  16.344  0.7319 -1.9604  0.4327
12810TIP3   OH259920   0.767   5.320  16.427  0.1205  0.7617 -0.3701
12810TIP3    H159921   0.715   5.374  16.366  1.9226  2.9092 -0.1182
12810TIP3    H259922   0.827   5.271  16.370 -0.4065  0.2507 -0.4962
12811TIP3   OH259923   1.679   1.858   1.463  0.4995 -0.5002  0.1843
12811TIP3    H159924   1.618   1.828   1.395  0.2098 -0.1139  0.2713
12811TIP3    H259925   1.763   1.865   1.418  0.2996 -0.2081 -0.1455
12812TIP3   OH259926   3.651   4.105   3.227 -0.0824 -0.5899 -0.2658
12812TIP3    H159927   3.683   4.056   3.303  1.3264 -0.7391 -0.9217
12812TIP3    H259928   3.587   4.048   3.186 -1.5147 -0.1635  1.2644
12813TIP3   OH259929   2.484   4.869  10.407 -0.4068  0.8147  0.4821
12813TIP3    H159930   2.447   4.869  10.319 -0.9940 -0.1452  0.7136
12813TIP3    H259931   2.543   4.945  10.408 -0.8805  1.2185 -0.5194
12814TIP3   OH259932   3.336   5.064  13.661  0.8679 -0.6777 -0.1439
12814TIP3    H159933   3.425   5.093  13.640  0.5678  0.4695  0.0618
12814TIP3    H259934   3.310   5.120  13.735 -0.2225 -0.6125 -0.5656
12815TIP3   OH259935   0.735   0.498  11.704  0.0589 -0.1389 -0.4116
12815TIP3    H159936   0.682   0.539  11.772  0.3563 -0.7037  0.1625
12815TIP3    H259937   0.803   0.563  11.684 -1.1428  0.8363 -1.5596
12816TIP3   OH259938   3.843   5.899  15.675  0.7419  0.0927  0.3230
12816TIP3    H159939   3.882   5.977  15.636  1.8717 -0.3641  0.4909
12816TIP3    H259940   3.837   5.919  15.768 -0.4318  0.5560  0.1705
12817TIP3   OH259941   3.911   5.217   1.059 -0.2074  0.2837  0.6188
12817TIP3    H159942   3.986   5.161   1.037  0.3312  1.7463 -1.5570
12817TIP3    H259943   3.834   5.162   1.045  0.3927 -0.7905  1.4371
12818TIP3   OH259944   0.572   1.153  14.673  0.0779  0.3363  0.1839
12818TIP3    H159945   0.490   1.150  14.623 -0.5143 -1.1024  1.1675
12818TIP3    H259946   0.560   1.226  14.733  0.0116  0.8670 -0.4561
12819TIP3   OH259947   1.911   1.844   2.573 -0.3935 -0.1115  0.6523
12819TIP3    H159948   1.996   1.818   2.608 -0.0628  1.3998  1.0412
12819TIP3    H259949   1.916   1.939   2.565 -1.5192 -0.1343 -0.7507
12820TIP3   OH259950   6.147   0.820   5.608 -0.0851  0.3370 -0.3344
12820TIP3    H159951   6.101   0.747   5.650  0.4518  0.3853  0.3584
12820TIP3    H259952   6.199   0.778   5.539 -1.6544  0.3614 -1.5763
12821TIP3   OH259953   1.934   5.138   4.798  0.3002 -0.0402 -0.1400
12821TIP3    H159954   2.002   5.182   4.849  0.2104  0.8941 -0.7999
12821TIP3    H259955   1.978   5.110   4.717  0.1299 -0.2930 -0.1467
12822TIP3   OH259956   3.023   0.440  14.409 -0.0481  0.0311  0.1538
12822TIP3    H159957   3.075   0.520  14.407 -0.1847  0.1062 -0.6382
12822TIP3    H259958   3.065   0.382  14.345 -1.7472  0.6186 -1.5856
12823TIP3   OH259959   1.539   1.755  13.430 -0.0989  0.2578  0.4495
12823TIP3    H159960   1.575   1.843  13.423 -0.2019  0.1393 -2.4137
12823TIP3    H259961   1.613   1.701  13.457  0.1461  1.0546  1.4587
12824TIP3   OH259962   1.074   0.195  16.299  0.4337 -0.4283 -0.0265
12824TIP3    H159963   1.039   0.274  16.256  1.0804  0.2260  0.6163
12824TIP3    H259964   0.996   0.147  16.327  0.0098  0.9866  1.3617
12825TIP3   OH259965   0.012   0.210   2.265 -0.2771 -0.2569 -0.6076
12825TIP3    H159966  -0.045   0.286   2.251  0.8204  0.4367 -1.5534
12825TIP3    H259967  -0.028   0.140   2.215 -1.7464 -0.5691  0.9202
12826TIP3   OH259968   4.151   1.442  16.585 -0.0360  0.4231  0.3690
12826TIP3    H159969   4.205   1.445  16.506  0.0264 -0.3955  0.3719
12826TIP3    H259970   4.178   1.362  16.630 -0.6083  0.4805  0.8287
12827TIP3   OH259971   0.163   0.969  12.929 -0.1792  0.2071 -0.1562
12827TIP3    H159972   0.083   0.993  12.882 -1.4297 -0.4229  1.5574
12827TIP3    H259973   0.184   0.882  12.897 -1.5316 -0.5915  1.0292
12828TIP3   OH259974   2.080   4.192   5.329 -0.1900 -0.2793 -0.5982
12828TIP3    H159975   2.090   4.154   5.242 -0.6117 -1.1174 -0.2836
12828TIP3    H259976   2.116   4.126   5.389 -0.6406 -0.0602 -0.0746
12829TIP3   OH259977   4.735   4.088  10.680  0.7409  0.1362  0.5204
12829TIP3    H159978   4.763   4.179  10.667 -1.8957  1.0224  0.5749
12829TIP3    H259979   4.810   4.036  10.649  2.5475  2.2763  0.9887
12830TIP3   OH259980   1.636   3.200  10.889  0.5293 -0.2888 -0.5299
12830TIP3    H159981   1.595   3.281  10.860 -3.5937 -1.4435  1.2450
12830TIP3    H259982   1.647   3.210  10.983  3.0318 -0.6701 -0.7317
12831TIP3   OH259983   4.097   0.364  12.559 -0.1626  0.3975  0.3993
12831TIP3    H159984   4.079   0.444  12.508  0.8836 -0.1468 -0.8739
12831TIP3    H259985   4.061   0.293  12.505  0.5237 -0.1470  0.6433
12832TIP3   OH259986   5.145   1.075  15.693  0.0070  0.2602 -0.1086
12832TIP3    H159987   5.080   1.100  15.759 -2.0710 -2.8929 -0.7130
12832TIP3    H259988   5.182   1.158  15.664  0.1560  1.8990  4.0254
12833TIP3   OH259989   3.706   6.351  13.494  0.4239  0.2320 -0.2621
12833TIP3    H159990   3.728   6.298  13.418 -1.1973  0.4150 -0.8890
12833TIP3    H259991   3.653   6.294  13.549 -1.5227  1.2064 -1.0427
12834TIP3   OH259992   4.053   2.212   3.583 -0.6094 -0.2507  0.6250
12834TIP3    H159993   3.970   2.216   3.631 -1.0739 -0.8498 -0.1129
12834TIP3    H259994   4.056   2.124   3.547  0.0095 -0.0025  0.0373
12835TIP3   OH259995   4.826   6.055  12.386  0.0651 -0.8411  0.6557
12835TIP3    H159996   4.812   6.138  12.432  1.0261  0.0079 -0.4998
12835TIP3    H259997   4.767   6.058  12.311 -0.1651 -1.3788  0.8097
12836TIP3   OH259998   0.051   0.152   2.921  0.2508  0.3347 -0.0334
12836TIP3    H159999   0.049   0.189   2.832  0.3371  1.5565  0.4455
12836TIP3    H260000   0.144   0.142   2.941  0.2214 -0.8273 -0.4141
12837TIP3   OH260001   0.605   6.164   0.410  0.5098 -0.0856  0.1951
12837TIP3    H160002   0.683   6.141   0.359  0.2669 -0.3366 -0.0626
12837TIP3    H260003   0.581   6.084   0.456  1.6641  0.5327  1.9784
12838TIP3   OH260004   0.622   2.372  16.714  0.3760 -0.8120  0.2446
12838TIP3    H160005   0.688   2.340  16.653  0.0009 -0.9354 -0.1018
12838TIP3    H260006   0.561   2.298  16.725 -0.8543 -0.0296 -1.0655
12839TIP3   OH260007   5.322   2.902   3.682 -0.2096  0.0928 -0.3814
12839TIP3    H160008   5.344   2.869   3.769  0.7214 -1.6714 -1.2286
12839TIP3    H260009   5.397   2.955   3.656 -0.4180  0.4889 -0.1818
12840TIP3   OH260010   2.386   6.382   2.765 -0.3860  0.3901 -0.4278
12840TIP3    H160011   2.442   6.346   2.833 -2.9723 -0.7308  1.2994
12840TIP3    H260012   2.414   6.340   2.684  0.8129 -0.5717  0.4636
12841TIP3   OH260013   2.782   5.918   2.478 -0.3290  0.2033 -0.6645
12841TIP3    H160014   2.828   5.959   2.551  0.7128 -2.8946  0.6181
12841TIP3    H260015   2.689   5.930   2.498 -0.0727 -0.4371  1.1605
12842TIP3   OH260016   0.375   2.604  10.777 -0.0220  0.3049 -0.6767
12842TIP3    H160017   0.410   2.672  10.718  1.0824  1.3840  1.1134
12842TIP3    H260018   0.338   2.653  10.850  0.2426 -0.9994  0.3653
12843TIP3   OH260019   2.753   0.664  14.515 -0.6227 -1.1678 -0.0368
12843TIP3    H160020   2.728   0.679  14.606  2.0056  0.8768  0.4836
12843TIP3    H260021   2.685   0.707  14.463 -0.8314 -0.1141  1.0660
12844TIP3   OH260022   1.090   1.201  14.730 -1.0788 -0.1500  0.1471
12844TIP3    H160023   1.053   1.204  14.642 -0.3087 -1.2275 -0.2253
12844TIP3    H260024   1.024   1.243  14.785 -0.9084  1.9551 -1.1552
12845TIP3   OH260025   2.348   5.980   0.144  0.1336 -0.0776 -0.3766
12845TIP3    H160026   2.343   6.043   0.217  0.1787  1.9189 -1.9946
12845TIP3    H260027   2.390   5.903   0.182 -0.2583  0.7034  1.8159
12846TIP3   OH260028   6.549   3.872   3.463  0.6077 -0.0620  0.2469
12846TIP3    H160029   6.617   3.936   3.484  1.4694  0.3536 -3.1031
12846TIP3    H260030   6.495   3.916   3.397  1.6005 -2.8112 -2.6831
12847TIP3   OH260031   4.453   2.978  14.184  0.3436 -0.3164  0.6355
12847TIP3    H160032   4.427   2.887  14.173 -0.8470 -0.0932  1.4700
12847TIP3    H260033   4.475   2.986  14.277  0.0111  0.3497  0.6635
12848TIP3   OH260034   2.914   4.712  16.550  0.6030 -0.0123 -0.2441
12848TIP3    H160035   2.917   4.724  16.455  0.6379 -0.9839 -0.3777
12848TIP3    H260036   2.965   4.633  16.566  0.4077  0.0096  0.5666
12849TIP3   OH260037   3.189   6.364   2.069  0.5875  0.0708 -0.1527
12849TIP3    H160038   3.248   6.439   2.078  1.6355 -0.7351 -0.0879
12849TIP3    H260039   3.247   6.290   2.054 -0.4489 -0.6786 -0.5755
12850TIP3   OH260040   3.302   1.483   3.265  0.4443 -0.0902  0.4047
12850TIP3    H160041   3.225   1.427   3.255  0.1378  0.5273 -0.8975
12850TIP3    H260042   3.358   1.436   3.327 -0.5327 -1.0294  0.6041
12851TIP3   OH260043   3.498   2.864  13.741 -0.5057  0.4853 -0.1529
12851TIP3    H160044   3.533   2.937  13.792 -1.9089  1.2385 -0.2019
12851TIP3    H260045   3.549   2.788  13.768  1.6194  1.6087 -0.7550
12852TIP3   OH260046   0.768   3.030   1.382 -0.4109  0.4493  0.6532
12852TIP3    H160047   0.696   3.022   1.319 -0.5000  0.2431  0.7804
12852TIP3    H260048   0.789   2.940   1.406  0.9384  0.3841 -0.5607
12853TIP3   OH260049   5.374   0.052   5.499  0.1332  0.1788 -0.0525
12853TIP3    H160050   5.316   0.074   5.571 -0.8430 -0.6939 -0.5534
12853TIP3    H260051   5.454   0.020   5.541 -0.5168 -0.5669  0.6422
12854TIP3   OH260052   1.359   0.531   3.705 -0.5566  0.0366  0.4967
12854TIP3    H160053   1.289   0.572   3.756 -0.4327  1.0800 -0.1323
12854TIP3    H260054   1.440   0.552   3.752 -0.4888  0.5718  0.1499
12855TIP3   OH260055   5.467   5.508   5.137  0.2415 -0.5873  0.3419
12855TIP3    H160056   5.389   5.452   5.135 -0.1004 -0.1165  0.4893
12855TIP3    H260057   5.540   5.447   5.123 -0.1861 -0.9499 -0.3621
12856TIP3   OH260058   1.038   1.080   2.792  0.3367 -0.1121 -0.3081
12856TIP3    H160059   1.070   1.126   2.870  0.6677 -0.9914  0.0940
12856TIP3    H260060   0.964   1.132   2.762  1.1147  1.0381 -0.2706
12857TIP3   OH260061   5.440   4.729  14.728 -0.3807 -0.0861  0.1861
12857TIP3    H160062   5.456   4.653  14.784  0.9704 -0.5636 -0.7988
12857TIP3    H260063   5.504   4.795  14.757  0.5591 -0.4564 -0.9735
12858TIP3   OH260064   0.401   0.593   3.128  0.3815  0.4384  0.2556
12858TIP3    H160065   0.436   0.675   3.094 -0.1575  0.5047 -0.1570
12858TIP3    H260066   0.385   0.611   3.220 -0.8745  1.2061 -0.0849
12859TIP3   OH260067   5.000   0.982   4.059  0.2232  0.5090 -0.0489
12859TIP3    H160068   4.963   1.052   4.112 -2.4877  0.8944 -2.2157
12859TIP3    H260069   5.091   1.009   4.044 -0.4572  3.0853 -0.0045
12860TIP3   OH260070   2.941   4.954  12.607 -0.4698 -0.3567 -0.1857
12860TIP3    H160071   2.938   4.865  12.572  1.7220 -0.2933 -0.6722
12860TIP3    H260072   3.023   4.958  12.657  1.0238  2.1604 -2.5492
12861TIP3   OH260073   0.142   0.261  12.229  0.6314 -0.2669  0.2096
12861TIP3    H160074   0.072   0.304  12.277  0.8724  0.9105 -0.4698
12861TIP3    H260075   0.100   0.231  12.148  0.9848  0.8335 -0.4005
12862TIP3   OH260076   1.449   2.990  16.042 -0.4389  0.0748  0.4084
12862TIP3    H160077   1.511   2.950  16.102 -0.5400  0.2315  0.6186
12862TIP3    H260078   1.498   3.060  15.999 -0.3236 -0.1340  0.1974
12863TIP3   OH260079   6.399   3.054  11.871  0.1794  0.0725  0.2546
12863TIP3    H160080   6.480   3.020  11.833 -1.0790  0.2859 -2.9778
12863TIP3    H260081   6.425   3.134  11.916  1.4589  2.4365 -4.1156
12864TIP3   OH260082   1.685   5.151   1.513  0.5629  0.2276 -0.6711
12864TIP3    H160083   1.672   5.245   1.528  2.5441  0.8895 -2.4829
12864TIP3    H260084   1.603   5.122   1.473 -0.0272  1.2233 -0.2336
12865TIP3   OH260085   4.014   0.275   4.291  0.1956  0.5245 -0.1625
12865TIP3    H160086   3.955   0.323   4.232  1.2280  1.8327 -0.1552
12865TIP3    H260087   4.096   0.324   4.288  0.2270  0.7636  2.5423
12866TIP3   OH260088   6.664   2.947   0.809 -0.0274  0.1295 -0.9030
12866TIP3    H160089   6.712   2.868   0.834  2.2657  1.4131 -1.0199
12866TIP3    H260090   6.646   2.991   0.892  1.2612  0.8546 -0.9736
12867TIP3   OH260091   5.091   4.022  15.204  0.8775  0.0383  0.1374
12867TIP3    H160092   5.084   4.061  15.116  1.1840  0.3673  0.2536
12867TIP3    H260093   5.049   4.086  15.262  0.8159 -0.1032  0.2471
12868TIP3   OH260094   5.702   3.247   1.610 -0.6328 -0.4446 -0.0335
12868TIP3    H160095   5.797   3.256   1.599 -0.6534  0.8273  0.6024
12868TIP3    H260096   5.686   3.153   1.604  0.4473 -0.5592 -1.7469
12869TIP3   OH260097   4.305   2.723  14.625  0.1316  0.3858  0.2535
12869TIP3    H160098   4.250   2.773  14.564  0.4909  2.0990  1.2469
12869TIP3    H260099   4.251   2.710  14.702  1.0489  2.1156  1.2539
12870TIP3   OH260100   3.729   4.436  14.833 -0.1076 -0.0997 -0.2155
12870TIP3    H160101   3.706   4.367  14.896 -1.0116  0.8607  0.5433
12870TIP3    H260102   3.790   4.394  14.773 -0.6318 -1.5662  0.2276
12871TIP3   OH260103   1.625   4.571  16.635 -0.3214 -0.3572  0.0652
12871TIP3    H160104   1.604   4.639  16.571  1.4982  0.5930  0.4086
12871TIP3    H260105   1.667   4.502  16.583  1.7795  0.7069  0.2360
12872TIP3   OH260106   5.273   2.480   4.735  0.0711 -0.1499  0.3800
12872TIP3    H160107   5.253   2.531   4.813  1.4984 -0.2097  0.8246
12872TIP3    H260108   5.361   2.508   4.710 -0.6693  0.4835 -1.7301
12873TIP3   OH260109   1.878   3.865  11.079  0.3304  0.0112 -0.5330
12873TIP3    H160110   1.827   3.878  11.159  0.4500  0.3273 -0.5084
12873TIP3    H260111   1.815   3.881  11.008  0.1423 -0.5846 -0.5077
12874TIP3   OH260112   1.753   5.251  12.797 -0.3319  0.2490 -0.1621
12874TIP3    H160113   1.810   5.228  12.871 -1.2407 -0.1653  0.4290
12874TIP3    H260114   1.784   5.196  12.725  0.3573  0.4165  0.0022
12875TIP3   OH260115   0.829   3.163  15.811 -0.1523  0.4177 -0.2743
12875TIP3    H160116   0.754   3.140  15.866  1.2416  0.4979  1.7519
12875TIP3    H260117   0.826   3.099  15.740 -0.6163 -1.3217  1.2387
12876TIP3   OH260118   1.278   6.502   0.262 -0.0401  0.5221 -0.5557
12876TIP3    H160119   1.201   6.467   0.218  0.1048 -0.2915 -0.2015
12876TIP3    H260120   1.350   6.488   0.200 -0.1898  1.4158 -0.9457
12877TIP3   OH260121   2.876   1.162  14.238 -0.2314 -0.8647  0.6833
12877TIP3    H160122   2.931   1.203  14.303 -0.7092 -0.7127  0.9991
12877TIP3    H260123   2.873   1.070  14.263  1.2922 -1.2287 -0.3442
12878TIP3   OH260124   3.314   5.009   3.646 -0.2731 -0.0712 -0.2938
12878TIP3    H160125   3.405   4.978   3.647  0.9191  3.0242 -0.2047
12878TIP3    H260126   3.312   5.073   3.575 -2.6232 -0.5383 -0.7099
12879TIP3   OH260127   1.889   5.827  16.947  0.0537  0.3473 -0.0582
12879TIP3    H160128   1.977   5.810  16.980 -0.3262 -0.3687  0.6041
12879TIP3    H260129   1.847   5.879  17.015  0.1686  1.2814 -0.6761
12880TIP3   OH260130   0.862   0.618   4.527 -0.0156 -0.1396  0.1145
12880TIP3    H160131   0.949   0.647   4.498  0.0771 -1.5954 -1.1901
12880TIP3    H260132   0.804   0.692   4.507  0.7851  0.5772  0.3589
12881TIP3   OH260133   2.823   6.662  10.399 -0.0830  0.0351  0.3606
12881TIP3    H160134   2.886   6.622  10.339 -0.3791  0.5895 -0.3339
12881TIP3    H260135   2.742   6.613  10.386 -0.0729 -0.0209  0.5078
12882TIP3   OH260136   1.673   3.547  14.480 -0.0765  0.7302  0.0654
12882TIP3    H160137   1.729   3.500  14.419 -0.1285 -0.4726  0.9241
12882TIP3    H260138   1.733   3.600  14.532  0.2399 -0.2840  0.7471
12883TIP3   OH260139   0.035   6.654  13.619  0.3814 -0.7238 -0.2928
12883TIP3    H160140  -0.004   6.740  13.638  1.6553 -0.3077  0.5139
12883TIP3    H260141   0.075   6.664  13.533  1.1530 -0.2831  0.1153
12884TIP3   OH260142   5.692   1.266   3.298  0.0720 -0.4519 -0.5028
12884TIP3    H160143   5.602   1.248   3.323  0.4058 -0.5617  0.6970
12884TIP3    H260144   5.724   1.326   3.366  1.4762 -1.9345  0.2264
12885TIP3   OH260145   0.623   4.409  14.221 -0.2875  0.3366 -0.3099
12885TIP3    H160146   0.564   4.377  14.289  0.7359  0.4667  0.6625
12885TIP3    H260147   0.709   4.409  14.262  0.1530  1.6999 -1.1774
12886TIP3   OH260148   5.206   5.378   2.233  0.2852 -0.0702  0.0350
12886TIP3    H160149   5.228   5.415   2.318 -0.4795 -0.3632  0.3680
12886TIP3    H260150   5.117   5.344   2.244  0.2668 -0.3130 -0.8125
12887TIP3   OH260151   4.952   1.152   1.127  0.4520  0.4160 -0.3443
12887TIP3    H160152   4.970   1.196   1.044  0.3460  1.9250  0.3882
12887TIP3    H260153   4.863   1.117   1.117 -0.1709  1.9208 -0.3652
12888TIP3   OH260154   1.468   1.446  10.302 -0.0794 -0.1254 -0.4288
12888TIP3    H160155   1.554   1.465  10.339 -0.4876  0.7910  0.0833
12888TIP3    H260156   1.477   1.359  10.261  1.1490  0.0838 -0.6140
12889TIP3   OH260157   5.701   4.515   6.097 -0.1548 -0.3546 -0.7554
12889TIP3    H160158   5.794   4.533   6.114 -0.7270  0.5190  1.9087
12889TIP3    H260159   5.693   4.420   6.100  0.4778 -0.3884  0.2985
12890TIP3   OH260160   2.387   3.055  15.570 -0.5260 -0.0798 -0.0491
12890TIP3    H160161   2.327   3.003  15.517  0.5549 -1.8275  0.3752
12890TIP3    H260162   2.462   3.071  15.513 -0.1447 -0.4010  0.3599
12891TIP3   OH260163   6.559   4.004   0.645  0.4392 -0.3193  0.1841
12891TIP3    H160164   6.485   3.990   0.704  0.3906  0.0588  0.2193
12891TIP3    H260165   6.626   3.942   0.675 -0.7455 -2.5221 -1.4539
12892TIP3   OH260166   2.687   2.960  16.621 -0.5062 -0.1556 -0.1868
12892TIP3    H160167   2.715   3.015  16.694 -0.4397 -0.8068  0.2807
12892TIP3    H260168   2.753   2.976  16.553 -0.1231 -0.1516  0.1820
12893TIP3   OH260169   1.078   2.661   0.633  0.3162 -0.1630  0.6769
12893TIP3    H160170   1.028   2.707   0.701  2.2077  1.3188  1.1483
12893TIP3    H260171   1.103   2.578   0.674  0.4390  0.2140  1.3832
12894TIP3   OH260172   0.305   3.016  13.257 -0.2215 -0.7146  0.0411
12894TIP3    H160173   0.371   3.010  13.188  1.3706  0.9383  1.3328
12894TIP3    H260174   0.238   3.073  13.221 -0.2723 -1.2533 -0.7513
12895TIP3   OH260175   1.009   4.033   0.446 -0.1321  0.0809  0.2317
12895TIP3    H160176   0.918   4.012   0.465  0.5728 -2.2109  1.3037
12895TIP3    H260177   1.044   4.067   0.528  0.4353 -0.7379  0.3352
12896TIP3   OH260178   6.843   4.231   0.870 -0.1275 -0.1331 -0.6433
12896TIP3    H160179   6.862   4.183   0.790 -0.4902 -0.3353 -0.6100
12896TIP3    H260180   6.754   4.205   0.893  0.4417 -1.1474  0.5732
12897TIP3   OH260181   4.700   6.821  10.973  0.1712 -0.2804  0.3076
12897TIP3    H160182   4.643   6.762  11.023 -0.1991  1.0585  1.5505
12897TIP3    H260183   4.664   6.822  10.885  0.4896 -2.2719  0.1142
12898TIP3   OH260184   5.635   1.631   0.539  0.7438 -0.3502  0.5106
12898TIP3    H160185   5.668   1.555   0.491  1.7801 -0.0157  0.6809
12898TIP3    H260186   5.713   1.682   0.561  0.2764 -0.3736  2.3488
12899TIP3   OH260187   3.489   4.140  14.887 -0.1183  0.1687 -0.6664
12899TIP3    H160188   3.444   4.193  14.821  0.5059  0.3440 -0.9533
12899TIP3    H260189   3.418   4.101  14.938 -0.6014  1.7276 -0.0923
12900TIP3   OH260190   1.125   4.370  12.589 -0.7140 -0.4641 -0.6100
12900TIP3    H160191   1.171   4.319  12.655  1.7111 -0.4252 -2.1548
12900TIP3    H260192   1.133   4.460  12.617  1.9779 -0.2495 -1.7683
12901TIP3   OH260193   3.082   5.047  15.132 -1.2262  0.4086 -0.6292
12901TIP3    H160194   3.175   5.068  15.133 -0.8560 -1.1267 -0.9655
12901TIP3    H260195   3.059   5.033  15.224 -0.3822 -2.1729 -0.7457
12902TIP3   OH260196   4.962   2.716  14.032 -0.3127 -0.1949  0.2296
12902TIP3    H160197   4.953   2.791  13.974  0.8066 -0.6422 -0.5538
12902TIP3    H260198   4.922   2.643  13.985  0.2632 -0.4795  0.1660
12903TIP3   OH260199   2.466   2.457   1.513  1.2588  0.8906 -0.2315
12903TIP3    H160200   2.535   2.391   1.515  2.4258  2.0379 -0.7079
12903TIP3    H260201   2.470   2.499   1.599  2.5400  2.2579 -0.9004
12904TIP3   OH260202   4.595   6.680  12.717 -0.4835  0.0750 -0.0748
12904TIP3    H160203   4.581   6.767  12.754  0.7131  0.1823  0.1781
12904TIP3    H260204   4.607   6.695  12.623  0.8175  0.3389  0.1134
12905TIP3   OH260205   4.595   2.674   3.726 -0.2935 -0.0530  0.1539
12905TIP3    H160206   4.568   2.660   3.635 -0.8060  0.5623  0.2054
12905TIP3    H260207   4.675   2.725   3.720 -0.7226  0.6248  0.0526
12906TIP3   OH260208   1.674   2.525  14.578 -0.1285  0.1072 -0.3216
12906TIP3    H160209   1.710   2.503  14.492 -0.2283 -1.1507 -0.0653
12906TIP3    H260210   1.601   2.464  14.589 -0.0702  0.2046  0.6861
12907TIP3   OH260211   0.263   6.072   4.470  0.0418 -0.1155  0.1423
12907TIP3    H160212   0.356   6.095   4.467  0.0034  0.3021  1.4728
12907TIP3    H260213   0.218   6.151   4.440  0.1138 -0.4460 -0.8746
12908TIP3   OH260214   6.351   0.758   0.318 -0.1849  0.0453  0.1288
12908TIP3    H160215   6.356   0.663   0.325  0.1108  0.2001  2.9710
12908TIP3    H260216   6.438   0.789   0.343 -0.4404  1.1052 -0.2363
12909TIP3   OH260217   6.273   3.346  14.359  1.0413  0.7181 -0.4158
12909TIP3    H160218   6.343   3.369  14.298 -0.7641  1.3723 -2.3690
12909TIP3    H260219   6.248   3.257  14.334 -0.5271  1.4274 -1.5492
12910TIP3   OH260220   6.112   1.250  11.059  0.2984  0.2526  0.2090
12910TIP3    H160221   6.051   1.323  11.074  0.4792  0.2470  1.0089
12910TIP3    H260222   6.135   1.257  10.966 -0.1315  0.8710  0.1422
12911TIP3   OH260223   1.714   4.147  16.666 -0.1270 -0.2534 -0.0712
12911TIP3    H160224   1.799   4.110  16.645  0.6140  0.8607  0.8155
12911TIP3    H260225   1.717   4.236  16.630  0.3716  0.9459  2.6672
12912TIP3   OH260226   5.677   3.299   3.109 -0.6905  0.0215 -0.3018
12912TIP3    H160227   5.648   3.320   3.198  0.2348 -0.2900  0.0891
12912TIP3    H260228   5.602   3.321   3.053 -1.0967  0.7187  0.4947
12913TIP3   OH260229   2.752   0.871  11.853 -0.0836 -0.1255  0.7036
12913TIP3    H160230   2.786   0.852  11.765  0.4727  1.6310  0.5026
12913TIP3    H260231   2.692   0.799  11.871  2.1352 -2.2153  0.1896
12914TIP3   OH260232   5.548   2.034   6.334  0.1355 -0.0220  0.0416
12914TIP3    H160233   5.486   2.100   6.302  0.6334  0.1450 -0.6030
12914TIP3    H260234   5.503   1.951   6.320 -0.7603  0.1926  1.4452
12915TIP3   OH260235   6.156   1.701  13.957  0.5908  0.1413  0.0507
12915TIP3    H160236   6.172   1.620  13.910 -0.8330 -0.2830  0.2604
12915TIP3    H260237   6.143   1.767  13.888 -1.1091 -0.3989 -0.1817
12916TIP3   OH260238   0.506   1.839   5.634 -0.2013 -0.3124 -0.6936
12916TIP3    H160239   0.509   1.746   5.612  0.6434 -0.0671 -1.6883
12916TIP3    H260240   0.479   1.882   5.553 -0.9861  0.2885 -0.1290
12917TIP3   OH260241   0.841   3.875  12.717  0.1209  0.4610  0.0534
12917TIP3    H160242   0.835   3.970  12.728  1.8115  0.8502 -1.7531
12917TIP3    H260243   0.766   3.852  12.662 -0.7191  0.5993  1.1131
12918TIP3   OH260244   2.216   6.661   3.809 -0.3899 -0.3297  0.2625
12918TIP3    H160245   2.215   6.753   3.837 -1.0520  0.4533 -2.0455
12918TIP3    H260246   2.291   6.623   3.853 -0.6359  1.0529  2.0108
12919TIP3   OH260247   0.964   4.574   0.288  0.2140  0.0724  0.0841
12919TIP3    H160248   0.945   4.499   0.344  2.5446 -1.0771 -0.5378
12919TIP3    H260249   0.954   4.541   0.199  1.1305  0.5231 -0.2031
12920TIP3   OH260250   1.831   2.231  12.858 -0.1685 -0.0395 -0.4008
12920TIP3    H160251   1.759   2.288  12.832 -2.1089 -2.5308 -0.8485
12920TIP3    H260252   1.895   2.240  12.788 -1.3571  0.0303 -1.5069
12921TIP3   OH260253   2.161   3.679  13.888 -0.2349 -0.0673  0.0035
12921TIP3    H160254   2.104   3.604  13.870 -0.9184  0.4235  0.0565
12921TIP3    H260255   2.103   3.744  13.928  0.6794 -0.1124  1.4981
12922TIP3   OH260256   3.494   6.835   0.229 -0.3812 -0.7455  0.1236
12922TIP3    H160257   3.552   6.896   0.275  0.1632 -0.4711 -0.8934
12922TIP3    H260258   3.545   6.755   0.220 -0.4219 -0.7392 -0.1643
12923TIP3   OH260259   4.400   6.195   5.409 -0.0799 -0.5159 -0.1529
12923TIP3    H160260   4.438   6.119   5.453  0.9578 -0.5257 -1.0279
12923TIP3    H260261   4.330   6.224   5.468 -0.6419 -2.2554  0.1145
12924TIP3   OH260262   5.845   5.319   2.899 -0.4436 -0.7588 -0.1231
12924TIP3    H160263   5.787   5.358   2.833  1.1508 -1.4373 -2.0224
12924TIP3    H260264   5.881   5.241   2.856  2.2212 -0.1138  0.7237
12925TIP3   OH260265   6.545   4.491  13.140 -0.3195  0.3286  0.0748
12925TIP3    H160266   6.500   4.417  13.099 -0.7142  0.2673  0.5999
12925TIP3    H260267   6.475   4.554  13.159 -0.0998  0.4904  0.3663
12926TIP3   OH260268   4.191   6.277   3.626  0.6773 -0.5804 -0.1153
12926TIP3    H160269   4.119   6.315   3.677  1.3860 -0.1315  0.5826
12926TIP3    H260270   4.162   6.283   3.535 -0.0244 -0.0983  0.1298
12927TIP3   OH260271   2.063   4.232   3.047  0.5494 -0.3120  0.3323
12927TIP3    H160272   2.079   4.170   2.975 -0.9805 -1.3070  0.7924
12927TIP3    H260273   2.144   4.230   3.098  0.4203 -2.2848  0.5544
12928TIP3   OH260274   6.846   5.730  11.427  0.4814 -0.4861 -0.0489
12928TIP3    H160275   6.935   5.733  11.391 -0.0017  1.2009 -1.2329
12928TIP3    H260276   6.789   5.731  11.350 -0.5675 -0.2986  0.7110
12929TIP3   OH260277   4.519   2.054   1.268 -0.0362 -0.4756  0.2856
12929TIP3    H160278   4.527   2.142   1.231  0.7179 -0.8225 -0.4142
12929TIP3    H260279   4.451   2.062   1.335 -1.5492  0.1734 -1.2493
12930TIP3   OH260280   2.409   1.736   3.535  0.2885  0.3772 -0.2745
12930TIP3    H160281   2.398   1.654   3.487  0.0097 -0.2955  0.8847
12930TIP3    H260282   2.454   1.794   3.474 -1.9858  0.3347 -2.1594
12931TIP3   OH260283   1.815   0.706  14.970 -0.2260 -0.0173 -0.2128
12931TIP3    H160284   1.743   0.654  15.005  1.0929  0.0890  2.9879
12931TIP3    H260285   1.802   0.794  15.005  0.6275  0.3889 -0.8684
12932TIP3   OH260286   0.488   1.540  15.752  0.5137 -0.3562  0.4566
12932TIP3    H160287   0.573   1.515  15.787 -0.1882 -0.5741  2.1191
12932TIP3    H260288   0.425   1.488  15.803 -0.6280  0.1265 -0.4242
12933TIP3   OH260289   6.135   5.075   2.258 -0.4000 -0.1362 -0.3463
12933TIP3    H160290   6.178   5.056   2.342  1.0237  1.8276 -0.5707
12933TIP3    H260291   6.114   4.988   2.222  2.2138 -1.1680  0.3889
12934TIP3   OH260292   6.289   1.840  10.972 -0.0705  0.0524 -0.0079
12934TIP3    H160293   6.314   1.835  10.879 -0.9223  1.4943 -0.3561
12934TIP3    H260294   6.371   1.825  11.019  0.7243  0.9176 -1.0325
12935TIP3   OH260295   2.045   1.722  13.070 -0.0572  0.3597  0.2969
12935TIP3    H160296   2.130   1.687  13.098  0.4071  0.7920 -0.4990
12935TIP3    H260297   2.066   1.772  12.991 -0.9509  1.0426  0.4781
12936TIP3   OH260298   0.628   5.726   4.026 -0.1836  0.4994 -0.9205
12936TIP3    H160299   0.687   5.793   4.061  0.2958  0.4820 -1.6645
12936TIP3    H260300   0.645   5.649   4.080 -0.9589  1.0426  0.1398
12937TIP3   OH260301   1.491   3.108  16.776  0.1097  0.4167  0.1927
12937TIP3    H160302   1.547   3.171  16.821 -1.3202 -0.0479  2.8231
12937TIP3    H260303   1.402   3.138  16.793 -0.5440 -1.1322 -0.3319
12938TIP3   OH260304   5.310   4.752  16.795  0.3433 -0.7833  0.2273
12938TIP3    H160305   5.372   4.754  16.722 -0.5397  0.9796 -0.5154
12938TIP3    H260306   5.362   4.777  16.871  0.5584  0.8064 -0.4067
12939TIP3   OH260307   5.383   2.065  15.355  0.3526  0.0108 -0.5798
12939TIP3    H160308   5.360   2.058  15.448 -0.6131  1.0571 -0.7161
12939TIP3    H260309   5.325   2.002  15.311 -0.7324  1.0557 -0.6850
12940TIP3   OH260310   0.871   3.497   0.103  0.7327 -0.0847  0.9292
12940TIP3    H160311   0.837   3.439   0.171  1.5720 -0.0009  1.4238
12940TIP3    H260312   0.946   3.450   0.066  0.1346 -0.2459 -0.1220
12941TIP3   OH260313   0.328   1.552   6.153 -0.2291  0.8262  0.8588
12941TIP3    H160314   0.266   1.585   6.218 -1.2082 -2.3875  1.7216
12941TIP3    H260315   0.280   1.486   6.104  0.7386  2.5135 -2.7334
12942TIP3   OH260316   4.679   6.257   1.097 -0.1928 -0.2040  0.2916
12942TIP3    H160317   4.619   6.186   1.076  1.5166 -1.6235  0.0194
12942TIP3    H260318   4.738   6.221   1.163  0.9172  0.8477 -0.0787
12943TIP3   OH260319   1.408   6.842  15.534  0.4406  0.3256 -0.0298
12943TIP3    H160320   1.490   6.877  15.500  1.6248 -1.4843  0.7789
12943TIP3    H260321   1.352   6.918  15.545  0.8561  1.3001 -3.5035
12944TIP3   OH260322   3.773   1.319  16.826 -0.5249 -0.2177  0.2900
12944TIP3    H160323   3.840   1.283  16.884 -0.8149  1.7135  1.9252
12944TIP3    H260324   3.691   1.303  16.872 -1.2197 -2.0670 -1.4437
12945TIP3   OH260325   0.784   1.744   6.046 -0.2553  0.5636 -0.3965
12945TIP3    H160326   0.715   1.784   5.993 -0.7022 -0.9749 -1.0252
12945TIP3    H260327   0.746   1.661   6.076  0.0800  1.2645  2.1567
12946TIP3   OH260328   1.647   0.715   1.385  0.3093  0.2474 -0.3892
12946TIP3    H160329   1.661   0.714   1.480 -0.6117  0.8157 -0.2335
12946TIP3    H260330   1.625   0.625   1.363 -1.0139  0.4011  0.2019
12947TIP3   OH260331   2.352   1.511  15.728  0.0549  0.6108  0.3948
12947TIP3    H160332   2.261   1.482  15.726  0.1722  0.2388  0.3995
12947TIP3    H260333   2.392   1.459  15.798  0.8916 -1.0767 -1.2652
12948TIP3   OH260334   1.884   4.451  11.577 -0.1112 -0.3892  0.3456
12948TIP3    H160335   1.895   4.543  11.553  3.2259 -0.3854  1.4432
12948TIP3    H260336   1.950   4.405  11.525 -0.3631 -1.8796  1.2909
12949TIP3   OH260337   3.254   1.116  14.151  0.0150  0.5121  0.3775
12949TIP3    H160338   3.194   1.075  14.090  0.8294  0.2719 -0.2846
12949TIP3    H260339   3.294   1.188  14.100  1.1830 -0.1015  0.3971
12950TIP3   OH260340   3.229   2.311  16.981  0.2529  0.3430  0.1010
12950TIP3    H160341   3.166   2.260  17.033 -1.2019  0.0535 -1.8443
12950TIP3    H260342   3.176   2.376  16.935  1.5808  1.0200 -0.5409
12951TIP3   OH260343   0.120   4.458  16.193 -0.2505  0.5977 -0.2858
12951TIP3    H160344   0.068   4.421  16.122 -0.6083 -1.1561  0.8089
12951TIP3    H260345   0.059   4.517  16.239 -0.1650  1.3433 -1.1122
12952TIP3   OH260346   3.074   6.218   0.307 -0.0564 -0.3766  0.5528
12952TIP3    H160347   3.013   6.145   0.303  0.0058 -0.3674 -2.0373
12952TIP3    H260348   3.029   6.283   0.361 -2.9242  0.0669 -2.1034
12953TIP3   OH260349   6.195   2.192  11.009 -0.0778 -0.4578  0.2316
12953TIP3    H160350   6.262   2.165  11.073 -0.2693  1.5477  1.3592
12953TIP3    H260351   6.243   2.203  10.927  0.6151 -0.8158  0.5783
12954TIP3   OH260352   4.288   3.062  16.243 -0.6840  0.0565  0.1383
12954TIP3    H160353   4.229   3.061  16.318 -0.8774  1.2176  0.0242
12954TIP3    H260354   4.237   3.100  16.172 -0.0945  0.1950 -0.2269
12955TIP3   OH260355   2.592   3.757  15.111 -0.0134 -0.7785 -0.3182
12955TIP3    H160356   2.615   3.745  15.204  0.3573 -1.0343 -0.4406
12955TIP3    H260357   2.539   3.680  15.089 -0.4466 -0.5155 -0.2134
12956TIP3   OH260358   0.278   4.496  12.802  0.1106 -0.2472  0.4730
12956TIP3    H160359   0.282   4.428  12.869 -0.1320  0.3068  1.0659
12956TIP3    H260360   0.356   4.549  12.817 -0.9377  1.0320  1.6013
12957TIP3   OH260361   0.859   0.379  14.614  0.9109  0.1452 -0.4572
12957TIP3    H160362   0.797   0.402  14.684 -0.3881  1.3192 -1.9080
12957TIP3    H260363   0.888   0.464  14.580  2.4482 -0.4037 -0.5908
12958TIP3   OH260364   6.446   0.383   4.744 -0.1859  0.2464 -0.5494
12958TIP3    H160365   6.478   0.456   4.798 -0.1158  0.3508 -0.7299
12958TIP3    H260366   6.357   0.368   4.775 -0.4850  0.9343 -1.0477
12959TIP3   OH260367   0.522   3.252  16.657  0.0496  0.2713 -0.4337
12959TIP3    H160368   0.502   3.169  16.700  0.0080  1.3160  1.6743
12959TIP3    H260369   0.615   3.266  16.673 -0.0184  0.7999 -0.4803
12960TIP3   OH260370   2.218   6.017  10.732 -0.5528 -0.0876 -0.1305
12960TIP3    H160371   2.206   5.933  10.688  0.1922 -0.0782 -0.3749
12960TIP3    H260372   2.133   6.060  10.727 -0.3282  0.2295 -2.2373
12961TIP3   OH260373   1.767   4.765   4.133 -0.1324 -0.6039 -0.8101
12961TIP3    H160374   1.835   4.832   4.142 -2.1868  1.3429  2.2883
12961TIP3    H260375   1.700   4.806   4.078  0.0923 -1.5746 -1.8453
12962TIP3   OH260376   5.098   6.233  16.881  0.0889  0.2563 -0.1771
12962TIP3    H160377   5.161   6.162  16.877  1.6883  1.6331 -0.6324
12962TIP3    H260378   5.027   6.200  16.936  0.6462 -1.7526 -0.6069
12963TIP3   OH260379   6.181   6.222  16.896 -0.3204  0.0847 -0.4666
12963TIP3    H160380   6.164   6.174  16.977  2.0326 -1.1560 -0.6123
12963TIP3    H260381   6.188   6.313  16.924  0.0750 -0.2803  0.6917
12964TIP3   OH260382   3.442   2.821  16.052  0.1851  0.1086  0.7209
12964TIP3    H160383   3.494   2.759  16.103 -0.8034 -0.4441  1.0742
12964TIP3    H260384   3.481   2.820  15.965  0.6742 -0.3928  0.9431
12965TIP3   OH260385   3.243   2.551  12.784 -0.0871  0.0151  0.5122
12965TIP3    H160386   3.272   2.513  12.700  0.4434 -1.0328  1.1381
12965TIP3    H260387   3.150   2.529  12.789 -0.0813 -0.0760  0.2729
12966TIP3   OH260388   6.350   1.066   3.908  0.2901 -0.1668 -0.4738
12966TIP3    H160389   6.410   1.114   3.965 -2.1185 -1.0511  3.1548
12966TIP3    H260390   6.286   1.131   3.880 -1.0213 -0.4679  1.6198
12967TIP3   OH260391   4.126   5.647  15.276 -0.0678 -0.0191  0.5644
12967TIP3    H160392   4.132   5.610  15.364  0.6417 -1.5340 -0.0763
12967TIP3    H260393   4.118   5.571  15.218 -2.1138  0.9886 -0.5989
12968TIP3   OH260394   1.545   2.630  16.699 -0.0160  0.4018 -0.7806
12968TIP3    H160395   1.584   2.715  16.680 -0.2530  1.1711  1.8127
12968TIP3    H260396   1.620   2.574  16.723 -0.1330  1.6303  3.3030
12969TIP3   OH260397   1.230   3.463  13.134 -0.2243 -0.2290 -0.1474
12969TIP3    H160398   1.233   3.465  13.230 -0.4915  0.8148 -0.1419
12969TIP3    H260399   1.317   3.495  13.108 -0.3434  0.0257 -0.2387
12970TIP3   OH260400   6.759   1.834  15.724 -0.3238 -0.3535 -0.4643
12970TIP3    H160401   6.704   1.912  15.714  0.2342  0.2007  0.6322
12970TIP3    H260402   6.703   1.771  15.770  0.0111  0.3129  0.9193
12971TIP3   OH260403   5.900   0.231   2.161 -0.0858 -0.2781  0.2521
12971TIP3    H160404   5.899   0.191   2.074  1.4269 -0.4504  0.2941
12971TIP3    H260405   5.985   0.208   2.198 -0.5068  0.2057  1.5968
12972TIP3   OH260406   5.117   2.270   5.251 -0.2756  0.4172 -0.3032
12972TIP3    H160407   5.156   2.232   5.330 -1.4054 -0.9045 -0.3370
12972TIP3    H260408   5.187   2.322   5.212  0.7702 -0.1400  0.7683
12973TIP3   OH260409   0.555   5.499  13.230 -0.1981 -0.1621 -0.2612
12973TIP3    H160410   0.492   5.571  13.238  0.7250  0.9365 -2.2914
12973TIP3    H260411   0.629   5.536  13.182  0.8821 -2.1263 -0.2255
12974TIP3   OH260412   5.410   1.884   0.247 -0.6864 -0.3387 -0.0548
12974TIP3    H160413   5.493   1.932   0.249 -0.3361 -0.8893 -0.7877
12974TIP3    H260414   5.404   1.844   0.334  0.3560 -1.1690 -0.3390
12975TIP3   OH260415   3.514   2.605   2.807  0.2568  0.0622 -0.3478
12975TIP3    H160416   3.510   2.661   2.730 -1.0170  0.1402 -0.2532
12975TIP3    H260417   3.428   2.615   2.848  0.7583 -0.3267  0.8364
12976TIP3   OH260418   0.334   2.706  11.956 -0.5848 -0.0052 -0.0122
12976TIP3    H160419   0.312   2.728  12.046  2.3234  0.0698  0.7735
12976TIP3    H260420   0.347   2.790  11.913  0.0056 -0.0624  0.0525
12977TIP3   OH260421   3.271   4.341  16.934 -0.2834 -0.2425  1.0148
12977TIP3    H160422   3.324   4.418  16.912  0.1134 -1.1800 -1.7344
12977TIP3    H260423   3.200   4.342  16.869 -1.1533 -1.3677  1.9021
12978TIP3   OH260424   4.787   1.392  10.990 -0.2180 -0.0430  0.1574
12978TIP3    H160425   4.761   1.315  10.939  1.4295 -0.8421  0.4707
12978TIP3    H260426   4.858   1.361  11.046  1.1678  1.9142 -0.4118
12979TIP3   OH260427   6.161   0.792  16.993 -0.3506  0.5020 -0.3883
12979TIP3    H160428   6.154   0.857  17.063 -0.4888  0.7953 -0.6709
12979TIP3    H260429   6.250   0.757  17.002 -1.2615 -1.5539  1.7278
12980TIP3   OH260430   2.553   1.909  12.183  0.4414 -0.0234  0.4087
12980TIP3    H160431   2.465   1.942  12.167  0.5186  0.4915  1.0403
12980TIP3    H260432   2.562   1.835  12.123  0.1532  0.8940 -0.8069
12981TIP3   OH260433   0.067   5.704  13.300  0.4981  0.4258  0.1917
12981TIP3    H160434  -0.017   5.678  13.262  0.5688 -0.7081  0.7852
12981TIP3    H260435   0.122   5.625  13.294  1.2994  0.9489  0.4455
12982TIP3   OH260436   1.835   3.363   5.189 -0.7135  0.0399 -0.0421
12982TIP3    H160437   1.870   3.307   5.119  1.2087  1.6791 -0.4729
12982TIP3    H260438   1.804   3.441   5.144  0.0747  0.9027  0.8666
12983TIP3   OH260439   1.967   5.251  12.060 -0.1504 -0.0039  0.1223
12983TIP3    H160440   2.037   5.216  12.006 -0.8160 -0.3801 -0.5122
12983TIP3    H260441   2.012   5.297  12.131  0.7607  1.6256 -1.4281
12984TIP3   OH260442   0.917   6.153  13.584 -0.0065  0.4624 -1.0175
12984TIP3    H160443   0.849   6.090  13.607  1.1191 -0.2370  0.6534
12984TIP3    H260444   0.880   6.238  13.607  0.0218  0.0043  0.9106
12985TIP3   OH260445   4.516   0.694  16.622 -0.2821 -0.5771 -0.6621
12985TIP3    H160446   4.453   0.639  16.668 -0.3244 -1.0316 -1.2623
12985TIP3    H260447   4.602   0.660  16.648 -0.2622  0.0922  0.2168
12986TIP3   OH260448   5.563   6.414   1.788  0.7917  0.6861 -0.1299
12986TIP3    H160449   5.616   6.414   1.868  0.7352 -0.6727 -0.0555
12986TIP3    H260450   5.614   6.360   1.727 -0.4558 -0.6447 -0.0648
12987TIP3   OH260451   5.099   5.431   5.891  0.4987 -0.5000  0.0735
12987TIP3    H160452   5.032   5.449   5.825  0.6365 -3.9966 -1.2525
12987TIP3    H260453   5.061   5.462   5.973 -1.1324  0.9555 -1.1641
12988TIP3   OH260454   4.570   3.121  11.663  0.1679  0.5011 -0.3892
12988TIP3    H160455   4.508   3.191  11.681 -0.6941 -0.5940  1.1276
12988TIP3    H260456   4.592   3.085  11.749 -0.5935 -2.0416 -1.1529
12989TIP3   OH260457   3.202   6.371  15.981 -0.4068 -0.5819  0.1983
12989TIP3    H160458   3.184   6.285  16.018 -0.8147 -0.9399 -0.8259
12989TIP3    H260459   3.288   6.363  15.940 -1.7942 -1.4845 -2.7412
12990TIP3   OH260460   6.517   1.205  10.455 -0.4563  0.7915 -0.1157
12990TIP3    H160461   6.490   1.172  10.369 -1.4420 -0.7675  0.7282
12990TIP3    H260462   6.535   1.298  10.441 -1.5068  0.7849 -1.8084
12991TIP3   OH260463   5.235   4.532  16.241  0.5341 -0.1126  0.4423
12991TIP3    H160464   5.168   4.563  16.301  0.1781 -0.7144  0.3679
12991TIP3    H260465   5.185   4.494  16.168  0.9487 -1.0168  0.6200
12992TIP3   OH260466   3.493   6.110   5.495  0.4429  0.0571  0.3503
12992TIP3    H160467   3.580   6.120   5.457  0.4218 -1.5299 -0.2030
12992TIP3    H260468   3.507   6.063   5.577  0.0604 -0.8976 -0.1160
12993TIP3   OH260469   1.644   3.141   4.988  0.1519 -0.2253 -0.0697
12993TIP3    H160470   1.658   3.153   5.082 -1.7122  0.9570  0.1003
12993TIP3    H260471   1.668   3.225   4.949  1.0370 -0.7466 -0.6987
12994TIP3   OH260472   1.739   3.982  12.386 -0.7678  0.5911 -0.0791
12994TIP3    H160473   1.679   3.987  12.311 -0.9058 -0.2029 -0.0319
12994TIP3    H260474   1.683   3.959  12.460 -0.2135 -1.9409 -0.3586
12995TIP3   OH260475   3.190   2.856   0.503  0.0372  0.3696 -0.4168
12995TIP3    H160476   3.275   2.841   0.460  1.7739 -0.1179  2.9002
12995TIP3    H260477   3.156   2.768   0.520  0.2982  0.4969  0.8295
12996TIP3   OH260478   5.258   0.096   1.309  0.9392 -0.5649  0.1443
12996TIP3    H160479   5.221   0.118   1.224 -0.3131 -0.4665  0.6939
12996TIP3    H260480   5.330   0.158   1.320  0.0377  0.5708 -0.1126
12997TIP3   OH260481   0.716   2.981  14.468 -0.1111  0.1392  0.4283
12997TIP3    H160482   0.709   3.066  14.510 -1.3408 -0.0516  0.6608
12997TIP3    H260483   0.757   2.999  14.383  0.2584  0.8539  0.7545
12998TIP3   OH260484   6.806   4.067   5.205  0.2214 -0.2107 -0.4061
12998TIP3    H160485   6.823   4.140   5.264 -0.9540  0.7030 -1.1488
12998TIP3    H260486   6.816   3.989   5.259 -1.8768  0.6344  1.3198
12999TIP3   OH260487   3.568   3.046   5.657 -0.2807 -0.0779  1.0797
12999TIP3    H160488   3.579   3.089   5.742  0.0719  0.5944  0.6964
12999TIP3    H260489   3.473   3.048   5.642 -0.4017 -0.7438  1.7351
13000TIP3   OH260490   3.294   0.642   1.536 -0.5509 -0.3668  0.0098
13000TIP3    H160491   3.364   0.665   1.598 -1.8650  2.0039  0.7805
13000TIP3    H260492   3.337   0.637   1.451  0.6701  0.4069  0.5593
13001TIP3   OH260493   3.918   2.363   1.745  0.8750  0.2939  0.3902
13001TIP3    H160494   3.913   2.281   1.696  0.9899  1.0395 -0.8997
13001TIP3    H260495   3.984   2.347   1.812  0.3564 -0.9058  0.6477
13002TIP3   OH260496   3.496   5.419  16.746  0.4096  0.4994  0.2283
13002TIP3    H160497   3.476   5.512  16.740  2.1028  0.9601  0.9751
13002TIP3    H260498   3.430   5.376  16.692  0.6867  2.2713 -1.6131
13003TIP3   OH260499   0.250   5.803  11.079 -0.0369  0.1289 -0.2320
13003TIP3    H160500   0.329   5.842  11.117  0.2359 -0.3780 -0.2659
13003TIP3    H260501   0.182   5.815  11.145  0.7002 -1.7686  0.9416
13004TIP3   OH260502   4.926   5.526   1.175  0.1860  0.1338 -0.0022
13004TIP3    H160503   4.917   5.431   1.179  1.9887 -0.0541  0.4121
13004TIP3    H260504   5.011   5.544   1.215  1.3587  1.6089 -2.8588
13005TIP3   OH260505   0.963   6.213  13.156 -0.0854 -0.1907 -0.1884
13005TIP3    H160506   1.013   6.227  13.236  0.5383 -1.3582 -0.3513
13005TIP3    H260507   0.981   6.290  13.103 -1.2045  1.0153  1.1285
13006TIP3   OH260508   3.101   4.395   0.172  0.2397 -0.1701  0.1430
13006TIP3    H160509   3.176   4.454   0.162 -0.1654  0.2678 -0.3830
13006TIP3    H260510   3.090   4.387   0.267  0.8033 -0.0470  0.2243
13007TIP3   OH260511   5.050   5.137  13.256  0.3777 -0.3544 -0.6319
13007TIP3    H160512   5.052   5.232  13.251 -0.8960 -0.3591 -1.7583
13007TIP3    H260513   5.089   5.107  13.174  0.5536 -0.8072 -0.3908
13008TIP3   OH260514   3.623   5.144   4.025  0.6553  0.3768  0.2867
13008TIP3    H160515   3.618   5.142   3.930  0.8983 -0.5612  0.2825
13008TIP3    H260516   3.571   5.221   4.051 -0.5120 -0.1101 -0.5345
13009TIP3   OH260517   2.565   2.047  16.177 -0.4115 -0.1791 -0.1906
13009TIP3    H160518   2.579   2.027  16.269 -0.4292  0.1325 -0.1199
13009TIP3    H260519   2.476   2.016  16.159 -0.0804 -1.0719 -0.3392
13010TIP3   OH260520   1.181   4.279  17.039  0.4323  0.3119 -0.3066
13010TIP3    H160521   1.218   4.219  16.975 -1.6957  0.5935 -1.9423
13010TIP3    H260522   1.108   4.321  16.993 -0.0397  1.9233  1.7315
13011TIP3   OH260523   1.457   3.498  15.699 -0.1859 -0.0825 -0.2174
13011TIP3    H160524   1.399   3.423  15.705 -1.0677  0.6010 -0.0055
13011TIP3    H260525   1.526   3.482  15.764 -0.5482 -0.5406  0.0510
13012TIP3   OH260526   4.179   0.323   5.456  0.1912  0.2262 -0.5500
13012TIP3    H160527   4.211   0.282   5.376 -0.8907 -0.2752 -0.7480
13012TIP3    H260528   4.179   0.416   5.437 -0.4243  0.0881 -1.2994
13013TIP3   OH260529   0.194   4.607   0.581 -0.5432  0.0799  0.0995
13013TIP3    H160530   0.251   4.560   0.520 -0.7637  0.2679 -0.2514
13013TIP3    H260531   0.106   4.594   0.546 -0.7163 -0.1517  0.6007
13014TIP3   OH260532   5.935   4.844  16.148 -0.3793 -0.1282 -0.2170
13014TIP3    H160533   5.873   4.783  16.107 -1.3077  0.2271  0.6155
13014TIP3    H260534   5.911   4.844  16.240  0.0824  0.9456 -0.0790
13015TIP3   OH260535   2.946   1.470   0.188 -0.5718 -0.1229 -0.2437
13015TIP3    H160536   2.997   1.410   0.134 -0.3161 -2.4984  2.3830
13015TIP3    H260537   3.011   1.512   0.244 -1.0853  0.0435  0.2359
13016TIP3   OH260538   1.514   3.770  16.486 -0.2980 -0.1685 -0.1881
13016TIP3    H160539   1.522   3.850  16.540  2.1248 -0.1239 -0.4815
13016TIP3    H260540   1.483   3.703  16.547  0.6419  0.3112  0.8627
13017TIP3   OH260541   3.215   1.590  12.867  0.0917 -0.3343 -0.5679
13017TIP3    H160542   3.219   1.500  12.835  1.3126 -0.5460  0.1537
13017TIP3    H260543   3.269   1.591  12.946 -0.2875  0.9239 -0.2972
13018TIP3   OH260544   3.495   5.703   2.437 -0.3996  0.1904  0.3766
13018TIP3    H160545   3.489   5.795   2.463  0.1425 -0.0720  1.5092
13018TIP3    H260546   3.558   5.702   2.365 -1.9878  0.9535 -1.0863
13019TIP3   OH260547   5.961   3.218  13.717 -0.2203 -0.3991 -0.0369
13019TIP3    H160548   5.961   3.312  13.736  0.6126 -0.0368 -1.6388
13019TIP3    H260549   6.053   3.195  13.707 -0.4411 -1.2914 -0.1093
13020TIP3   OH260550   3.586   4.255   0.651  0.6908 -0.6572 -0.2838
13020TIP3    H160551   3.564   4.281   0.740  1.6808  0.4279 -0.3324
13020TIP3    H260552   3.599   4.160   0.656  0.7841 -0.5980  0.7267
13021TIP3   OH260553   0.901   5.491  11.164  0.1802  0.3113  0.4779
13021TIP3    H160554   0.831   5.430  11.141  0.8773  0.1910 -1.5682
13021TIP3    H260555   0.856   5.573  11.185 -0.6146  0.3852 -1.2928
13022TIP3   OH260556   2.804   2.459  12.648  0.3435 -0.2520 -0.3841
13022TIP3    H160557   2.890   2.489  12.677 -0.6798  1.8293  0.7308
13022TIP3    H260558   2.808   2.364  12.656  2.2456 -0.1547  0.4332
13023TIP3   OH260559   1.996   1.597  12.578  0.2195  0.7049 -0.2458
13023TIP3    H160560   2.036   1.684  12.580  1.0051  0.4047 -1.3240
13023TIP3    H260561   2.067   1.539  12.548 -0.8118  0.0334 -1.5325
13024TIP3   OH260562   6.551   5.589   4.715  0.4014  0.4870 -0.3655
13024TIP3    H160563   6.491   5.630   4.778  0.5373 -0.9771  0.7818
13024TIP3    H260564   6.497   5.569   4.639  0.0662  1.6526 -0.4534
13025TIP3   OH260565   3.080   5.124  11.997  0.2258  0.0385  0.6717
13025TIP3    H160566   2.997   5.165  11.971 -0.5197 -0.9302  1.4207
13025TIP3    H260567   3.094   5.056  11.932  1.4629  1.4271 -0.5706
13026TIP3   OH260568   4.479   6.734   6.216  0.0160 -0.3013  0.3753
13026TIP3    H160569   4.465   6.826   6.195  1.2999 -0.2189 -0.1962
13026TIP3    H260570   4.574   6.726   6.229 -0.0764 -1.5395  0.4418
13027TIP3   OH260571   4.415   0.971   0.307 -0.0031 -0.5942 -0.3972
13027TIP3    H160572   4.324   0.972   0.277 -0.1093 -0.2384 -0.0749
13027TIP3    H260573   4.464   0.939   0.231 -0.3650 -0.5450 -0.6595
13028TIP3   OH260574   4.416   6.120   0.974  0.4012 -0.6421  0.0732
13028TIP3    H160575   4.416   6.159   0.887  0.5932  0.6630  0.6444
13028TIP3    H260576   4.403   6.026   0.958 -1.5820 -0.1881 -1.2377
13029TIP3   OH260577   4.280   6.809   0.464 -0.6151 -0.4372  0.1153
13029TIP3    H160578   4.206   6.839   0.410 -0.0988  0.9715  0.1413
13029TIP3    H260579   4.280   6.714   0.454 -2.7278 -0.5304  0.5078
13030TIP3   OH260580   4.743   3.970  15.205  0.6859  0.0620 -0.1846
13030TIP3    H160581   4.708   3.955  15.117  1.9920 -1.6993 -0.4789
13030TIP3    H260582   4.722   4.061  15.225 -2.1902 -0.2989 -1.1175
13031TIP3   OH260583   4.634   1.307  16.769  0.3523  0.3564 -0.3940
13031TIP3    H160584   4.638   1.368  16.843 -2.9289 -0.5853  0.7626
13031TIP3    H260585   4.712   1.252  16.779  0.6407  1.0451  1.6724
13032TIP3   OH260586   4.189   3.757   3.313 -0.2741  0.3292 -0.0219
13032TIP3    H160587   4.202   3.784   3.222  2.2956  1.7118  0.6704
13032TIP3    H260588   4.141   3.830   3.353 -2.4313 -0.7646 -0.4279
13033TIP3   OH260589   4.894   4.197  13.526  0.2650 -0.3172 -0.6147
13033TIP3    H160590   4.937   4.283  13.532  0.9368 -0.7241  0.5837
13033TIP3    H260591   4.859   4.195  13.437  0.1635  1.2338 -0.6504
13034TIP3   OH260592   2.959   2.431   2.915 -0.2765  0.7722  0.2652
13034TIP3    H160593   2.869   2.428   2.883 -0.1920  1.4832 -0.0727
13034TIP3    H260594   3.009   2.473   2.845  0.1131  1.3804  0.8866
13035TIP3   OH260595   3.485   4.453   0.494  0.1248 -0.6487  0.0821
13035TIP3    H160596   3.573   4.458   0.456 -0.2311 -2.7125 -1.1737
13035TIP3    H260597   3.496   4.401   0.573 -0.0914 -1.7953 -0.6225
13036TIP3   OH260598   2.637   2.644   5.561  0.0028  0.0286 -0.3495
13036TIP3    H160599   2.639   2.620   5.468  0.4596  1.6504 -0.7920
13036TIP3    H260600   2.580   2.720   5.564 -0.4884 -0.3701  0.8163
13037TIP3   OH260601   5.269   4.704  11.762  0.4028 -0.1594 -0.3184
13037TIP3    H160602   5.217   4.627  11.739 -1.6687  0.8425  0.7240
13037TIP3    H260603   5.281   4.750  11.679  0.7367 -1.0537 -0.7737
13038TIP3   OH260604   0.513   4.468   0.748  0.0905 -0.0018 -0.2043
13038TIP3    H160605   0.597   4.503   0.779  0.2419  0.4319 -1.0554
13038TIP3    H260606   0.518   4.477   0.653 -1.2156  0.7269 -0.2300
13039TIP3   OH260607   1.174   2.901  12.762  0.0684  0.3995 -0.5062
13039TIP3    H160608   1.192   2.810  12.786 -1.0651  0.1650 -0.4705
13039TIP3    H260609   1.085   2.899  12.726 -1.0716  1.9138  1.9521
13040TIP3   OH260610   0.685   0.676  14.386  1.0651  0.0864 -0.0770
13040TIP3    H160611   0.604   0.728  14.394  2.4372  2.2906  0.3593
13040TIP3    H260612   0.669   0.618  14.312 -1.3573 -0.4232  0.7519
13041TIP3   OH260613   4.332   6.733  15.897  0.5390 -0.1500 -0.0538
13041TIP3    H160614   4.290   6.782  15.827 -1.8411 -1.6223  0.1847
13041TIP3    H260615   4.388   6.669  15.853  0.8884  0.4540 -0.4914
13042TIP3   OH260616   3.910   1.760  13.020 -0.2512 -0.2279  0.4139
13042TIP3    H160617   3.888   1.680  13.066 -0.0159 -0.9087 -0.6176
13042TIP3    H260618   4.003   1.751  12.998 -0.6020 -0.4230 -1.1042
13043TIP3   OH260619   5.840   0.044   2.882  0.1793 -0.0460  0.1987
13043TIP3    H160620   5.893  -0.032   2.859 -0.6038 -0.2033 -1.2692
13043TIP3    H260621   5.790   0.017   2.959 -1.3069 -1.6708 -1.2596
13044TIP3   OH260622   4.905   4.436  11.485 -0.1813  0.8878 -0.4251
13044TIP3    H160623   4.920   4.469  11.397 -0.4328 -1.2827 -1.3543
13044TIP3    H260624   4.887   4.342  11.473 -1.1726  0.7138  1.8454
13045TIP3   OH260625   2.641   6.829  14.275  0.1429 -0.0523  0.3536
13045TIP3    H160626   2.600   6.891  14.336 -1.4718  0.3261 -1.0500
13045TIP3    H260627   2.628   6.743  14.316 -1.7061  0.1003  0.1625
13046TIP3   OH260628   4.046   0.354   1.661 -0.1958 -0.1705 -0.0987
13046TIP3    H160629   4.055   0.410   1.584 -1.8055 -0.0591 -0.2529
13046TIP3    H260630   4.038   0.415   1.735  1.8977 -0.2827  0.2683
13047TIP3   OH260631   3.546   2.975  13.406 -0.2221 -0.4440 -0.1873
13047TIP3    H160632   3.583   2.890  13.431  1.1292 -0.3510 -1.7395
13047TIP3    H260633   3.544   3.025  13.488 -1.6473 -2.1458  0.8841
13048TIP3   OH260634   3.344   4.660  14.415  0.4768  0.2699  0.1585
13048TIP3    H160635   3.258   4.630  14.386  0.3391 -0.4633  1.2612
13048TIP3    H260636   3.375   4.718  14.345 -1.1309  0.9469 -0.0170
13049TIP3   OH260637   2.708   6.124  13.310 -0.2221 -0.0562  0.2875
13049TIP3    H160638   2.649   6.115  13.235  1.3469 -2.9023 -0.7590
13049TIP3    H260639   2.673   6.197  13.360 -2.6328  0.5125 -2.0424
13050TIP3   OH260640   1.180   3.379  11.895 -0.1236  0.3439 -0.5596
13050TIP3    H160641   1.260   3.414  11.856  0.4562 -1.3363 -0.9264
13050TIP3    H260642   1.127   3.352  11.821 -0.0486 -0.6247 -0.2785
13051TIP3   OH260643   2.794   6.046   4.566 -0.0396 -1.0813 -0.6130
13051TIP3    H160644   2.759   6.039   4.655  0.2600 -0.8259 -0.4754
13051TIP3    H260645   2.716   6.045   4.510 -0.2637 -0.6549 -0.3151
13052TIP3   OH260646   4.894   4.369  10.838  0.0402  0.4320  0.2965
13052TIP3    H160647   4.956   4.381  10.909 -0.8372 -1.4226  1.4721
13052TIP3    H260648   4.813   4.341  10.881 -0.5396 -0.6837 -1.3885
13053TIP3   OH260649   0.689   5.581  12.638  0.1079 -0.1365  0.4579
13053TIP3    H160650   0.661   5.489  12.639  0.6856 -0.3215 -0.0190
13053TIP3    H260651   0.664   5.614  12.724  0.1136 -0.8060  0.7254
13054TIP3   OH260652   4.216   1.457   1.110 -0.2019 -0.9170  0.2811
13054TIP3    H160653   4.292   1.515   1.108  0.6923 -2.0527  0.4344
13054TIP3    H260654   4.162   1.492   1.181 -0.3682  0.5347 -0.5252
13055TIP3   OH260655   1.482   4.264   5.969 -0.1511 -0.5986 -0.5854
13055TIP3    H160656   1.573   4.240   5.985 -0.2801 -0.1347  0.9711
13055TIP3    H260657   1.434   4.181   5.973  0.1117 -0.7628 -0.7993
13056TIP3   OH260658   2.591   5.648  16.079 -0.0513  0.0099 -0.3383
13056TIP3    H160659   2.550   5.614  16.000 -0.4805 -0.7170  0.1796
13056TIP3    H260660   2.554   5.735  16.090  0.7169  0.4998 -1.4383
13057TIP3   OH260661   4.690   3.941   4.495  0.3508 -0.6531  0.0478
13057TIP3    H160662   4.645   3.871   4.542 -0.5904 -0.5717 -0.6999
13057TIP3    H260663   4.623   3.981   4.440  1.0500  0.3229 -0.1446
13058TIP3   OH260664   5.411   4.259   2.864  0.2846 -0.3072 -0.0770
13058TIP3    H160665   5.405   4.195   2.794 -0.6722  0.3456 -0.6162
13058TIP3    H260666   5.387   4.342   2.823 -1.4453 -0.0942  1.2516
13059TIP3   OH260667   4.690   3.687   1.495  0.2633 -0.4588  0.6125
13059TIP3    H160668   4.674   3.679   1.401  1.0279  0.6333  0.3624
13059TIP3    H260669   4.783   3.711   1.501 -0.0510  0.6044  1.5639
13060TIP3   OH260670   4.672   6.178  15.758 -0.1988 -0.0069  0.5845
13060TIP3    H160671   4.639   6.249  15.703 -2.8148  0.2822  2.3378
13060TIP3    H260672   4.698   6.109  15.697  1.4653  2.0118 -1.1179
13061TIP3   OH260673   4.632   5.246  11.181 -0.5287  0.9942 -0.1954
13061TIP3    H160674   4.674   5.190  11.117  0.7612 -0.6589  1.9472
13061TIP3    H260675   4.704   5.284  11.231 -1.4855  1.9838  0.4773
13062TIP3   OH260676   1.567   1.837  16.545  0.1596 -0.0386 -0.0710
13062TIP3    H160677   1.520   1.789  16.613  0.2372  0.5516  0.4152
13062TIP3    H260678   1.590   1.771  16.480 -0.1725 -0.5643  0.3357
13063TIP3   OH260679   4.511   1.337  15.630 -0.2556  0.5959 -0.3119
13063TIP3    H160680   4.419   1.324  15.649 -0.4857  1.0443 -1.0671
13063TIP3    H260681   4.548   1.248  15.627 -0.8511  0.3607 -0.9132
13064TIP3   OH260682   3.034   5.408  16.441 -0.4344  0.6803  0.0612
13064TIP3    H160683   3.034   5.368  16.528 -1.0178 -0.0337 -0.2566
13064TIP3    H260684   2.946   5.446  16.432 -1.0340 -0.8561 -0.9219
13065TIP3   OH260685   0.924   5.547  14.441  0.2430  0.1678 -0.3244
13065TIP3    H160686   0.970   5.581  14.518  0.7618 -0.1515 -0.4870
13065TIP3    H260687   0.880   5.468  14.473 -0.2481  0.5006 -0.1563
13066TIP3   OH260688   0.751   1.106   0.904 -0.6784  0.6328  0.1664
13066TIP3    H160689   0.715   1.021   0.880 -2.4519  1.4831 -0.3090
13066TIP3    H260690   0.750   1.107   1.000 -0.4397  0.0446  0.1791
13067TIP3   OH260691   2.701   3.805  15.662  0.1170 -0.9067 -0.3343
13067TIP3    H160692   2.702   3.750  15.740  0.3047 -0.4648 -0.0227
13067TIP3    H260693   2.620   3.856  15.670  0.2284 -0.7285 -0.3315
13068TIP3   OH260694   3.854   1.045  14.418  0.0775 -0.8070 -0.0689
13068TIP3    H160695   3.948   1.031  14.427 -0.0063 -1.5920 -0.3698
13068TIP3    H260696   3.843   1.085  14.332  0.2636  0.7173  0.5733
13069TIP3   OH260697   3.228   3.004   0.134  0.1385  0.1391 -0.2868
13069TIP3    H160698   3.314   2.962   0.133  0.2942  0.4613 -0.6073
13069TIP3    H260699   3.232   3.064   0.209  0.7231  1.2292 -1.1634
13070TIP3   OH260700   4.595   6.372   2.049  0.4487 -0.7857  0.2797
13070TIP3    H160701   4.612   6.410   1.963 -1.4983 -0.4953 -0.0239
13070TIP3    H260702   4.662   6.409   2.106 -0.4733  2.0168 -0.3167
13071TIP3   OH260703   3.139   2.791   3.982 -0.4381  0.2819 -0.6229
13071TIP3    H160704   3.213   2.801   4.043  0.0934 -0.5405 -1.1026
13071TIP3    H260705   3.100   2.878   3.976  0.2340  0.6358 -0.0307
13072TIP3   OH260706   1.240   3.149  13.218  0.1587 -0.2212  0.0206
13072TIP3    H160707   1.239   3.147  13.122 -0.8144 -1.4374  0.0257
13072TIP3    H260708   1.199   3.232  13.241  0.9613  0.3698 -0.5949
13073TIP3   OH260709   0.322   2.145  15.061  0.1333 -0.1533  0.3029
13073TIP3    H160710   0.331   2.228  15.108  0.2586  0.7315 -1.2118
13073TIP3    H260711   0.228   2.126  15.064  0.1874 -0.2912  1.1957
13074TIP3   OH260712   1.255   3.351   4.349  0.1174 -0.6212 -0.0670
13074TIP3    H160713   1.205   3.307   4.280 -0.0158  0.3943 -0.6266
13074TIP3    H260714   1.346   3.344   4.320  0.1462 -0.9280  0.0845
13075TIP3   OH260715   0.840   6.703   3.132  0.2949 -0.4826  0.3436
13075TIP3    H160716   0.795   6.768   3.186 -0.6679 -0.4911 -0.4370
13075TIP3    H260717   0.933   6.726   3.141  0.0162  0.6342  0.5578
13076TIP3   OH260718   6.794   3.128   3.485  0.0293 -0.4029 -0.0340
13076TIP3    H160719   6.840   3.053   3.521  2.0391  0.4516 -0.7198
13076TIP3    H260720   6.849   3.204   3.507 -0.9496  0.6421 -1.0343
13077TIP3   OH260721   2.261   2.991  15.346  0.0591  0.5648 -0.0254
13077TIP3    H160722   2.194   2.927  15.372 -0.2899  1.1125  0.4399
13077TIP3    H260723   2.278   2.972  15.254  0.6747 -0.8436  0.3396
13078TIP3   OH260724   5.848   5.389  16.896 -0.5817 -0.0517 -0.5261
13078TIP3    H160725   5.801   5.359  16.974 -0.0497  2.0272  0.6610
13078TIP3    H260726   5.853   5.311  16.840 -6.0337 -0.3648 -1.1188
13079TIP3   OH260727   2.037   1.634   2.732 -0.7444  0.1668 -0.5356
13079TIP3    H160728   2.120   1.637   2.685  0.1248 -2.2893  0.6601
13079TIP3    H260729   2.019   1.541   2.743 -1.4744  0.5579  2.8250
13080TIP3   OH260730   2.618   1.525   2.656 -0.1447  0.7752 -0.1825
13080TIP3    H160731   2.628   1.445   2.707  1.3359  1.8764  1.3742
13080TIP3    H260732   2.547   1.573   2.700 -0.6479  0.5812 -0.7718
13081TIP3   OH260733   0.375   5.368   1.143  0.0078  0.1915  0.0322
13081TIP3    H160734   0.459   5.331   1.115 -0.0285  0.9757 -1.1706
13081TIP3    H260735   0.393   5.404   1.230  1.2887  1.4640 -0.7134
13082TIP3   OH260736   2.445   1.786   5.052 -0.6866  0.1762  0.0485
13082TIP3    H160737   2.540   1.776   5.056 -0.4215  0.3436 -3.1149
13082TIP3    H260738   2.431   1.850   4.982 -3.1539 -0.3596 -0.0354
13083TIP3   OH260739   0.058   5.983  11.700  0.4514  0.4234  0.2247
13083TIP3    H160740   0.152   5.968  11.706  0.7661  2.2786  0.4639
13083TIP3    H260741   0.020   5.895  11.688  2.1903 -0.3475  0.1121
13084TIP3   OH260742   0.106   1.990  15.345  0.0666  0.6186 -0.4106
13084TIP3    H160743   0.141   2.013  15.431 -1.0085  0.2650  0.1271
13084TIP3    H260744   0.184   1.975  15.292  0.7497  0.1341  0.6865
13085TIP3   OH260745   1.746   2.492  12.651  0.3204 -0.1095 -0.1150
13085TIP3    H160746   1.661   2.470  12.690  0.9694 -0.7993  0.9327
13085TIP3    H260747   1.732   2.578  12.611 -1.2676 -0.8161 -1.1924
13086TIP3   OH260748   4.840   6.758   4.042  0.0474 -0.7348 -0.2354
13086TIP3    H160749   4.867   6.735   4.131 -0.4785 -1.1875 -0.1863
13086TIP3    H260750   4.859   6.851   4.034 -0.0394 -0.6589  0.4010
13087TIP3   OH260751   0.969   5.091   5.262  0.5338  0.6240  0.0497
13087TIP3    H160752   1.062   5.112   5.249  0.6195 -0.4206 -1.1977
13087TIP3    H260753   0.923   5.142   5.196  0.1534  1.4676  0.9429
13088TIP3   OH260754   4.580   3.218   5.486 -0.2519 -0.3747 -0.7191
13088TIP3    H160755   4.647   3.173   5.434 -0.4605  0.5836 -1.8599
13088TIP3    H260756   4.615   3.306   5.499 -1.8056  0.5969 -2.5069
13089TIP3   OH260757   2.231   3.926  15.859 -0.1775  0.2330  0.2905
13089TIP3    H160758   2.225   3.955  15.950 -1.7585 -0.5249  0.4674
13089TIP3    H260759   2.289   3.850  15.862  1.0606  1.1535  0.3892
13090TIP3   OH260760   5.295   2.029   3.601 -0.3013 -0.2559  0.0738
13090TIP3    H160761   5.296   1.938   3.573  1.8920  0.0957 -1.2664
13090TIP3    H260762   5.290   2.079   3.519  0.4561  0.8110  0.6570
13091TIP3   OH260763   3.194   5.738   1.543 -0.0576  0.0512  0.0040
13091TIP3    H160764   3.135   5.680   1.496 -0.9952  0.5773  0.5020
13091TIP3    H260765   3.140   5.776   1.612  0.3106  2.0439 -0.7216
13092TIP3   OH260766   5.274   3.269  11.832 -0.4906 -0.4070  0.1888
13092TIP3    H160767   5.292   3.290  11.923  2.0759  0.3438 -0.3986
13092TIP3    H260768   5.292   3.175  11.826  1.2370 -0.1084  0.1217
13093TIP3   OH260769   6.480   2.017   3.392 -0.3024 -0.1324  0.2111
13093TIP3    H160770   6.438   2.019   3.306 -0.8850  0.3855  0.4997
13093TIP3    H260771   6.430   2.079   3.445 -0.5693 -1.1472  1.2060
13094TIP3   OH260772   4.895   5.135  13.532  0.1695  0.6138 -0.1108
13094TIP3    H160773   4.954   5.175  13.469  0.1993  0.9374  0.1205
13094TIP3    H260774   4.934   5.050  13.552 -0.2921  0.1293 -1.1830
13095TIP3   OH260775   3.656   0.454  11.202  0.1413  0.2691 -0.7062
13095TIP3    H160776   3.582   0.404  11.169 -0.6786  0.3906  0.8552
13095TIP3    H260777   3.693   0.400  11.271  2.0657 -0.1615 -1.9743
13096TIP3   OH260778   5.546   6.580  14.154  0.4787 -0.1644 -0.1691
13096TIP3    H160779   5.494   6.660  14.161  2.0279  0.7923  1.4326
13096TIP3    H260780   5.578   6.580  14.064 -0.9065  0.0776 -0.6954
13097TIP3   OH260781   4.852   3.325  14.374  0.4514 -0.1553 -0.0544
13097TIP3    H160782   4.897   3.380  14.439  0.0764 -0.3386  0.3673
13097TIP3    H260783   4.819   3.251  14.425  0.9695 -0.7843 -0.6247
13098TIP3   OH260784   1.808   3.291   3.182 -0.0825 -0.2053 -0.6594
13098TIP3    H160785   1.775   3.379   3.199  0.2371  0.0311 -1.2204
13098TIP3    H260786   1.878   3.279   3.247 -1.3777 -0.8010  0.6867
13099TIP3   OH260787   5.696   3.270  10.386 -0.1315  0.3138 -0.0405
13099TIP3    H160788   5.768   3.236  10.333 -0.6916  0.2569 -0.7802
13099TIP3    H260789   5.625   3.207  10.373 -0.3712  0.4558  0.5489
13100TIP3   OH260790   2.630   0.646  16.239  0.5203  0.0203  0.1106
13100TIP3    H160791   2.675   0.717  16.285  0.8726 -0.8352  1.1352
13100TIP3    H260792   2.652   0.568  16.290  0.1422 -0.8220 -0.9990
13101TIP3   OH260793   0.865   2.289   4.003 -0.8062 -0.3730 -0.8909
13101TIP3    H160794   0.800   2.253   4.063 -2.3003  0.3946 -1.9995
13101TIP3    H260795   0.872   2.223   3.934  0.7570 -1.1577 -0.0433
13102TIP3   OH260796   4.110   0.103  16.037 -0.4234 -0.1564 -0.5734
13102TIP3    H160797   4.135   0.085  16.127 -0.9952  0.5003 -0.2775
13102TIP3    H260798   4.181   0.158  16.003 -0.8158  0.6516 -0.1235
13103TIP3   OH260799   4.869   1.933   3.513 -0.0132  0.4453  0.5025
13103TIP3    H160800   4.867   1.997   3.441  1.6293 -1.6743 -1.5967
13103TIP3    H260801   4.956   1.943   3.551  0.2941 -0.5349  0.0968
13104TIP3   OH260802   0.451   3.420  14.730 -0.1971 -0.1139 -0.4003
13104TIP3    H160803   0.363   3.404  14.766  0.6788 -1.0229  1.4498
13104TIP3    H260804   0.447   3.384  14.641 -2.3478  1.9154 -1.2500
13105TIP3   OH260805   0.170   1.657   0.946  0.0980 -0.1044  0.3442
13105TIP3    H160806   0.197   1.614   0.865 -0.7824  0.1254 -0.0830
13105TIP3    H260807   0.107   1.724   0.918 -0.9957 -0.7087  1.3133
13106TIP3   OH260808   3.149   4.434   3.144 -0.4912  0.5559  0.2465
13106TIP3    H160809   3.085   4.438   3.073 -0.6157 -0.8579  0.2530
13106TIP3    H260810   3.234   4.425   3.099 -0.4941  0.4240  0.2680
13107TIP3   OH260811   2.227   2.646   1.403 -0.2305 -0.2273 -0.4945
13107TIP3    H160812   2.302   2.591   1.428  0.1952  0.5558 -0.0364
13107TIP3    H260813   2.167   2.641   1.478 -0.8371 -1.1658 -1.0164
13108TIP3   OH260814   1.084   2.664   3.063  0.2782 -0.1409 -0.6457
13108TIP3    H160815   1.118   2.747   3.028  0.5005 -0.3735 -0.9789
13108TIP3    H260816   1.138   2.597   3.022 -0.2636 -0.4845 -0.7883
13109TIP3   OH260817   1.641   5.659   4.640 -0.2118 -0.2985 -0.1304
13109TIP3    H160818   1.698   5.587   4.668 -0.6331  0.0461  1.7680
13109TIP3    H260819   1.557   5.617   4.623  0.0201 -0.4981 -0.8214
13110TIP3   OH260820   2.241   6.372   1.551  0.2841  0.4269 -0.0825
13110TIP3    H160821   2.201   6.417   1.476 -0.6632  0.5013  0.4449
13110TIP3    H260822   2.270   6.288   1.515 -4.7507 -1.8788  0.3181
13111TIP3   OH260823   0.297   1.646  14.481  0.1207 -0.2436 -0.3675
13111TIP3    H160824   0.391   1.661  14.482  0.1774 -0.5373 -1.1357
13111TIP3    H260825   0.281   1.591  14.404 -0.9042  1.3963 -1.4008
13112TIP3   OH260826   2.759   3.438   2.182 -0.0155  0.7548 -0.2816
13112TIP3    H160827   2.766   3.445   2.277  0.9753 -1.9111 -0.0543
13112TIP3    H260828   2.841   3.475   2.150  1.3825 -1.6199  0.2529
13113TIP3   OH260829   4.610   2.236  15.461 -0.3081 -0.0787  0.0101
13113TIP3    H160830   4.577   2.301  15.398  1.5277  1.5125  0.5944
13113TIP3    H260831   4.536   2.218  15.518 -1.5514 -0.3427 -1.6168
13114TIP3   OH260832   4.634   1.216  11.914  0.2492  0.1953 -0.1533
13114TIP3    H160833   4.546   1.236  11.880 -0.0159 -0.2658  0.2422
13114TIP3    H260834   4.639   1.120  11.910  1.9157  0.2631 -3.1377
13115TIP3   OH260835   1.632   4.963  14.649  0.2013  0.0285  0.1948
13115TIP3    H160836   1.707   5.005  14.691  1.4721 -0.7010 -1.2449
13115TIP3    H260837   1.670   4.894  14.595 -1.4681 -0.0495 -0.9692
13116TIP3   OH260838   6.330   0.568  12.174 -0.0155 -0.3741 -0.4334
13116TIP3    H160839   6.400   0.527  12.123 -0.4300 -0.1188 -1.2179
13116TIP3    H260840   6.282   0.494  12.211  1.3522 -0.5516  1.1001
13117TIP3   OH260841   1.360   4.021  15.799 -0.5898  0.3843 -0.0870
13117TIP3    H160842   1.422   4.091  15.780 -1.0710  0.6867 -0.5849
13117TIP3    H260843   1.391   3.947  15.747 -2.0325  1.2733 -2.4069
13118TIP3   OH260844   6.375   4.453   5.772 -0.4615  0.1546 -0.5859
13118TIP3    H160845   6.432   4.477   5.845  1.3960 -0.2168 -1.8591
13118TIP3    H260846   6.350   4.363   5.790 -1.3888  0.5889  0.4133
13119TIP3   OH260847   1.778   1.854   4.284 -0.5338 -0.0356 -0.1366
13119TIP3    H160848   1.845   1.864   4.352  1.5712  0.9464 -2.2029
13119TIP3    H260849   1.716   1.925   4.300  1.2173  1.6587 -0.5703
13120TIP3   OH260850   3.413   3.395  16.303 -0.1000  0.1645 -0.1001
13120TIP3    H160851   3.487   3.339  16.323  1.1707  1.9218  0.3693
13120TIP3    H260852   3.403   3.451  16.381 -0.5909  1.3313 -0.9679
13121TIP3   OH260853   5.414   3.728  15.468  0.3792 -0.2467  0.6336
13121TIP3    H160854   5.384   3.784  15.397 -0.3757  0.2419  1.3207
13121TIP3    H260855   5.507   3.714  15.450  0.6595  1.4700  0.6009
13122TIP3   OH260856   4.396   2.421   2.073 -0.3351 -0.2137 -0.5765
13122TIP3    H160857   4.327   2.354   2.081 -0.4322  0.0650  1.9321
13122TIP3    H260858   4.437   2.404   1.989 -2.4621 -1.3677 -1.4732
13123TIP3   OH260859   6.144   2.210   0.879 -0.5305  0.3596  0.8217
13123TIP3    H160860   6.125   2.220   0.786  1.3413  0.2406  0.3751
13123TIP3    H260861   6.067   2.245   0.924 -1.1185  1.1865 -0.7610
13124TIP3   OH260862   2.365   3.316   0.244 -0.0732  0.3131 -0.0328
13124TIP3    H160863   2.357   3.286   0.153  2.2640 -0.8403  0.0514
13124TIP3    H260864   2.460   3.320   0.259 -0.3783  2.3045  1.8041
13125TIP3   OH260865   2.304   0.741   4.818 -0.2043  0.0472  0.2326
13125TIP3    H160866   2.245   0.700   4.881 -0.5015  1.4902  0.9219
13125TIP3    H260867   2.319   0.829   4.852  1.4115  0.1176 -0.5495
13126TIP3   OH260868   1.102   5.405  15.773 -0.2365 -0.4467  0.1831
13126TIP3    H160869   1.062   5.388  15.859 -0.2022  0.4380  0.3837
13126TIP3    H260870   1.044   5.469  15.732  0.6052  0.3434  0.1986
13127TIP3   OH260871   0.150   1.439   2.491  0.3096  0.6175 -0.4652
13127TIP3    H160872   0.155   1.375   2.562 -1.8256  1.2008  0.2978
13127TIP3    H260873   0.218   1.412   2.429  0.7418 -1.2255  0.7346
13128TIP3   OH260874   4.247   3.043   1.150 -0.3390  0.0457  0.6181
13128TIP3    H160875   4.249   3.113   1.215 -1.4116 -0.0732  0.8035
13128TIP3    H260876   4.335   3.007   1.150 -0.5267 -0.5042  2.6360
13129TIP3   OH260877   0.601   5.778   4.507  0.1864  0.1182  0.4652
13129TIP3    H160878   0.661   5.852   4.492 -1.2617  1.7071  2.0492
13129TIP3    H260879   0.539   5.784   4.434  0.5871 -0.1233  0.0934
13130TIP3   OH260880   4.547   3.636  12.765  0.3571  0.0260 -0.5024
13130TIP3    H160881   4.476   3.594  12.715  0.3118 -0.7574  0.1923
13130TIP3    H260882   4.618   3.572  12.764  0.5497  0.2319 -0.0189
13131TIP3   OH260883   4.154   0.000   4.481  0.6193  0.0405 -0.0916
13131TIP3    H160884   4.059  -0.007   4.472  0.4876  0.2923  0.9904
13131TIP3    H260885   4.175  -0.054   4.557  1.7200 -2.3025 -1.9107
13132TIP3   OH260886   4.480   1.138  13.510 -0.4837  0.0947 -0.0300
13132TIP3    H160887   4.493   1.051  13.470 -1.1721  0.7632 -1.7981
13132TIP3    H260888   4.388   1.159  13.493 -0.2836  1.2398  0.2266
13133TIP3   OH260889   4.807   3.376  12.206 -0.7746 -0.1131 -1.4892
13133TIP3    H160890   4.841   3.387  12.295 -1.7525  1.5217 -1.2814
13133TIP3    H260891   4.854   3.299  12.172  0.6662  0.0854 -0.0821
13134TIP3   OH260892   2.192   0.238  13.276  0.4392  0.2836 -0.1310
13134TIP3    H160893   2.107   0.283  13.274 -0.1614 -0.6645 -3.7247
13134TIP3    H260894   2.179   0.160  13.222  3.3858 -0.3240 -0.1276
13135TIP3   OH260895   4.671   1.196  15.988 -0.7930 -0.1737  0.0146
13135TIP3    H160896   4.623   1.269  16.027  1.5146  0.1895  2.4983
13135TIP3    H260897   4.747   1.185  16.045  0.3551 -2.7920 -1.8431
13136TIP3   OH260898   3.807   5.653  15.111  1.2220 -0.1861  0.3910
13136TIP3    H160899   3.876   5.645  15.177  0.5650 -1.1182  1.0012
13136TIP3    H260900   3.729   5.675  15.162  0.3940 -2.3495  0.1371
13137TIP3   OH260901   3.020   1.069   0.001  0.1288 -0.0934 -0.1758
13137TIP3    H160902   3.082   1.004  -0.032  0.4759  0.0086  0.2730
13137TIP3    H260903   3.066   1.153  -0.009 -0.5488  0.1563 -1.3186
13138TIP3   OH260904   2.538   0.957   2.216 -0.7545 -1.0372  0.4051
13138TIP3    H160905   2.465   0.896   2.200 -1.8841  0.3328  0.1297
13138TIP3    H260906   2.512   1.037   2.171 -0.5072  0.4857  2.7988
13139TIP3   OH260907   0.246   3.346  15.474  0.3664  0.9952 -0.2102
13139TIP3    H160908   0.227   3.326  15.566 -1.1912  0.7291 -0.5635
13139TIP3    H260909   0.341   3.336  15.466  0.2188 -1.8331  0.6883
13140TIP3   OH260910   3.563   4.171   4.058  0.1534 -0.2841 -0.4277
13140TIP3    H160911   3.518   4.153   4.140 -0.7185  2.9935 -0.0625
13140TIP3    H260912   3.642   4.117   4.062 -1.4194 -2.6466  1.0288
13141TIP3   OH260913   3.648   4.005  10.982 -0.0343 -0.6104 -0.0365
13141TIP3    H160914   3.581   3.970  11.041  0.0662 -0.2907  0.2700
13141TIP3    H260915   3.675   3.930  10.929 -2.2356 -0.3216 -1.7285
13142TIP3   OH260916   0.296   3.665   0.637  0.0385 -0.1243  0.1034
13142TIP3    H160917   0.217   3.644   0.687 -0.4960  0.1473 -0.6013
13142TIP3    H260918   0.326   3.581   0.603  0.0409 -0.2268  0.3581
13143TIP3   OH260919   5.949   4.653  12.644 -0.7890 -0.2687 -0.1882
13143TIP3    H160920   5.896   4.727  12.675 -4.0691 -2.3306 -0.4359
13143TIP3    H260921   6.021   4.647  12.707 -1.2164  2.2282  0.6573
13144TIP3   OH260922   0.063   1.436   3.943  0.4210 -0.0166  0.6423
13144TIP3    H160923  -0.008   1.455   3.882  0.6811  2.7468  1.0311
13144TIP3    H260924   0.060   1.342   3.955 -1.2834 -0.3457 -1.6151
13145TIP3   OH260925   2.343   1.879  15.448 -0.1615 -0.0605 -0.0538
13145TIP3    H160926   2.330   1.974  15.441 -0.6598 -0.2034 -1.3384
13145TIP3    H260927   2.264   1.841  15.410  1.1517 -0.9808 -2.0099
13146TIP3   OH260928   1.531   4.225  12.918  0.0451 -0.2935  0.1066
13146TIP3    H160929   1.620   4.211  12.950  0.7394  1.1131 -1.1169
13146TIP3    H260930   1.537   4.216  12.823 -0.9460  0.6013 -0.0633
13147TIP3   OH260931   3.105   3.327   4.893  0.0411 -0.5479 -0.0306
13147TIP3    H160932   3.104   3.256   4.829 -0.2928 -1.3059  0.8008
13147TIP3    H260933   3.156   3.397   4.850 -0.4958 -0.8838 -1.2612
13148TIP3   OH260934   6.630   4.628  14.098  0.0199  0.0359 -0.3628
13148TIP3    H160935   6.593   4.555  14.047 -1.3287 -0.8337  1.7351
13148TIP3    H260936   6.561   4.694  14.096 -0.0559 -0.0179  0.3170
13149TIP3   OH260937   1.283   1.284  13.046 -0.0770  0.5488  0.1162
13149TIP3    H160938   1.248   1.336  12.974 -1.1415 -0.6614 -0.2586
13149TIP3    H260939   1.207   1.241  13.085  0.6983 -0.2334  0.8147
13150TIP3   OH260940   2.829   3.289  15.709 -0.5608 -0.0666  0.1600
13150TIP3    H160941   2.816   3.339  15.789  2.5689  0.0506  0.6934
13150TIP3    H260942   2.856   3.202  15.738 -0.7056 -0.4507 -0.7893
13151TIP3   OH260943   3.424   3.626  14.805  0.4560 -0.5685  0.1635
13151TIP3    H160944   3.387   3.653  14.889 -0.8834 -2.1189  0.1179
13151TIP3    H260945   3.441   3.533  14.815 -1.2117 -1.1526 -1.7535
13152TIP3   OH260946   1.443   6.438  16.674 -0.0276  0.4553 -0.1497
13152TIP3    H160947   1.465   6.392  16.594  0.9704  2.2968 -0.9973
13152TIP3    H260948   1.347   6.444  16.674 -0.1069 -0.6762 -0.5193
13153TIP3   OH260949   1.500   5.488   0.905 -0.6761  0.0543 -0.3614
13153TIP3    H160950   1.534   5.464   0.992 -2.5157 -1.5490 -0.0259
13153TIP3    H260951   1.495   5.405   0.857  1.9694  1.0859 -2.7341
13154TIP3   OH260952   3.468   0.770   4.717 -0.2765  0.1421  0.3255
13154TIP3    H160953   3.412   0.694   4.734 -0.9302  0.3137 -0.9550
13154TIP3    H260954   3.441   0.834   4.785  0.3627 -0.7800  1.4779
13155TIP3   OH260955   4.051   5.375   2.609 -0.9074  0.2130 -0.0194
13155TIP3    H160956   4.049   5.458   2.658 -0.4927  0.5008 -0.4808
13155TIP3    H260957   3.985   5.320   2.652  1.2533 -0.5445  2.6609
13156TIP3   OH260958   1.672   5.020  15.896  0.3421  0.4213 -0.1128
13156TIP3    H160959   1.713   5.078  15.960 -1.3057  2.2171 -0.5795
13156TIP3    H260960   1.586   5.059  15.880 -0.6234 -1.8406 -0.9365
13157TIP3   OH260961   2.021   5.770   1.377 -1.0323 -0.8917 -1.0533
13157TIP3    H160962   1.961   5.696   1.385 -0.8214 -0.9020  0.7035
13157TIP3    H260963   2.009   5.820   1.458  0.1637 -0.0085 -1.3958
13158TIP3   OH260964   4.073   0.498  11.389  0.8415  0.4787 -0.1368
13158TIP3    H160965   4.155   0.481  11.436  1.5202  1.6315 -0.8474
13158TIP3    H260966   4.078   0.445  11.310 -0.0942 -1.1011  0.7980
13159TIP3   OH260967   2.237   4.595  15.220 -0.1951 -0.6579 -0.3085
13159TIP3    H160968   2.173   4.602  15.148  0.6512 -0.1168 -1.0241
13159TIP3    H260969   2.279   4.510  15.206 -0.0354 -0.5558 -0.4543
13160TIP3   OH260970   2.681   5.920   0.044  0.0987 -0.3453  0.6168
13160TIP3    H160971   2.624   5.855   0.086 -0.1500  0.5561  1.7166
13160TIP3    H260972   2.764   5.913   0.091  0.1059  0.0667  0.6629
13161TIP3   OH260973   4.634   4.807   2.624 -0.2893  0.0262 -0.5840
13161TIP3    H160974   4.646   4.721   2.585  1.2104  0.1313 -0.3943
13161TIP3    H260975   4.571   4.851   2.566  0.3379 -0.5440 -1.7289
13162TIP3   OH260976   0.098   2.444  12.907 -0.2044 -0.1355  0.6105
13162TIP3    H160977   0.108   2.539  12.896  1.1598 -0.2481  0.7371
13162TIP3    H260978   0.019   2.435  12.961 -1.1057  0.8544 -0.4582
13163TIP3   OH260979   2.860   4.376  13.392 -0.3129  0.4435 -0.1790
13163TIP3    H160980   2.799   4.385  13.465  0.6135 -0.9676  0.8329
13163TIP3    H260981   2.946   4.393  13.430  0.1945 -0.3142 -0.9396
13164TIP3   OH260982   0.526   0.340  10.457  0.0929 -0.6237  0.0273
13164TIP3    H160983   0.549   0.373  10.544 -0.3182  1.0665 -0.4709
13164TIP3    H260984   0.442   0.382  10.437  0.2803 -0.8168 -1.2681
13165TIP3   OH260985   3.868   1.649  12.361 -0.0584  0.1543 -0.4703
13165TIP3    H160986   3.860   1.555  12.345 -0.0007  0.1255 -0.3330
13165TIP3    H260987   3.885   1.656  12.455 -0.8031  0.3358 -0.3366
13166TIP3   OH260988   5.099   3.088   4.499 -0.0943  0.1401 -0.6892
13166TIP3    H160989   5.014   3.133   4.499 -0.6797 -0.8365  1.1015
13166TIP3    H260990   5.156   3.145   4.551 -0.3557 -0.3556  0.1521
13167TIP3   OH260991   2.155   4.698  15.673  0.0065 -0.0537  0.4185
13167TIP3    H160992   2.136   4.611  15.708  0.0908  0.0801  0.8049
13167TIP3    H260993   2.191   4.746  15.748  0.0217  0.2920  0.1894
13168TIP3   OH260994   2.438   4.974   5.844  0.2025  0.4104  0.1258
13168TIP3    H160995   2.498   5.040   5.879 -1.0681  0.8702  1.5396
13168TIP3    H260996   2.379   4.955   5.916 -0.5207 -1.0283 -0.8099
13169TIP3   OH260997   1.995   5.490   2.507  0.6844 -0.1426 -0.1124
13169TIP3    H160998   2.035   5.418   2.460  2.8938  1.6029 -1.0694
13169TIP3    H260999   1.940   5.534   2.442 -0.3680 -0.7008  0.3719
13170TIP3   OH261000   4.052   2.842   1.036 -0.0361 -0.2573 -0.4650
13170TIP3    H161001   4.126   2.898   1.059 -0.6128  0.5256 -0.4327
13170TIP3    H261002   4.079   2.797   0.956  0.2486  0.4691 -0.7852
13171TIP3   OH261003   4.146   2.134  11.004  0.1987  0.1940 -0.2766
13171TIP3    H161004   4.215   2.068  11.014  0.5812  0.6565  0.1727
13171TIP3    H261005   4.143   2.152  10.910  1.5017  1.0227 -0.1874
13172TIP3   OH261006   1.006   3.710  11.896 -0.3930 -0.6034 -0.6521
13172TIP3    H161007   1.031   3.644  11.831 -1.6174 -0.0814 -1.7075
13172TIP3    H261008   0.951   3.662  11.958 -1.1949 -0.6159 -1.3568
13173TIP3   OH261009   6.368   2.510   5.380  0.4571 -0.4552 -0.3195
13173TIP3    H161010   6.357   2.595   5.338 -0.1074 -0.2938  0.1367
13173TIP3    H261011   6.296   2.456   5.346 -0.0529 -0.2983  0.4757
13174TIP3   OH261012   6.772   2.641  16.038 -0.1596  0.2466  0.0409
13174TIP3    H161013   6.863   2.666  16.058  0.0826 -1.4115  1.2075
13174TIP3    H261014   6.746   2.587  16.112 -1.4546 -0.9015 -1.2017
13175TIP3   OH261015   1.602   2.724  15.523  0.5927  0.3121 -0.4417
13175TIP3    H161016   1.641   2.691  15.604  0.2877  0.3829 -0.2623
13175TIP3    H261017   1.571   2.646  15.478 -0.0952  0.3347 -0.0345
13176TIP3   OH261018   3.041   0.634   5.528  0.1737 -0.5127 -0.2957
13176TIP3    H161019   3.032   0.669   5.617 -1.0588  1.5575 -1.1532
13176TIP3    H261020   3.081   0.705   5.479 -0.3562 -1.1287 -1.6595
13177TIP3   OH261021   0.185   0.315   3.640  1.2621 -0.4979 -0.1630
13177TIP3    H161022   0.122   0.258   3.685 -1.9360  1.5124 -1.6941
13177TIP3    H261023   0.163   0.403   3.671  3.3936  0.3254 -0.8050
13178TIP3   OH261024   1.887   4.877  10.935 -0.0987  0.2522 -0.0690
13178TIP3    H161025   1.805   4.882  10.885  0.6756  1.2866 -1.2794
13178TIP3    H261026   1.890   4.959  10.984  0.0687  0.0763  0.2187
13179TIP3   OH261027   4.156   5.596  16.661 -0.1681 -0.5805  0.2266
13179TIP3    H161028   4.099   5.638  16.596 -1.0109 -0.8196  0.7818
13179TIP3    H261029   4.238   5.645  16.657  0.0210 -0.9968 -1.4537
13180TIP3   OH261030   1.799   2.301  12.462  0.3443 -0.3758 -0.2098
13180TIP3    H161031   1.793   2.214  12.500 -0.6166  0.0314  0.6085
13180TIP3    H261032   1.783   2.361  12.535  2.5816  0.5666 -0.4133
13181TIP3   OH261033   1.226   0.792  10.673 -0.9390  0.0096 -0.6644
13181TIP3    H161034   1.242   0.708  10.718 -3.5665  0.7505  2.0148
13181TIP3    H261035   1.269   0.783  10.588 -0.5021 -3.7640 -0.2049
13182TIP3   OH261036   3.046   5.684   6.289 -0.0521 -0.2161  0.0599
13182TIP3    H161037   3.032   5.589   6.281  1.5990 -0.5192  0.4577
13182TIP3    H261038   2.965   5.716   6.330 -1.2012 -1.2233 -1.3240
13183TIP3   OH261039   1.876   5.870  15.144  0.1203  0.0452  0.1515
13183TIP3    H161040   1.888   5.783  15.182  0.4901 -0.4550 -1.0470
13183TIP3    H261041   1.800   5.860  15.087 -0.8420  0.9571  1.2321
13184TIP3   OH261042   3.709   1.324   3.126 -0.8954 -0.0283 -0.4329
13184TIP3    H161043   3.755   1.257   3.075  0.0956  0.7609 -0.6118
13184TIP3    H261044   3.696   1.284   3.212  2.8384  0.6900  0.6624
13185TIP3   OH261045   2.387   0.237   1.231 -0.1527 -0.0137 -0.1382
13185TIP3    H161046   2.330   0.273   1.299 -0.1612  0.0979 -0.2040
13185TIP3    H261047   2.474   0.270   1.253 -0.0629 -0.4286  0.1330
13186TIP3   OH261048   5.064   1.302  11.121 -0.1415 -0.1653  0.4600
13186TIP3    H161049   5.013   1.223  11.102 -2.6528  1.6676 -1.1255
13186TIP3    H261050   5.079   1.342  11.035 -1.3124  2.3932  1.3516
13187TIP3   OH261051   6.521   2.125   4.662  0.2692  0.2957 -0.1847
13187TIP3    H161052   6.520   2.037   4.700  1.9089  0.5471  0.5420
13187TIP3    H261053   6.446   2.169   4.701  1.0260  0.0590  1.6233
13188TIP3   OH261054   0.228   1.444  10.244 -0.0199  0.7588 -0.2839
13188TIP3    H161055   0.233   1.539  10.239  1.3004  0.7555  0.4390
13188TIP3    H261056   0.273   1.413  10.166  1.5417  0.7560  0.5690
13189TIP3   OH261057   4.217   4.885  16.509  0.6623  1.0040 -0.2530
13189TIP3    H161058   4.227   4.904  16.603 -0.0086  0.4700 -0.0718
13189TIP3    H261059   4.296   4.923  16.469  1.6956 -0.0505  0.7021
13190TIP3   OH261060   6.574   3.297  16.064 -0.0648 -0.3525  0.0675
13190TIP3    H161061   6.517   3.374  16.057  0.3754  0.0534  0.7710
13190TIP3    H261062   6.548   3.257  16.147 -1.3617 -1.8646 -1.0139
13191TIP3   OH261063   5.088   0.689   1.524 -0.2905 -0.7384 -0.2830
13191TIP3    H161064   5.144   0.649   1.457 -0.7940  0.3334 -1.3674
13191TIP3    H261065   5.109   0.782   1.521 -0.9783 -0.5486  0.4332
13192TIP3   OH261066   4.022   1.533  11.663  0.2607 -0.1925 -0.1763
13192TIP3    H161067   4.113   1.562  11.665  0.0321  0.5343  1.5845
13192TIP3    H261068   3.983   1.570  11.742 -0.8733 -2.7186  0.5719
13193TIP3   OH261069   2.128   4.988   5.115  0.1910  0.8029 -0.0003
13193TIP3    H161070   2.192   5.032   5.171  0.1895  0.3784  0.3398
13193TIP3    H261071   2.076   4.936   5.175  0.4386  0.0376 -0.4431
13194TIP3   OH261072   3.764   4.667   3.737  0.0808  0.3120 -0.0117
13194TIP3    H161073   3.681   4.690   3.694  0.0186 -0.9359 -0.6177
13194TIP3    H261074   3.805   4.751   3.756 -1.9506  1.0372  1.5933
13195TIP3   OH261075   3.439   0.972   2.023 -0.5596 -0.0887  0.2279
13195TIP3    H161076   3.493   0.991   2.100 -2.5062  0.2581  1.5687
13195TIP3    H261077   3.446   1.051   1.969  0.3939 -0.1210  0.2936
13196TIP3   OH261078   6.590   1.877   6.204 -0.1350 -0.0994 -0.1124
13196TIP3    H161079   6.657   1.941   6.178 -0.7263  0.4431 -0.3288
13196TIP3    H261080   6.560   1.838   6.122 -1.1408  0.7432 -0.1699
13197TIP3   OH261081   5.717   3.294   2.079  0.6525 -0.8600 -0.3952
13197TIP3    H161082   5.735   3.216   2.026  0.4865 -1.1218 -0.0717
13197TIP3    H261083   5.623   3.290   2.096  0.5644 -0.3546 -0.7380
13198TIP3   OH261084   6.275   0.842   3.187  0.5435 -0.3434 -0.7446
13198TIP3    H161085   6.325   0.767   3.156  0.6211 -0.1276 -1.1515
13198TIP3    H261086   6.237   0.813   3.270  2.4779 -0.0310  0.2975
13199TIP3   OH261087   0.608   6.015  13.726 -0.1054  0.2033 -0.6265
13199TIP3    H161088   0.674   5.963  13.679 -0.0867 -1.5404  1.1840
13199TIP3    H261089   0.531   6.014  13.668  0.4978 -0.2713 -1.4416
13200TIP3   OH261090   3.108   4.942   4.983  0.0096  0.3208  0.0380
13200TIP3    H161091   3.093   5.009   5.049 -1.8189  0.0450 -0.0384
13200TIP3    H261092   3.188   4.969   4.938 -0.0068  1.7660  0.8313
13201TIP3   OH261093   2.276   2.259  15.893  0.7247  0.0610 -0.0384
13201TIP3    H161094   2.261   2.283  15.984  1.2930 -1.9294  0.6449
13201TIP3    H261095   2.189   2.236  15.860  0.6514 -0.2119  0.3344
13202TIP3   OH261096   2.234   4.016  12.872 -0.0677 -0.3335 -0.1575
13202TIP3    H161097   2.291   3.945  12.846 -0.4153  0.0523 -2.1346
13202TIP3    H261098   2.248   4.084  12.806 -1.3273  0.5597  0.4447
13203TIP3   OH261099   6.529   1.698  11.031 -0.7354  0.5272 -0.4078
13203TIP3    H161100   6.543   1.617  11.080 -1.8117 -0.8013 -2.1830
13203TIP3    H261101   6.617   1.725  11.003 -0.4181 -0.3088 -0.2341
13204TIP3   OH261102   4.296   1.677   0.668  0.0630  0.6633 -0.0058
13204TIP3    H161103   4.356   1.686   0.594  0.6422 -1.0045  0.2318
13204TIP3    H261104   4.348   1.699   0.745 -0.4682  2.1298 -0.0277
13205TIP3   OH261105   5.222   2.902   2.676  0.0320 -0.2856 -0.0285
13205TIP3    H161106   5.250   2.821   2.720 -1.2514 -0.6965  0.0977
13205TIP3    H261107   5.134   2.918   2.711 -0.6880 -0.1560 -1.8291
13206TIP3   OH261108   4.474   3.959  16.479 -0.5898 -0.5508  0.3853
13206TIP3    H161109   4.430   3.895  16.535 -1.2041  0.6923  1.3756
13206TIP3    H261110   4.496   4.031  16.538  0.7366 -0.1354 -0.5536
13207TIP3   OH261111   5.122   3.167  16.741  0.1435  0.1199 -0.2389
13207TIP3    H161112   5.209   3.128  16.749  0.7482  1.6731  1.4903
13207TIP3    H261113   5.079   3.147  16.824 -1.1381 -0.5707 -1.0513
13208TIP3   OH261114   1.730   2.577   6.171  0.2154 -0.0667  0.0926
13208TIP3    H161115   1.813   2.616   6.145  0.3391 -0.0400  0.5116
13208TIP3    H261116   1.753   2.518   6.243  0.0139 -0.8006 -0.4208
13209TIP3   OH261117   0.378   5.744   3.927 -0.3430 -0.4634  0.5993
13209TIP3    H161118   0.458   5.724   3.975  0.4290  0.4371 -0.2701
13209TIP3    H261119   0.391   5.832   3.894 -2.2916  0.2717  1.5983
13210TIP3   OH261120   0.416   1.967  12.758 -0.2800  0.2582  0.4315
13210TIP3    H161121   0.408   1.956  12.663 -0.5088  1.0548  0.3517
13210TIP3    H261122   0.439   2.059  12.770  1.4898 -0.2260  1.0604
13211TIP3   OH261123   0.912   3.919  10.770 -0.4155  0.5638 -0.3292
13211TIP3    H161124   1.002   3.929  10.739 -0.4855  0.9888 -0.3983
13211TIP3    H261125   0.861   3.903  10.691 -0.4134  0.4216 -0.3014
13212TIP3   OH261126   4.165   5.966   6.498  0.1637  0.4465 -0.8035
13212TIP3    H161127   4.090   6.014   6.464  0.3011  0.2344 -1.4226
13212TIP3    H261128   4.138   5.936   6.585  0.0732  1.6141 -0.4186
13213TIP3   OH261129   6.760   2.731   3.979  0.4185  0.0019  0.4788
13213TIP3    H161130   6.768   2.826   3.976 -2.2256  0.3075  0.4696
13213TIP3    H261131   6.681   2.716   4.031  1.8791 -2.3018  2.2263
13214TIP3   OH261132   5.325   4.964   0.412  0.0330 -0.0970 -0.1244
13214TIP3    H161133   5.409   4.928   0.438 -0.2302 -0.0856  0.7727
13214TIP3    H261134   5.292   4.904   0.345 -0.3893 -1.5431  1.3151
13215TIP3   OH261135   1.430   1.920  10.458 -0.0719  0.4586 -0.0096
13215TIP3    H161136   1.413   1.952  10.546  0.2567  1.3056 -0.2391
13215TIP3    H261137   1.524   1.904  10.456 -0.4057 -1.8055  0.4943
13216TIP3   OH261138   4.516   4.793  11.799  0.2006  0.6500 -0.4492
13216TIP3    H161139   4.460   4.715  11.794  0.9632 -0.0337  0.9419
13216TIP3    H261140   4.599   4.765  11.762  0.3428  0.9359 -0.3491
13217TIP3   OH261141   2.120   4.049  15.308  0.5866  0.6862 -0.0016
13217TIP3    H161142   2.164   4.131  15.328  0.1434  0.7341  0.8013
13217TIP3    H261143   2.130   3.995  15.387  1.7015 -0.4076 -0.8522
13218TIP3   OH261144   4.085   3.456  17.018  0.3641 -0.4234  0.6285
13218TIP3    H161145   4.131   3.445  17.102  1.6118 -1.1787 -0.1205
13218TIP3    H261146   3.993   3.469  17.042  0.7438 -0.3374  2.1229
13219TIP3   OH261147   1.296   5.016  16.871 -0.4215  1.1196  0.1118
13219TIP3    H161148   1.370   5.055  16.824 -1.2727  1.6001 -0.8634
13219TIP3    H261149   1.278   4.934  16.824  1.3525 -0.5680  2.1447
13220TIP3   OH261150   5.861   4.220   2.790  0.7652 -0.0867  0.1342
13220TIP3    H161151   5.773   4.255   2.801  1.5249  1.5428  1.5002
13220TIP3    H261152   5.915   4.273   2.848  2.6976 -0.8846 -0.8475
13221TIP3   OH261153   1.211   0.962  16.528  0.8122  1.2946 -0.2860
13221TIP3    H161154   1.159   1.015  16.589  0.4649 -0.8829  1.4519
13221TIP3    H261155   1.149   0.898  16.493  2.1435 -1.4950  1.9841
13222TIP3   OH261156   5.043   6.116   3.460  0.1203  0.1287  0.6685
13222TIP3    H161157   5.124   6.167   3.457 -0.5148  1.1225 -1.0699
13222TIP3    H261158   4.986   6.165   3.519  0.3316  0.1391  0.8658
13223TIP3   OH261159   6.783   0.408  12.336 -0.0797  0.4147 -0.3677
13223TIP3    H161160   6.694   0.373  12.348  0.2594 -0.0458  0.8640
13223TIP3    H261161   6.769   0.493  12.294 -1.1381  0.5699  0.2588
13224TIP3   OH261162   0.717   0.209   6.423  0.0203  0.4788  0.7456
13224TIP3    H161163   0.664   0.289   6.431 -0.1357  0.2204  2.8429
13224TIP3    H261164   0.705   0.181   6.332  0.8325  3.3320 -0.3592
13225TIP3   OH261165   0.577   3.463  13.993  0.0447 -0.8043 -0.0214
13225TIP3    H161166   0.524   3.405  14.047  1.2046 -1.4287  0.4811
13225TIP3    H261167   0.522   3.482  13.917 -1.7600  0.3785  1.4925
13226TIP3   OH261168   5.902   4.271  13.893 -0.1226  0.2190  0.2210
13226TIP3    H161169   5.812   4.253  13.867 -0.6264  1.1662  1.2602
13226TIP3    H261170   5.955   4.241  13.818 -1.2240 -1.0496 -0.0861
13227TIP3   OH261171   6.308   6.814  15.547  0.5970 -0.5439 -0.1376
13227TIP3    H161172   6.345   6.737  15.591 -0.5254 -1.2577 -0.4172
13227TIP3    H261173   6.214   6.806  15.561  0.5740  2.1846  2.0938
13228TIP3   OH261174   1.537   6.200  11.806 -0.2313  0.3152  0.2258
13228TIP3    H161175   1.518   6.274  11.865 -1.8512  0.9333 -1.0051
13228TIP3    H261176   1.501   6.227  11.722 -1.0175 -1.9535 -0.2297
13229TIP3   OH261177   4.043   1.250  15.900 -0.1056 -0.5553 -0.1840
13229TIP3    H161178   4.063   1.226  15.991  1.9704  0.0414 -0.4365
13229TIP3    H261179   4.005   1.171  15.863  0.6476 -1.3827  0.7378
13230TIP3   OH261180   3.526   1.594   4.934 -0.0573 -0.1278  0.1029
13230TIP3    H161181   3.441   1.565   4.967  0.3488 -3.3896 -1.3399
13230TIP3    H261182   3.531   1.559   4.845  3.2050 -1.0934  0.5305
13231TIP3   OH261183   2.613   5.499   4.374  0.6059 -0.2799  0.6336
13231TIP3    H161184   2.601   5.589   4.405 -1.7200 -0.7650  1.3553
13231TIP3    H261185   2.547   5.449   4.422 -0.9462 -1.6768 -2.6431
13232TIP3   OH261186   2.228   2.289  16.407  0.1288  0.8476 -0.8115
13232TIP3    H161187   2.265   2.202  16.392  1.0394  0.9603  0.5974
13232TIP3    H261188   2.229   2.299  16.502 -0.6883  2.1006 -0.9166
13233TIP3   OH261189   2.321   5.803  16.265  0.1444 -0.3737  0.1440
13233TIP3    H161190   2.240   5.844  16.234  0.0892  0.7841  1.6785
13233TIP3    H261191   2.390   5.844  16.214 -0.1860 -0.9752 -0.7975
13234TIP3   OH261192   2.446   6.426   4.746  0.1146  0.0378 -0.2263
13234TIP3    H161193   2.441   6.362   4.675 -0.1394 -1.6775  1.2629
13234TIP3    H261194   2.472   6.375   4.823 -1.6500  1.4124  1.3802
13235TIP3   OH261195   6.520   5.994   2.452 -0.3711  0.4531  0.2846
13235TIP3    H161196   6.507   6.088   2.462  1.0806  0.5914  1.3281
13235TIP3    H261197   6.495   5.957   2.537  0.2021  0.0604  0.2932
13236TIP3   OH261198   0.463   5.717   2.871 -0.2541  0.0632  0.4509
13236TIP3    H161199   0.450   5.746   2.961  1.5429 -1.4328  1.2510
13236TIP3    H261200   0.450   5.795   2.818  0.1760  1.3280  2.1379
13237TIP3   OH261201   1.375   3.055   0.944 -0.3031 -0.0073  0.2596
13237TIP3    H161202   1.392   3.148   0.932  1.0413 -0.4023 -1.3463
13237TIP3    H261203   1.440   3.026   1.008 -1.0858  0.2323  1.1903
13238TIP3   OH261204   0.648   5.236  13.084  0.1463 -0.0206  0.0739
13238TIP3    H161205   0.620   5.320  13.122 -0.0389 -0.9281  2.0911
13238TIP3    H261206   0.575   5.177  13.101  0.7703 -0.8910 -0.2071
13239TIP3   OH261207   0.866   0.108  14.509 -0.0466  0.0910  0.1713
13239TIP3    H161208   0.780   0.082  14.540  0.7974 -1.3416  1.4550
13239TIP3    H261209   0.875   0.200  14.536 -1.5807  0.6541 -1.0420
13240TIP3   OH261210   6.381   6.058  16.761 -0.3678  0.6055  0.2730
13240TIP3    H161211   6.423   6.109  16.691 -2.1018  0.4555 -0.9493
13240TIP3    H261212   6.300   6.107  16.780 -1.8824 -1.4022 -0.6475
13241TIP3   OH261213   5.383   2.026  12.166 -0.0292 -0.0492  0.0883
13241TIP3    H161214   5.401   1.947  12.216 -0.4329 -0.0758  0.1992
13241TIP3    H261215   5.468   2.069  12.156  0.1252 -0.2866  0.3827
13242TIP3   OH261216   1.554   0.627  15.130 -0.4900  0.2342 -0.2099
13242TIP3    H161217   1.463   0.619  15.102 -0.6166  0.2125  0.2010
13242TIP3    H261218   1.572   0.545  15.176  0.0254 -0.1568 -1.0890
13243TIP3   OH261219   0.791   3.830  10.537  0.2332  0.1787 -0.3488
13243TIP3    H161220   0.746   3.857  10.456 -0.1595 -0.0788 -0.2190
13243TIP3    H261221   0.724   3.782  10.586  0.2541  0.9472  0.4500
13244TIP3   OH261222   5.668   0.965  11.409  0.2328 -0.3507  0.3517
13244TIP3    H161223   5.736   0.990  11.472 -1.5755 -1.2476  2.8525
13244TIP3    H261224   5.585   0.984  11.455 -1.1880 -3.1549 -0.8145
13245TIP3   OH261225   0.328   2.164   4.246  0.3319  0.3526  0.3657
13245TIP3    H161226   0.348   2.074   4.221  0.8489  0.7902 -0.8799
13245TIP3    H261227   0.289   2.203   4.167  0.8531  1.4401  0.6191
13246TIP3   OH261228   3.356   5.176   3.433  0.2539 -0.7025  0.0996
13246TIP3    H161229   3.421   5.152   3.367 -0.6029  2.8062 -2.2744
13246TIP3    H261230   3.276   5.193   3.383 -0.8158  0.8166  2.1998
13247TIP3   OH261231   3.361   0.316  16.496 -0.0058  0.0600 -0.4171
13247TIP3    H161232   3.450   0.335  16.468  0.0375 -0.3992 -0.5974
13247TIP3    H261233   3.309   0.316  16.415 -0.1126  0.0237 -0.3496
13248TIP3   OH261234   6.819   1.607   0.053 -0.1465  0.4273  0.5690
13248TIP3    H161235   6.784   1.581   0.138 -1.4844  0.4847  0.0503
13248TIP3    H261236   6.914   1.610   0.066 -0.3723  1.1219  2.2495
13249TIP3   OH261237   5.250   0.396  13.046  0.0904 -0.0830  0.9195
13249TIP3    H161238   5.228   0.335  13.117 -0.0340  0.7700  1.6305
13249TIP3    H261239   5.305   0.462  13.088 -0.4045  0.7146  0.3358
13250TIP3   OH261240   3.717   2.480   4.447  0.1329 -0.4727  0.0457
13250TIP3    H161241   3.808   2.500   4.425  0.5306 -1.8857  0.3328
13250TIP3    H261242   3.722   2.405   4.506 -1.1259  0.6726  1.7153
13251TIP3   OH261243   2.602   1.608  12.422 -0.3856  0.4693 -0.4238
13251TIP3    H161244   2.556   1.588  12.504 -1.3381  1.0787 -0.7927
13251TIP3    H261245   2.575   1.538  12.362  0.8919 -0.4040 -0.0342
13252TIP3   OH261246   4.992   3.974  15.485 -0.0519 -0.0202  0.3935
13252TIP3    H161247   4.973   4.066  15.499 -0.7093 -0.4880  3.1226
13252TIP3    H261248   5.072   3.957  15.536  0.4379 -0.8274 -0.6053
13253TIP3   OH261249   3.511   0.215  11.719 -0.3860 -0.4746  0.2865
13253TIP3    H161250   3.442   0.274  11.688  0.0122  0.6488  1.4607
13253TIP3    H261251   3.496   0.206  11.813 -0.2448 -2.0253  0.1877
13254TIP3   OH261252   0.016   2.766   6.440  0.1039 -0.3300  0.2080
13254TIP3    H161253  -0.074   2.763   6.473 -0.1771 -0.9222 -0.5920
13254TIP3    H261254   0.052   2.848   6.476  0.4822 -1.8334  3.6489
13255TIP3   OH261255   0.911   1.064   3.073  0.3053  0.3109  0.1430
13255TIP3    H161256   0.951   1.023   3.150 -0.1509 -0.7546 -0.1737
13255TIP3    H261257   0.965   1.141   3.056  1.1896 -0.1593  0.7483
13256TIP3   OH261258   0.479   5.494  14.863  0.0542  0.0529 -0.5639
13256TIP3    H161259   0.551   5.431  14.861 -0.1543 -0.1748 -1.1815
13256TIP3    H261260   0.403   5.443  14.888  0.0328  0.2210 -0.2775
13257TIP3   OH261261   4.237   4.645  15.458  1.0609  0.0364  0.5007
13257TIP3    H161262   4.175   4.612  15.522  0.5838 -0.2777 -0.1091
13257TIP3    H261263   4.200   4.728  15.428  1.0855 -0.0095  0.3439
13258TIP3   OH261264   0.835   1.466   2.715 -0.4928  0.1531  0.1760
13258TIP3    H161265   0.835   1.524   2.639 -1.9526 -0.5826 -0.4187
13258TIP3    H261266   0.842   1.378   2.678  0.8417 -0.1264  1.0264
13259TIP3   OH261267   3.129   4.667   5.223 -0.4705  0.6362  0.0704
13259TIP3    H161268   3.165   4.692   5.308  0.4489  0.2271 -0.1756
13259TIP3    H261269   3.187   4.596   5.194 -0.4086  1.1742 -1.1569
13260TIP3   OH261270   2.160   4.257  14.537  0.1469 -0.2192  0.3014
13260TIP3    H161271   2.146   4.306  14.618  1.4970 -0.2308  0.5634
13260TIP3    H261272   2.085   4.281  14.482 -1.0962 -0.6587  1.7376
13261TIP3   OH261273   1.544   1.834   1.201  0.7641 -0.1684 -0.2278
13261TIP3    H161274   1.483   1.761   1.186  2.9091 -1.9960 -0.6472
13261TIP3    H261275   1.517   1.901   1.138 -0.2768 -1.2533 -0.9814
13262TIP3   OH261276   0.622   6.670  14.272 -0.4528 -0.5106  0.3131
13262TIP3    H161277   0.650   6.590  14.226 -2.9852 -2.4314  1.8617
13262TIP3    H261278   0.660   6.662  14.359 -0.5780  0.0898  0.4277
13263TIP3   OH261279   4.880   4.059  13.045 -0.1561  0.6436  1.0156
13263TIP3    H161280   4.917   3.973  13.025 -1.9646 -0.1911  1.0905
13263TIP3    H261281   4.910   4.115  12.973  0.1298 -0.3170  0.3649
13264TIP3   OH261282   0.787   2.313  13.709 -0.0851 -0.0604  0.1160
13264TIP3    H161283   0.776   2.297  13.803  0.8585 -2.0842 -0.0799
13264TIP3    H261284   0.767   2.229  13.668 -0.4177  0.7861 -1.5051
13265TIP3   OH261285   6.504   2.036  15.166  0.0005 -0.2276 -0.2388
13265TIP3    H161286   6.478   2.099  15.098 -0.3663 -1.0257 -0.8535
13265TIP3    H261287   6.558   1.972  15.120 -0.0843 -0.6634  0.2668
13266TIP3   OH261288   2.314   5.900   4.322 -0.0440 -0.0030 -0.3154
13266TIP3    H161289   2.236   5.856   4.355 -0.9529  1.9924  0.3525
13266TIP3    H261290   2.282   5.983   4.288  2.0141  2.1201  2.4293
13267TIP3   OH261291   4.336   4.197  16.313  0.3296  0.3009 -0.2405
13267TIP3    H161292   4.378   4.121  16.353 -1.3407 -0.9170 -0.6783
13267TIP3    H261293   4.399   4.229  16.249  0.2776 -2.0373 -1.5571
13268TIP3   OH261294   3.656   3.364  10.881  0.0301  0.0811  0.4909
13268TIP3    H161295   3.715   3.379  10.807 -0.1718  1.4440  0.5846
13268TIP3    H261296   3.573   3.404  10.854 -0.9304 -1.8819  0.3220
13269TIP3   OH261297   2.692   1.219   0.435 -0.5007 -0.0667 -0.1109
13269TIP3    H161298   2.660   1.289   0.492 -0.5085  0.9740 -1.3537
13269TIP3    H261299   2.777   1.195   0.472 -1.4424 -0.9372  1.5991
13270TIP3   OH261300   1.787   5.721  14.398 -0.1187  0.5819  0.7081
13270TIP3    H161301   1.712   5.707  14.341 -0.5376 -0.9876  1.5631
13270TIP3    H261302   1.862   5.687  14.348  0.1787  2.7280 -0.3999
13271TIP3   OH261303   0.562   0.620  15.898  0.1878 -0.6227 -0.3310
13271TIP3    H161304   0.490   0.668  15.857 -0.5148  0.6225  2.1476
13271TIP3    H261305   0.525   0.533  15.914 -0.0241 -0.6588 -0.9816
13272TIP3   OH261306   4.576   6.826  12.489  0.9049  0.4358  0.6250
13272TIP3    H161307   4.567   6.767  12.415  1.5162 -0.3768  1.1835
13272TIP3    H261308   4.668   6.853  12.487  0.6810  1.2317  0.4905
13273TIP3   OH261309   4.405   6.552  13.934 -0.4579  0.3434  0.2413
13273TIP3    H161310   4.336   6.602  13.889  1.2349  1.3934 -1.3608
13273TIP3    H261311   4.365   6.467  13.952 -2.6267  1.3858  0.7179
13274TIP3   OH261312   2.830   3.996  11.439 -0.0098 -0.5114  0.2713
13274TIP3    H161313   2.833   4.063  11.370 -1.3886 -0.8521 -0.1397
13274TIP3    H261314   2.761   4.026  11.498 -0.6593 -1.5699  0.0675
13275TIP3   OH261315   3.354   0.443   1.897 -0.0661  0.4811  0.1761
13275TIP3    H161316   3.403   0.368   1.930  0.3943  0.3340 -0.8112
13275TIP3    H261317   3.281   0.452   1.958 -1.4483 -2.2021 -0.9090
13276TIP3   OH261318   5.943   6.691   2.008 -0.1892  0.5302 -0.0214
13276TIP3    H161319   5.932   6.774   1.961 -1.0213 -0.7234 -2.1880
13276TIP3    H261320   5.971   6.629   1.941 -0.5099 -1.1632  1.3435
13277TIP3   OH261321   3.767   5.396  12.188 -0.5498 -0.0547 -0.1407
13277TIP3    H161322   3.805   5.476  12.151  0.4145 -0.2362  0.4385
13277TIP3    H261323   3.744   5.343  12.111 -0.6941  0.5464 -0.5190
13278TIP3   OH261324   2.558   0.698  12.011 -0.1221 -0.0888 -0.1097
13278TIP3    H161325   2.473   0.657  11.997 -0.4659  0.9666 -1.4144
13278TIP3    H261326   2.620   0.642  11.965  0.0252 -1.2665  1.4736
13279TIP3   OH261327   3.695   4.305   1.472 -0.3810  0.0658  0.2334
13279TIP3    H161328   3.676   4.365   1.544 -0.3297 -0.1529  0.4334
13279TIP3    H261329   3.776   4.261   1.498  0.6564  1.3047 -0.8119
13280TIP3   OH261330   5.892   2.216  12.078  0.0481 -0.1598  0.2204
13280TIP3    H161331   5.962   2.273  12.110 -1.8351  2.9216 -0.6836
13280TIP3    H261332   5.905   2.213  11.983 -2.3497  2.7429 -0.3699
13281TIP3   OH261333   0.940   0.297   2.166  0.0545 -0.4912 -0.0790
13281TIP3    H161334   0.883   0.340   2.102 -1.8608 -2.7600 -0.0180
13281TIP3    H261335   0.893   0.305   2.249 -0.2713 -2.3983 -0.0324
13282TIP3   OH261336   0.112   2.917   3.570  0.3829 -0.4703  0.2392
13282TIP3    H161337   0.189   2.954   3.612  0.0777 -0.1017  0.4910
13282TIP3    H261338   0.124   2.822   3.575  0.9840 -0.4099 -0.0490
13283TIP3   OH261339   5.074   5.050  11.762  0.1338 -0.1782  0.2416
13283TIP3    H161340   5.050   5.060  11.854  0.2415  3.6817  0.0203
13283TIP3    H261341   5.165   5.078  11.757  0.3587 -1.0155 -0.9860
13284TIP3   OH261342   0.845   2.997  12.400 -0.4787 -0.8249  0.3081
13284TIP3    H161343   0.835   2.975  12.307 -1.7204 -0.3803  0.3211
13284TIP3    H261344   0.768   3.050  12.421  0.4247  0.1514  1.2887
13285TIP3   OH261345   5.022   1.633   4.816  0.0193 -0.5347 -0.1289
13285TIP3    H161346   5.056   1.551   4.853 -0.0449 -0.0188  1.1283
13285TIP3    H261347   5.010   1.690   4.892 -2.3699 -0.2258 -0.6488
13286TIP3   OH261348   6.154   3.036   4.489  0.3480 -0.3741  0.2650
13286TIP3    H161349   6.179   3.097   4.558 -0.5655  0.4047 -0.0764
13286TIP3    H261350   6.136   3.091   4.413  1.5820 -1.2309 -0.6942
13287TIP3   OH261351   2.182   0.048  15.592  0.0206  0.0635 -0.3290
13287TIP3    H161352   2.226   0.070  15.674  1.5915  0.1087 -1.1688
13287TIP3    H261353   2.106   0.107  15.590 -1.0662 -1.0894  1.8872
13288TIP3   OH261354   5.246   3.898   5.465 -0.1996  0.8021 -0.0202
13288TIP3    H161355   5.335   3.871   5.441 -0.6359 -0.7849  0.0830
13288TIP3    H261356   5.243   3.890   5.560 -0.6114  0.3511 -0.0682
13289TIP3   OH261357   0.120   0.882   0.747 -0.7571 -0.2446 -0.6849
13289TIP3    H161358   0.214   0.887   0.732 -0.9521  0.3878 -1.8468
13289TIP3    H261359   0.096   0.969   0.780 -1.0450 -0.1505 -1.1333
13290TIP3   OH261360   5.932   6.425   5.130 -0.0492 -0.0683  0.2703
13290TIP3    H161361   5.932   6.362   5.058  0.2657  0.2698 -0.0284
13290TIP3    H261362   5.985   6.498   5.098  0.4623 -0.1029  1.0068
13291TIP3   OH261363   0.230   2.398   2.237  0.5270  0.4521  0.4984
13291TIP3    H161364   0.240   2.303   2.231 -1.4973  0.2121  0.3490
13291TIP3    H261365   0.318   2.432   2.221  1.0044 -1.3237 -0.9666
13292TIP3   OH261366   2.521   2.685  14.082  0.4017  0.4406  0.2676
13292TIP3    H161367   2.431   2.656  14.098  1.0354 -0.8575  1.7662
13292TIP3    H261368   2.528   2.767  14.130 -0.0643  0.7099 -0.1129
13293TIP3   OH261369   2.547   2.717   0.924  0.2273  0.1953  0.0435
13293TIP3    H161370   2.591   2.647   0.875  3.0306  0.1472  2.3341
13293TIP3    H261371   2.490   2.670   0.985 -1.3552  0.1654 -1.3973
13294TIP3   OH261372   5.064   0.640  15.870 -0.7597 -0.4480 -0.2343
13294TIP3    H161373   5.157   0.653  15.849 -1.1598  0.0298 -1.7895
13294TIP3    H261374   5.031   0.728  15.888 -0.9317 -0.6153  0.2944
13295TIP3   OH261375   2.801   2.096  16.420 -0.9357 -0.7104 -0.5898
13295TIP3    H161376   2.741   2.022  16.411 -0.0897 -1.4427 -0.3116
13295TIP3    H261377   2.821   2.100  16.513 -1.9409  0.6633 -0.4087
13296TIP3   OH261378   1.220   4.624   5.182 -0.0745 -0.1664 -0.7832
13296TIP3    H161379   1.298   4.661   5.141 -0.2139  1.0001 -0.0709
13296TIP3    H261380   1.173   4.580   5.111  0.6181  0.1757 -1.4664
13297TIP3   OH261381   4.661   1.127  15.726 -0.9107 -0.0290 -0.6763
13297TIP3    H161382   4.667   1.164  15.814 -3.3644  1.3539 -0.9799
13297TIP3    H261383   4.624   1.039  15.739 -0.4767 -0.1533 -0.2803
13298TIP3   OH261384   1.529   5.307  15.121  0.0905  0.1107 -0.2672
13298TIP3    H161385   1.517   5.292  15.027  0.8207  1.1377 -0.5338
13298TIP3    H261386   1.456   5.363  15.146 -0.0807 -0.1292 -0.2251
13299TIP3   OH261387   1.047   4.910  13.263  0.5236  0.2179  0.0788
13299TIP3    H161388   1.027   4.826  13.221  3.0677  0.6895 -2.4455
13299TIP3    H261389   1.138   4.900  13.293 -0.0733  1.1692  2.3745
13300TIP3   OH261390   0.879   1.380   3.291  0.1118  0.0210  0.0328
13300TIP3    H161391   0.892   1.413   3.379  0.3985 -2.5579  1.0363
13300TIP3    H261392   0.967   1.368   3.256  0.0324 -0.0816 -0.1355
13301TIP3   OH261393   1.699   1.777  12.889  0.6391 -0.0991 -0.4503
13301TIP3    H161394   1.743   1.787  12.974 -0.4046  0.2372  0.0678
13301TIP3    H261395   1.763   1.809  12.826  1.8863 -1.4224  0.0664
13302TIP3   OH261396   0.415   5.341   2.130 -0.1051  0.4574  0.1583
13302TIP3    H161397   0.483   5.273   2.126  0.5044  1.0571  0.1128
13302TIP3    H261398   0.419   5.372   2.221 -0.6303  0.1892  0.2766
13303TIP3   OH261399   2.573   0.902   5.477  0.7413  0.5381 -0.1764
13303TIP3    H161400   2.535   0.986   5.449  0.1604  0.8387  1.4317
13303TIP3    H261401   2.662   0.924   5.503  0.1468  1.0033  1.6583
13304TIP3   OH261402   4.940   0.812   4.993  0.2609  0.3983 -0.2136
13304TIP3    H161403   4.868   0.791   5.052  1.1201  1.6120  1.3482
13304TIP3    H261404   5.019   0.802   5.046  1.1686  0.3661 -1.5076
13305TIP3   OH261405   5.307   1.478   1.014  0.2614  0.0392 -0.4490
13305TIP3    H161406   5.361   1.512   1.086  1.4844 -0.9985 -0.8395
13305TIP3    H261407   5.369   1.434   0.956 -0.8377  0.0236 -1.6561
13306TIP3   OH261408   1.168   0.325   2.010  0.2573  0.1090 -0.3673
13306TIP3    H161409   1.215   0.312   2.092  0.5824  0.1916 -0.5394
13306TIP3    H261410   1.076   0.323   2.035  0.2876 -1.6546 -0.2543
13307TIP3   OH261411   2.492   3.498  15.538 -0.1499  0.4102 -0.3303
13307TIP3    H161412   2.542   3.418  15.554  1.2028  1.2412 -0.2272
13307TIP3    H261413   2.409   3.483  15.583  0.5217 -0.4802  0.6709
13308TIP3   OH261414   1.799   1.473  12.443  0.0145  0.5956 -0.2543
13308TIP3    H161415   1.858   1.538  12.482  0.3241  0.2438 -0.1360
13308TIP3    H261416   1.773   1.418  12.517  0.4498  0.0459 -0.5043
13309TIP3   OH261417   0.016   4.155   4.287  0.4402  0.0873  0.0500
13309TIP3    H161418  -0.024   4.092   4.227  0.2697  1.0788 -0.9198
13309TIP3    H261419   0.089   4.108   4.326  0.1820 -0.7809 -0.4868
13310TIP3   OH261420   4.175   3.087   1.839 -0.0721  0.7282  0.0925
13310TIP3    H161421   4.228   3.166   1.848 -0.3311  0.9296 -0.1525
13310TIP3    H261422   4.184   3.063   1.747 -1.3863  1.4519 -0.2441
13311TIP3   OH261423   6.317   0.789   2.266  0.2404  0.2581  0.8091
13311TIP3    H161424   6.330   0.771   2.173 -0.0946 -1.7007  1.0972
13311TIP3    H261425   6.340   0.708   2.310  2.5519  1.8065  2.6803
13312TIP3   OH261426   4.174   2.044   5.259  0.0558 -0.7557  0.7279
13312TIP3    H161427   4.218   2.113   5.210  1.4203 -2.6534 -0.9222
13312TIP3    H261428   4.138   2.087   5.336 -0.3429  2.0149 -0.8883
13313TIP3   OH261429   5.106   3.888  11.842  0.3697 -0.0282 -0.0405
13313TIP3    H161430   5.155   3.927  11.914 -1.5815  1.6820  0.4453
13313TIP3    H261431   5.136   3.936  11.764  1.3826 -0.8599 -0.1970
13314TIP3   OH261432   5.251   1.893  12.880 -0.0119  0.0100 -0.6260
13314TIP3    H161433   5.196   1.970  12.898 -1.6251 -1.5698  1.7517
13314TIP3    H261434   5.206   1.847  12.809  0.0377  0.3599 -0.8880
13315TIP3   OH261435   4.795   0.453  12.436 -0.0979 -0.0708  0.3099
13315TIP3    H161436   4.870   0.496  12.477  0.7919 -0.1944 -1.0883
13315TIP3    H261437   4.835   0.383  12.383 -1.4225 -2.1506  1.8877
13316TIP3   OH261438   0.744   6.359  13.623 -0.2512 -0.3175 -0.2430
13316TIP3    H161439   0.689   6.360  13.545 -3.1841  0.0625  1.7014
13316TIP3    H261440   0.805   6.432  13.611 -3.1792  2.2765 -0.5573
13317TIP3   OH261441   3.740   0.034  11.416  0.5598 -0.2058  0.3129
13317TIP3    H161442   3.664  -0.003  11.372 -0.2179  0.2156  1.2746
13317TIP3    H261443   3.706   0.107  11.467  1.0205 -1.8311  3.2370
13318TIP3   OH261444   6.321   2.661   1.242  0.2663 -0.4816 -0.0686
13318TIP3    H161445   6.296   2.729   1.178 -0.4711 -1.2604 -0.6357
13318TIP3    H261446   6.362   2.593   1.189  2.5094  0.2092  0.7086
13319TIP3   OH261447   1.829   6.537  12.022  0.2013 -0.0829  0.3839
13319TIP3    H161448   1.839   6.629  11.996  2.6323  0.0844  1.6005
13319TIP3    H261449   1.804   6.541  12.114  1.2057 -0.5968  0.6983
13320TIP3   OH261450   0.485   1.242  15.859 -0.0872 -0.0295  0.2592
13320TIP3    H161451   0.503   1.182  15.787 -1.0283 -1.8817  1.4801
13320TIP3    H261452   0.393   1.265  15.850  0.5297  2.3074 -0.8886
13321TIP3   OH261453   2.203   1.556  16.947  0.6002 -0.2549  0.2548
13321TIP3    H161454   2.178   1.625  17.009 -2.4733  0.3353 -1.4204
13321TIP3    H261455   2.161   1.477  16.981  2.1122 -0.8148  0.8928
13322TIP3   OH261456   2.901   3.528   3.428 -0.3672 -0.5915 -0.1917
13322TIP3    H161457   2.957   3.498   3.357 -0.8281 -2.4756  0.1912
13322TIP3    H261458   2.954   3.517   3.507 -0.6308 -0.6242 -0.0179
13323TIP3   OH261459   3.589   4.800   2.053  0.0678  0.0783  0.0618
13323TIP3    H161460   3.543   4.865   2.105 -1.7422 -0.5800 -0.6249
13323TIP3    H261461   3.626   4.849   1.979  0.4591  0.6122  0.6020
13324TIP3   OH261462   2.172   3.449  14.408  0.3531 -0.1521 -0.0054
13324TIP3    H161463   2.181   3.507  14.332  1.5560  0.4457  0.5531
13324TIP3    H261464   2.262   3.441  14.442 -0.4230  1.7455  2.8948
13325TIP3   OH261465   2.284   2.615   6.612 -0.6729 -0.2829 -0.0395
13325TIP3    H161466   2.299   2.684   6.548 -1.3648 -0.0616  0.0366
13325TIP3    H261467   2.298   2.534   6.563  0.3530 -0.0971 -0.0739
13326TIP3   OH261468   0.703   3.032  16.420 -0.3681 -0.2926 -0.3807
13326TIP3    H161469   0.701   3.127  16.428 -0.3747 -0.3047 -0.2254
13326TIP3    H261470   0.795   3.008  16.438 -0.3348 -0.3019 -0.5686
13327TIP3   OH261471   5.380   3.121  13.681  0.3590  0.2895  0.4492
13327TIP3    H161472   5.352   3.213  13.671  1.1782  0.4350 -0.6975
13327TIP3    H261473   5.356   3.080  13.599  0.4942 -0.3988  0.7493
13328TIP3   OH261474   4.020   4.548  10.646 -0.4672  0.2220 -0.2230
13328TIP3    H161475   3.999   4.642  10.640  0.9328  0.5068 -0.9560
13328TIP3    H261476   3.934   4.505  10.652 -1.1165  1.5740  0.7782
13329TIP3   OH261477   3.427   4.549  16.856 -0.5910  0.1089  0.6130
13329TIP3    H161478   3.406   4.570  16.765 -1.5308  1.1724  1.0396
13329TIP3    H261479   3.454   4.633  16.894 -0.9931 -0.1546  1.5060
13330TIP3   OH261480   0.243   3.052   4.720 -0.6217  0.1607  0.2820
13330TIP3    H161481   0.284   2.974   4.756 -0.1558  0.4862  0.4699
13330TIP3    H261482   0.157   3.023   4.691 -1.5000  0.1174  2.7159
13331TIP3   OH261483   5.819   2.224  13.588  0.6990  0.0816  0.1348
13331TIP3    H161484   5.778   2.218  13.502  1.2633 -2.4005 -0.0432
13331TIP3    H261485   5.820   2.317  13.608  1.8856  0.9255 -3.1922
13332TIP3   OH261486   6.189   5.488  10.659 -0.2444  0.0374 -0.1805
13332TIP3    H161487   6.207   5.490  10.753 -3.1591 -0.4055  0.5046
13332TIP3    H261488   6.155   5.575  10.639  3.6072  1.3665 -1.7203
13333TIP3   OH261489   2.002   6.135  12.361  0.1361 -0.1031 -0.0852
13333TIP3    H161490   2.013   6.043  12.385  0.5225 -0.0014  0.1381
13333TIP3    H261491   1.916   6.139  12.320 -0.1331 -0.4570  0.4334
13334TIP3   OH261492   4.964   5.921  16.388  0.1340 -0.6298 -0.1200
13334TIP3    H161493   5.035   5.934  16.451  1.8343  2.4595 -2.4184
13334TIP3    H261494   5.002   5.863  16.322  0.2715  0.3359 -0.9095
13335TIP3   OH261495   1.477   2.435  13.321  0.5143  0.3023 -0.3615
13335TIP3    H161496   1.413   2.412  13.389  0.1381 -0.5180 -0.9705
13335TIP3    H261497   1.535   2.360  13.316  1.2874  0.8715 -0.1076
13336TIP3   OH261498   4.440   0.221   0.160  0.1036 -0.3289  0.9017
13336TIP3    H161499   4.526   0.220   0.119  0.4105  1.0336  1.4677
13336TIP3    H261500   4.435   0.136   0.205  1.8676  0.2221  2.2597
13337TIP3   OH261501   1.116   5.975  12.479 -0.9014 -0.2842 -0.3969
13337TIP3    H161502   1.037   5.947  12.526 -0.6347 -1.3275 -0.5261
13337TIP3    H261503   1.164   5.893  12.464  0.3763  0.3673 -0.0189
13338TIP3   OH261504   6.589   1.976  10.865 -0.0821 -0.0796 -0.1630
13338TIP3    H161505   6.628   1.895  10.832  0.2420  0.9907 -2.6788
13338TIP3    H261506   6.662   2.024  10.904  0.1100 -0.2281 -0.3348
13339TIP3   OH261507   6.166   4.385  10.636  0.1355  0.2411  0.4762
13339TIP3    H161508   6.223   4.321  10.678  0.2510  0.1623  0.2012
13339TIP3    H261509   6.198   4.470  10.668  1.6284  0.3363 -1.0974
13340TIP3   OH261510   6.520   2.857  16.975 -0.2775 -0.1326  0.0271
13340TIP3    H161511   6.442   2.912  16.969  1.1662  2.0255 -0.3583
13340TIP3    H261512   6.544   2.860  17.068 -0.2133 -0.1422  0.0110
13341TIP3   OH261513   1.613   5.752   0.462 -0.0156 -0.1676  0.0786
13341TIP3    H161514   1.594   5.683   0.525  1.3652 -1.0773 -0.4387
13341TIP3    H261515   1.587   5.715   0.377 -0.2342  0.3579 -0.0884
13342TIP3   OH261516   0.218   0.646  14.512  0.5731 -0.4463  0.3673
13342TIP3    H161517   0.122   0.644  14.518  0.5423 -1.5176 -0.1933
13342TIP3    H261518   0.237   0.703  14.438  0.3611 -0.3287  0.4035
13343TIP3   OH261519   5.880   1.369   3.846 -0.0638 -0.4479  0.5178
13343TIP3    H161520   5.904   1.412   3.928  2.2642  0.5424 -0.6049
13343TIP3    H261521   5.958   1.319   3.821 -1.5579 -2.7403  0.0779
13344TIP3   OH261522   4.667   6.362  14.167 -0.7302  0.8626 -0.3803
13344TIP3    H161523   4.581   6.323  14.154 -1.3865  1.9554  0.4409
13344TIP3    H261524   4.727   6.306  14.119 -1.5712 -1.2449  0.9135
13345TIP3   OH261525   3.415   5.750   5.627  0.2451 -0.1965  0.0428
13345TIP3    H161526   3.367   5.713   5.701 -0.2319  0.6077  0.1475
13345TIP3    H261527   3.480   5.683   5.604  0.5696 -0.3460  1.3430
13346TIP3   OH261528   0.750   5.574   0.710 -0.4400 -0.4736 -0.7320
13346TIP3    H161529   0.825   5.603   0.657 -0.0117 -0.0634  0.0796
13346TIP3    H261530   0.680   5.637   0.689  0.0569  0.3396 -0.0265
13347TIP3   OH261531   3.092   5.242  11.027 -0.4360  0.6909  0.4762
13347TIP3    H161532   3.175   5.270  11.065 -0.3333  0.1945  0.6210
13347TIP3    H261533   3.110   5.235  10.933  0.1329 -0.9188  0.6724
13348TIP3   OH261534   5.044   2.929   0.428  0.2368 -0.3063 -0.7902
13348TIP3    H161535   4.998   2.914   0.345  0.0431 -1.0425 -0.5568
13348TIP3    H261536   5.129   2.888   0.416 -0.4138 -1.9722 -0.0325
13349TIP3   OH261537   0.320   3.931   2.956 -0.7195 -0.0830 -0.1227
13349TIP3    H161538   0.346   3.858   2.900 -1.5888 -0.7161  0.2825
13349TIP3    H261539   0.389   3.997   2.943 -0.0005 -0.9074 -0.5993
13350TIP3   OH261540   0.723   5.645  14.308  0.0510  0.1927  0.5229
13350TIP3    H161541   0.805   5.621  14.350 -0.5152 -2.1302  0.4552
13350TIP3    H261542   0.700   5.730  14.346  2.5624  1.0105  0.3415
13351TIP3   OH261543   4.468   5.251   1.553  0.0877 -0.3216  0.2803
13351TIP3    H161544   4.437   5.290   1.634 -1.4949 -0.3111 -0.3064
13351TIP3    H261545   4.557   5.221   1.573 -0.9106 -2.0285  2.5778
13352TIP3   OH261546   4.556   0.774   4.122  0.0057 -0.0157 -0.7184
13352TIP3    H161547   4.635   0.744   4.168  0.4119  0.7688 -0.8805
13352TIP3    H261548   4.538   0.860   4.159 -0.4420  0.0545 -1.0921
13353TIP3   OH261549   2.055   5.334  11.665  0.2166  0.7643 -0.3386
13353TIP3    H161550   2.010   5.250  11.650 -0.2345  1.1737 -1.4083
13353TIP3    H261551   1.992   5.386  11.714 -0.0469  0.9475 -0.8647
13354TIP3   OH261552   0.772   4.838   4.216  0.2032  0.2534 -0.6584
13354TIP3    H161553   0.687   4.794   4.227  0.1584  0.6343  0.6248
13354TIP3    H261554   0.820   4.781   4.155 -1.1478  0.3081 -1.8386
13355TIP3   OH261555   3.777   1.734  12.106 -0.4337 -0.0725 -0.3117
13355TIP3    H161556   3.852   1.730  12.047 -0.4754  1.0077 -0.4542
13355TIP3    H261557   3.809   1.699  12.189  0.3431  0.7495 -0.2610
13356TIP3   OH261558   0.635   0.765  13.705 -0.5157  0.5212 -0.0058
13356TIP3    H161559   0.604   0.681  13.670  0.9893  0.3859 -1.1197
13356TIP3    H261560   0.642   0.821  13.628 -1.0323  1.5350  0.6700
13357TIP3   OH261561   3.078   6.649  14.288 -0.2001  0.3933 -0.3306
13357TIP3    H161562   3.127   6.730  14.276  1.5815 -0.5304  0.3312
13357TIP3    H261563   3.130   6.598  14.350 -2.3757 -0.3904  0.9875
13358TIP3   OH261564   5.170   2.986  11.545 -0.3480  0.0201 -0.0637
13358TIP3    H161565   5.161   2.911  11.487 -0.2398 -0.8783  1.0587
13358TIP3    H261566   5.082   3.000  11.581 -0.2268  0.0110  0.2398
13359TIP3   OH261567   6.423   1.451   3.878  0.1305 -0.3129  0.2557
13359TIP3    H161568   6.452   1.421   3.964 -0.5412  1.8872  1.3023
13359TIP3    H261569   6.355   1.389   3.853 -0.0402 -0.6619  1.5458
13360TIP3   OH261570   3.051   1.298  12.046 -0.0977 -0.2669  0.5826
13360TIP3    H161571   3.072   1.269  11.957 -0.8741 -2.2669  0.9868
13360TIP3    H261572   2.986   1.367  12.034  1.5771  1.2268 -0.4341
13361TIP3   OH261573   2.074   5.787   2.013  0.4481  0.1945 -0.3378
13361TIP3    H161574   2.003   5.829   1.964  2.1174  2.2098 -1.1605
13361TIP3    H261575   2.154   5.817   1.970  1.8362 -2.8469 -0.1198
13362TIP3   OH261576   5.669   0.840   5.269 -0.3779  0.0602 -0.0846
13362TIP3    H161577   5.763   0.855   5.279 -0.4347 -0.6535  2.0475
13362TIP3    H261578   5.634   0.852   5.357 -2.2041 -0.2981 -0.7329
13363TIP3   OH261579   6.309   5.494   0.500  0.4566  0.1616 -0.2461
13363TIP3    H161580   6.321   5.521   0.591  0.3376 -1.2477  0.2061
13363TIP3    H261581   6.316   5.576   0.450  2.1371  0.7526  0.8614
13364TIP3   OH261582   6.240   6.234   4.930 -0.2320 -0.0857  0.1969
13364TIP3    H161583   6.317   6.205   4.980 -0.0568 -0.2075 -0.1367
13364TIP3    H261584   6.277   6.269   4.848 -0.4864  0.4768  0.3176
13365TIP3   OH261585   4.853   6.622   0.151 -0.1754 -0.4724 -0.0039
13365TIP3    H161586   4.872   6.682   0.079 -0.0705 -2.2032 -1.5111
13365TIP3    H261587   4.939   6.602   0.189 -0.0052 -0.9907 -0.6408
13366TIP3   OH261588   6.336   1.159  15.839 -0.8981 -0.1278  0.6359
13366TIP3    H161589   6.383   1.190  15.917  0.5846  0.4648 -0.4396
13366TIP3    H261590   6.279   1.232  15.814 -3.0793 -1.1102  2.3650
13367TIP3   OH261591   6.612   1.150   0.922 -0.6172 -0.3602  0.2694
13367TIP3    H161592   6.655   1.167   1.006  1.1596  1.4372 -0.9188
13367TIP3    H261593   6.539   1.092   0.944 -0.1651 -0.0255  3.0267
13368TIP3   OH261594   2.582   1.846  14.287 -1.0333  0.4050  0.1267
13368TIP3    H161595   2.592   1.766  14.338  1.6454  0.9243  0.5384
13368TIP3    H261596   2.589   1.916  14.351 -1.0593  1.0248 -0.5383
13369TIP3   OH261597   4.328   0.341  14.286 -0.3795  0.3322 -0.1552
13369TIP3    H161598   4.352   0.249  14.282  1.3357  0.7594 -0.6607
13369TIP3    H261599   4.283   0.351  14.370  0.3487 -0.7563  0.3805
13370TIP3   OH261600   6.798   5.019   2.004 -1.0158 -0.2591  0.7250
13370TIP3    H161601   6.792   5.086   2.073 -0.7464 -0.8818  1.3656
13370TIP3    H261602   6.714   4.974   2.008 -0.9181 -0.4346  0.7901
13371TIP3   OH261603   1.385   2.780  16.867  0.2550  0.1966 -0.4934
13371TIP3    H161604   1.440   2.736  16.801  0.5714  1.2758 -0.9647
13371TIP3    H261605   1.384   2.719  16.941  2.5159  0.3346 -0.2743
13372TIP3   OH261606   1.315   1.990   4.135  0.2789  0.2898  0.2625
13372TIP3    H161607   1.351   2.013   4.221 -0.7273  1.0091  0.5291
13372TIP3    H261608   1.296   2.075   4.094 -1.8092 -0.0017  0.4844
13373TIP3   OH261609   1.989   4.718   2.303 -0.3835  0.9040  0.3804
13373TIP3    H161610   1.946   4.747   2.223  0.7043  2.3195  0.2615
13373TIP3    H261611   2.071   4.768   2.305  0.1832 -0.0304  1.7382
13374TIP3   OH261612   0.966   1.011   2.073 -0.0031  0.5644  0.3074
13374TIP3    H161613   0.967   0.916   2.057  1.4067  0.4641  0.8104
13374TIP3    H261614   0.939   1.019   2.165 -1.1418  0.7273 -0.0275
13375TIP3   OH261615   5.771   3.752  14.951 -0.1374 -0.0373 -0.2033
13375TIP3    H161616   5.822   3.705  14.885  0.2346 -1.3757  0.9761
13375TIP3    H261617   5.828   3.754  15.027 -1.9824 -2.1703  1.3931
13376TIP3   OH261618   2.838   3.333  13.755 -0.1477 -0.3196 -0.1577
13376TIP3    H161619   2.886   3.348  13.836 -0.5949  0.1390  0.0322
13376TIP3    H261620   2.821   3.421  13.721  0.4153 -0.5263 -0.9735
13377TIP3   OH261621   4.538   4.272  16.085 -0.0949 -0.0083  0.3756
13377TIP3    H161622   4.610   4.221  16.049 -0.5550 -1.5396  1.5253
13377TIP3    H261623   4.461   4.240  16.038 -0.4862 -0.9366  1.5930
13378TIP3   OH261624   4.222   5.097   2.584 -0.0951  0.8994  0.1587
13378TIP3    H161625   4.282   5.063   2.650  1.0760  0.2093 -1.2169
13378TIP3    H261626   4.187   5.178   2.624 -1.0271 -0.5121  2.4313
13379TIP3   OH261627   1.163   5.511   2.547 -0.4723  0.1671  0.0461
13379TIP3    H161628   1.227   5.440   2.552  0.7917  1.1767 -0.8740
13379TIP3    H261629   1.154   5.529   2.453  0.7934  2.4822  0.2680
13380TIP3   OH261630   1.601   4.401  12.233  1.0935 -0.5490 -0.4587
13380TIP3    H161631   1.566   4.461  12.168  1.6695  0.6928  0.3412
13380TIP3    H261632   1.685   4.373  12.198  1.8084  0.8078  0.1239
13381TIP3   OH261633   1.247   0.719  11.644 -0.2965  0.4944 -0.0227
13381TIP3    H161634   1.338   0.751  11.646  0.3198 -1.1766  1.9190
13381TIP3    H261635   1.223   0.723  11.552  2.2078 -0.1750 -0.7981
13382TIP3   OH261636   2.793   0.925   0.101  0.5899  0.2433  0.3188
13382TIP3    H161637   2.777   0.863   0.029  2.0388 -0.9990  0.9991
13382TIP3    H261638   2.860   0.984   0.067  1.6593 -0.6662  0.7808
13383TIP3   OH261639   1.957   4.605  11.237  0.5749  0.0700  0.2110
13383TIP3    H161640   2.035   4.549  11.242 -0.5074 -1.4003  2.0649
13383TIP3    H261641   1.908   4.572  11.162 -0.7051 -2.5240  2.0509
13384TIP3   OH261642   6.825   0.858   2.964 -0.3788 -0.1039  0.2310
13384TIP3    H161643   6.753   0.796   2.951 -0.1755 -0.1529 -0.7275
13384TIP3    H261644   6.903   0.803   2.965 -0.3437 -0.0477  1.2371
13385TIP3   OH261645   5.739   6.218  10.634  0.6020  0.5719  0.7338
13385TIP3    H161646   5.714   6.128  10.657  0.8264 -0.0020 -1.1088
13385TIP3    H261647   5.797   6.208  10.558  1.0138  2.2597  0.7922
13386TIP3   OH261648   0.920   5.828   2.360  0.2627 -0.2365  0.2688
13386TIP3    H161649   0.941   5.880   2.283  0.6200 -2.0236 -0.8875
13386TIP3    H261650   0.826   5.812   2.354  0.2519 -0.1951  0.3248
13387TIP3   OH261651   5.867   4.140  14.507 -0.4770  0.1610  0.3877
13387TIP3    H161652   5.862   4.051  14.541  1.2153  0.5486  1.8407
13387TIP3    H261653   5.917   4.133  14.426  1.7277 -0.0243  1.6731
13388TIP3   OH261654   1.742   1.191   3.398 -0.4493 -0.1730 -0.1273
13388TIP3    H161655   1.765   1.100   3.380  1.5130  0.3136 -0.3843
13388TIP3    H261656   1.650   1.189   3.425  0.2053 -2.5394  2.3062
13389TIP3   OH261657   5.420   1.573   5.828  0.3422 -0.2188 -0.3464
13389TIP3    H161658   5.412   1.478   5.841  0.4935 -0.2851 -0.7300
13389TIP3    H261659   5.451   1.606   5.913 -0.9224 -0.3437  0.1758
13390TIP3   OH261660   5.846   6.703   1.467 -0.0392  1.2575 -0.2163
13390TIP3    H161661   5.841   6.753   1.385  1.4334 -1.0736 -1.8270
13390TIP3    H261662   5.785   6.631   1.455  1.2060  0.1092  0.1237
13391TIP3   OH261663   1.657   0.743  16.423 -0.6974 -0.1402  0.4002
13391TIP3    H161664   1.673   0.677  16.355 -0.6460 -0.1721  0.4437
13391TIP3    H261665   1.564   0.765  16.412 -1.0784 -1.1996  1.2535
13392TIP3   OH261666   1.479   0.670  15.948 -0.2359 -0.1593 -0.2493
13392TIP3    H161667   1.401   0.703  15.903  0.6260  0.3402 -1.4130
13392TIP3    H261668   1.454   0.583  15.979 -1.4861  0.2737  0.0226
13393TIP3   OH261669   6.349   0.846   1.980 -0.6278 -0.1352  0.2283
13393TIP3    H161670   6.307   0.782   1.923  0.8668  0.0284 -1.1510
13393TIP3    H261671   6.329   0.931   1.940 -1.8142  0.2351  1.5169
13394TIP3   OH261672   1.301   2.810  13.920  0.6937 -0.1790 -0.1999
13394TIP3    H161673   1.319   2.718  13.903  0.0770 -0.4718  0.6513
13394TIP3    H261674   1.244   2.837  13.848  0.0508 -0.7484  0.0841
13395TIP3   OH261675   0.449   1.307  15.090 -0.5083  0.0163 -0.5387
13395TIP3    H161676   0.491   1.241  15.145 -0.5352  0.1876 -0.3145
13395TIP3    H261677   0.495   1.301  15.006 -0.7939 -0.5801 -0.6573
13396TIP3   OH261678   0.474   6.406  16.540  0.0642 -0.7507 -0.1889
13396TIP3    H161679   0.498   6.473  16.476  0.3445  0.4150  1.0876
13396TIP3    H261680   0.388   6.433  16.572  0.0712 -1.1371  0.1675
13397TIP3   OH261681   4.824   3.223  15.117  0.2406  0.3606  0.2872
13397TIP3    H161682   4.892   3.168  15.078 -0.0741 -0.0258  0.2743
13397TIP3    H261683   4.749   3.213  15.059  0.0887  0.5801  0.4439
13398TIP3   OH261684   3.217   6.632  13.859  1.0930  0.6078  0.4774
13398TIP3    H161685   3.189   6.704  13.915  0.6992  0.4591  0.4783
13398TIP3    H261686   3.191   6.553  13.907 -1.6668  0.4645 -1.0396
13399TIP3   OH261687   2.886   1.628  14.163  0.1619 -0.0194  0.3613
13399TIP3    H161688   2.862   1.618  14.255  1.6622 -0.2133  0.7516
13399TIP3    H261689   2.902   1.722  14.153 -1.5185  0.2555 -0.1268
13400TIP3   OH261690   1.022   6.406  12.955  0.4107  0.2170  0.4319
13400TIP3    H161691   0.987   6.485  12.913  1.1648  0.7317  0.7348
13400TIP3    H261692   1.092   6.377  12.896 -1.3741 -1.6433 -0.9284
13401TIP3   OH261693   0.489   5.510   4.546  0.0473 -0.0615  0.0090
13401TIP3    H161694   0.505   5.603   4.533 -0.6993  0.2054  0.9087
13401TIP3    H261695   0.394   5.502   4.551  0.1277 -0.7497  0.7754
13402TIP3   OH261696   2.764   5.334   5.447  0.0156 -0.1707  0.0355
13402TIP3    H161697   2.726   5.314   5.361 -0.0801 -3.2888  0.6749
13402TIP3    H261698   2.693   5.378   5.495 -1.1625 -1.4939 -0.4046
13403TIP3   OH261699   2.920   2.860   1.120  0.0751  0.2188 -0.3245
13403TIP3    H161700   2.851   2.880   1.057 -0.1351  1.2693  0.2244
13403TIP3    H261701   2.898   2.911   1.197 -0.8533 -2.6542  1.4623
13404TIP3   OH261702   1.056   3.990  11.446  0.0970  0.1323  0.3863
13404TIP3    H161703   1.129   4.051  11.454 -0.2663  0.5353  0.7101
13404TIP3    H261704   1.021   4.006  11.358  0.4925 -0.1727  0.1714
13405TIP3   OH261705   3.631   0.157   4.197 -0.3870 -0.2269  0.2752
13405TIP3    H161706   3.587   0.155   4.111 -1.5582 -2.1839  0.8374
13405TIP3    H261707   3.655   0.248   4.210  0.8814 -0.0277 -2.6362
13406TIP3   OH261708   2.690   0.963   6.228 -0.6153  0.0403 -0.0122
13406TIP3    H161709   2.633   0.909   6.283 -1.1383 -0.2554 -0.8282
13406TIP3    H261710   2.753   1.001   6.289 -1.8274  0.5587  0.9467
13407TIP3   OH261711   2.569   6.547   0.715  0.1587  0.0420  0.2816
13407TIP3    H161712   2.514   6.566   0.791 -0.6040 -1.1264  0.0476
13407TIP3    H261713   2.537   6.463   0.682  1.0467  0.1035 -0.8196
13408TIP3   OH261714   3.050   2.626   0.410 -0.0471 -0.1041 -0.2867
13408TIP3    H161715   3.064   2.585   0.324  0.9013  0.9733 -0.6721
13408TIP3    H261716   2.980   2.690   0.396 -1.7464 -1.7283  0.3875
13409TIP3   OH261717   6.317   2.986  15.016  0.2694 -0.2411 -0.1572
13409TIP3    H161718   6.384   2.958  15.077  0.1117  1.3907  0.8378
13409TIP3    H261719   6.236   2.989  15.068 -0.5267 -1.7893 -1.2316
13410TIP3   OH261720   5.675   2.243  14.172 -0.2820  0.1310  0.2060
13410TIP3    H161721   5.677   2.256  14.078  0.3640 -0.6897  0.0972
13410TIP3    H261722   5.637   2.156  14.183  1.3164 -0.5492  0.6054
13411TIP3   OH261723   3.112   6.264   5.553 -0.3186  0.5535 -0.1793
13411TIP3    H161724   3.180   6.316   5.510  0.4765  1.5576  2.0985
13411TIP3    H261725   3.086   6.317   5.628 -2.6024 -0.4842 -0.1625
13412TIP3   OH261726   3.937   5.813  14.187  1.0985 -0.3721  0.0779
13412TIP3    H161727   3.874   5.820  14.258  1.0715  0.0788  0.0154
13412TIP3    H261728   3.931   5.897  14.141  0.1883 -1.1200 -1.2377
13413TIP3   OH261729   1.081   1.678  11.970  0.3491 -0.1669 -0.5024
13413TIP3    H161730   1.013   1.623  12.009  1.6822 -0.6618  1.2148
13413TIP3    H261731   1.098   1.639  11.885 -0.7612 -0.6452 -0.5263
13414TIP3   OH261732   2.229   0.479   4.788  0.4046  0.0108  0.2772
13414TIP3    H161733   2.284   0.558   4.787  0.6219 -0.1330  0.7982
13414TIP3    H261734   2.292   0.407   4.782  0.1481 -0.1200 -1.6873
13415TIP3   OH261735   3.447   1.849   2.352  0.1029 -0.2377  0.2577
13415TIP3    H161736   3.384   1.866   2.422  0.4835 -0.8381  0.7605
13415TIP3    H261737   3.394   1.810   2.281 -0.3227  0.6044  0.1008
13416TIP3   OH261738   6.395   0.538   2.388  0.3805 -0.3566 -0.2928
13416TIP3    H161739   6.379   0.483   2.311  1.1017 -0.7995 -0.1340
13416TIP3    H261740   6.438   0.479   2.450  1.7665  0.5517 -0.3651
13417TIP3   OH261741   1.672   2.641   3.490 -0.1588 -0.2364  0.2286
13417TIP3    H161742   1.761   2.651   3.522 -0.4050  1.6381  0.4451
13417TIP3    H261743   1.680   2.640   3.395  0.2082 -1.7196  0.2517
13418TIP3   OH261744   1.429   0.372  10.060  0.5455 -0.1779 -0.2864
13418TIP3    H161745   1.511   0.395  10.015  0.1962 -1.6684 -1.7762
13418TIP3    H261746   1.447   0.287  10.101 -0.4544 -0.8993 -1.2800
13419TIP3   OH261747   4.263   5.910   5.296 -0.2980  0.3769  0.4727
13419TIP3    H161748   4.290   5.996   5.262  0.1836  0.4202  0.9491
13419TIP3    H261749   4.328   5.849   5.263 -0.4332  0.2530  0.4359
13420TIP3   OH261750   5.641   5.326   3.388 -0.2551 -0.0339 -0.2639
13420TIP3    H161751   5.689   5.388   3.444 -1.5891  0.4422  0.3831
13420TIP3    H261752   5.607   5.381   3.317 -1.2177 -0.0611  0.1678
13421TIP3   OH261753   4.960   5.636   2.202  0.4375  0.5847  0.0793
13421TIP3    H161754   5.021   5.694   2.158  1.1121  0.3805  0.7345
13421TIP3    H261755   4.942   5.679   2.286  0.4733  0.1384  0.3169
13422TIP3   OH261756   2.744   4.743   1.673 -0.5526 -0.1478 -0.1062
13422TIP3    H161757   2.780   4.718   1.587  0.5047 -0.5460  0.4304
13422TIP3    H261758   2.658   4.701   1.675  1.4780 -5.0618  1.1929
13423TIP3   OH261759   1.430   4.946  15.525  0.0699 -0.5000  0.4390
13423TIP3    H161760   1.395   4.916  15.441  2.8523 -1.0789 -0.5931
13423TIP3    H261761   1.518   4.909  15.530  0.7361  1.1565  2.7148
13424TIP3   OH261762   1.835   0.573  14.720 -0.3160  0.0290  0.3343
13424TIP3    H161763   1.822   0.613  14.806  1.1190  0.7166  0.2580
13424TIP3    H261764   1.851   0.647  14.661  0.6946 -0.5382 -0.1304
13425TIP3   OH261765   6.397   1.525   5.616 -0.3386  0.5205  0.1236
13425TIP3    H161766   6.434   1.437   5.625  2.3134  1.5570  0.1544
13425TIP3    H261767   6.377   1.551   5.706  0.8517  0.6883  0.3644
13426TIP3   OH261768   4.040   0.327   3.239  0.4874  0.1162  0.7731
13426TIP3    H161769   3.962   0.363   3.196  0.0835 -1.2470  0.3094
13426TIP3    H261770   4.011   0.243   3.274  1.1982  0.5695  2.5232
13427TIP3   OH261771   4.486   1.040   4.461 -0.4009  0.4296  0.3073
13427TIP3    H161772   4.426   1.008   4.393  1.3908  1.4761 -1.8799
13427TIP3    H261773   4.539   0.964   4.484  0.2774  0.5179 -0.9236
13428TIP3   OH261774   3.921   6.275   2.497 -0.9545  0.2131 -0.0626
13428TIP3    H161775   3.925   6.367   2.471  1.2473  1.1608  3.1561
13428TIP3    H261776   3.992   6.264   2.560  0.3513 -4.2981 -1.8952
13429TIP3   OH261777   6.443   6.265  16.543 -0.5265 -0.3678 -0.2048
13429TIP3    H161778   6.386   6.341  16.529  1.7502  1.2625 -1.4242
13429TIP3    H261779   6.449   6.223  16.457 -1.1115 -1.4517  0.2739
13430TIP3   OH261780   5.430   2.220   4.859 -0.3549 -0.4727 -0.3377
13430TIP3    H161781   5.513   2.236   4.813  0.2480  0.2145  0.9267
13430TIP3    H261782   5.368   2.279   4.817  0.4676  1.0092  0.4507
13431TIP3   OH261783   3.733   0.280   3.912 -0.2088 -0.2490  0.2035
13431TIP3    H161784   3.642   0.255   3.900 -0.7862  1.9940 -0.7637
13431TIP3    H261785   3.739   0.307   4.003 -0.4090 -0.7916  0.3764
13432TIP3   OH261786   2.880   0.985  13.714  0.0595 -0.8021 -0.5223
13432TIP3    H161787   2.826   1.052  13.757  1.9646 -0.5888  1.7565
13432TIP3    H261788   2.914   1.029  13.636 -1.6600 -0.3950 -1.0813
13433TIP3   OH261789   6.456   3.282   5.923 -0.3205  0.5013 -0.9644
13433TIP3    H161790   6.543   3.254   5.895 -0.8309 -2.3473 -0.0916
13433TIP3    H261791   6.465   3.375   5.942  2.6927  0.1885 -0.3428
13434TIP3   OH261792   6.510   6.420  14.780 -0.2295  0.1881 -0.3842
13434TIP3    H161793   6.544   6.501  14.743  2.3156  0.5248  2.2699
13434TIP3    H261794   6.513   6.435  14.875 -0.7753 -2.6118  0.1532
13435TIP3   OH261795   0.053   4.549  11.232  0.5922 -0.0802  0.1303
13435TIP3    H161796   0.051   4.586  11.144  2.2851  1.2105  0.5732
13435TIP3    H261797  -0.033   4.507  11.242 -0.1757  0.9371 -1.6134
13436TIP3   OH261798   0.811   5.625  16.109 -0.3419  0.0143 -0.2806
13436TIP3    H161799   0.762   5.582  16.179  0.9348  0.6790  1.0647
13436TIP3    H261800   0.772   5.712  16.102 -1.5689 -0.5972 -1.5932
13437TIP3   OH261801   2.329   2.560  16.369 -0.0401 -0.0178 -0.7447
13437TIP3    H161802   2.340   2.580  16.462 -1.3347  2.4825 -1.0485
13437TIP3    H261803   2.292   2.472  16.368 -0.7373  0.2123  1.1535
13438TIP3   OH261804   2.888   0.214   3.396  0.0655 -0.2118 -0.1047
13438TIP3    H161805   2.867   0.143   3.457  0.3645 -1.1614 -1.0750
13438TIP3    H261806   2.892   0.171   3.310 -2.6583  1.4479 -1.1896
13439TIP3   OH261807   2.418   1.784  11.525  0.3007  0.3867  0.2434
13439TIP3    H161808   2.364   1.855  11.491 -2.1422 -1.0117  0.9079
13439TIP3    H261809   2.468   1.752  11.450  0.1125  1.6593 -0.4393
13440TIP3   OH261810   6.209   3.122  13.689  0.5656 -0.0209  0.1636
13440TIP3    H161811   6.243   3.187  13.627 -1.8031  2.5233  1.3198
13440TIP3    H261812   6.230   3.037  13.648  0.3512  1.4684 -3.4478
13441TIP3   OH261813   1.859   6.257   3.732  0.0937  0.6891  0.8528
13441TIP3    H161814   1.917   6.325   3.766  0.0957  1.0746  0.0888
13441TIP3    H261815   1.799   6.302   3.673  0.2579 -0.0018  0.1364
13442TIP3   OH261816   6.570   6.670   4.928 -0.4019  0.2954  0.2118
13442TIP3    H161817   6.615   6.586   4.917  0.0849  0.6397 -0.5184
13442TIP3    H261818   6.630   6.735   4.892  0.3650  1.3061  3.0571
13443TIP3   OH261819   6.122   3.479   4.219  0.7071  0.4583 -0.5829
13443TIP3    H161820   6.145   3.464   4.311  1.9342  0.6558 -0.8345
13443TIP3    H261821   6.206   3.499   4.177  0.1144  0.6874 -1.6840
13444TIP3   OH261822   6.736   4.128  16.363  0.3015  0.0513 -0.8147
13444TIP3    H161823   6.689   4.168  16.290 -0.3450  2.2258  0.7028
13444TIP3    H261824   6.821   4.172  16.364  0.5101 -0.3491 -0.5564
13445TIP3   OH261825   0.172   1.717   2.960  0.4822  0.5253  0.7246
13445TIP3    H161826   0.088   1.761   2.949 -0.8165 -1.7415  0.9349
13445TIP3    H261827   0.197   1.689   2.872  0.5390  0.3767  0.7879
13446TIP3   OH261828   4.473   4.465  12.557  0.8357 -0.1025 -0.4928
13446TIP3    H161829   4.456   4.380  12.516  2.7134 -0.7968  0.0381
13446TIP3    H261830   4.491   4.443  12.649  1.9967  0.7518 -0.4871
13447TIP3   OH261831   3.168   2.651   5.102  0.1089 -0.0214  0.1167
13447TIP3    H161832   3.123   2.732   5.123 -2.2183 -1.0149 -0.6959
13447TIP3    H261833   3.196   2.616   5.186 -1.0285  0.4467  0.6986
13448TIP3   OH261834   1.161   1.072   3.522  0.3698  0.0260  0.2713
13448TIP3    H161835   1.112   1.127   3.583 -2.1112 -1.3867 -0.3138
13448TIP3    H261836   1.229   1.031   3.576  1.0051  2.0538  1.1169
13449TIP3   OH261837   5.720   3.854   5.410 -0.3312 -0.1145  0.5625
13449TIP3    H161838   5.672   3.920   5.360  1.1717  0.4316 -0.2378
13449TIP3    H261839   5.653   3.806   5.458 -1.6659  0.4984 -0.6277
13450TIP3   OH261840   0.219   3.449  14.883 -0.3235  0.6005  0.1830
13450TIP3    H161841   0.161   3.514  14.844 -1.0847 -0.9445 -1.4157
13450TIP3    H261842   0.161   3.394  14.936  0.2790  1.0950  1.3800
13451TIP3   OH261843   2.788   3.160  12.119 -0.2604  0.4482 -0.3247
13451TIP3    H161844   2.724   3.179  12.050  0.0908  0.6689 -0.5924
13451TIP3    H261845   2.872   3.189  12.082  0.1501 -0.7646 -0.3810
13452TIP3   OH261846   1.819   2.957   3.081 -0.4511 -1.0968 -0.0328
13452TIP3    H161847   1.808   3.030   3.142 -0.2001  0.9806 -2.3349
13452TIP3    H261848   1.733   2.947   3.039 -1.3316 -4.0705  2.1200
13453TIP3   OH261849   1.811   1.976   2.210 -0.0342 -0.0478 -0.1706
13453TIP3    H161850   1.830   1.899   2.158  0.8447  1.1800 -1.7436
13453TIP3    H261851   1.871   2.043   2.177 -0.0220  1.0227  1.8739
13454TIP3   OH261852   4.861   1.999  11.757 -0.2771  0.3242  0.0904
13454TIP3    H161853   4.919   2.047  11.816  0.1862  0.5190 -0.5095
13454TIP3    H261854   4.863   2.049  11.675 -0.8428  0.0134 -0.1200
13455TIP3   OH261855   6.715   0.977  12.505 -0.1633  0.1077  0.2761
13455TIP3    H161856   6.680   1.057  12.466  0.0189  0.4101  0.7186
13455TIP3    H261857   6.643   0.943  12.559 -0.0170  0.3453  0.6258
13456TIP3   OH261858   1.466   2.049   3.008  0.5675  0.6910  0.1397
13456TIP3    H161859   1.438   2.137   2.983  0.1486  0.4925 -0.0985
13456TIP3    H261860   1.495   2.008   2.926  1.6266  0.9080  0.3850
13457TIP3   OH261861   4.125   5.126   0.585  0.3903 -0.0981 -0.0191
13457TIP3    H161862   4.200   5.092   0.634  0.8324  0.0116 -0.6177
13457TIP3    H261863   4.144   5.219   0.573 -0.8862  0.4421  1.7422
13458TIP3   OH261864   6.736   1.368   6.326 -0.3374 -0.5401 -0.6927
13458TIP3    H161865   6.782   1.450   6.341 -1.6857  0.2936 -1.0072
13458TIP3    H261866   6.694   1.349   6.410  0.1911 -1.0666 -0.5394
13459TIP3   OH261867   6.194   0.069  15.870  0.0613  0.1239 -0.2046
13459TIP3    H161868   6.163   0.016  15.797 -0.8155  0.0721  0.2002
13459TIP3    H261869   6.230   0.005  15.932 -0.6068  0.0255  0.0924
13460TIP3   OH261870   5.800   2.240  11.342  0.0422 -0.2369  0.0208
13460TIP3    H161871   5.752   2.196  11.413 -0.3903 -0.9324 -0.6934
13460TIP3    H261872   5.850   2.170  11.300  1.3948  0.4124  0.5046
13461TIP3   OH261873   2.169   1.819  12.623  0.3297  0.1227  0.9021
13461TIP3    H161874   2.212   1.810  12.708  0.0312  0.5509  1.1017
13461TIP3    H261875   2.241   1.828  12.561  0.7360 -3.5151  0.6278
13462TIP3   OH261876   5.120   3.569   3.429  0.3470 -0.4162  0.1439
13462TIP3    H161877   5.122   3.494   3.488  1.9705 -1.0313 -0.6355
13462TIP3    H261878   5.207   3.607   3.435  0.4105 -0.2114 -1.4660
13463TIP3   OH261879   3.071   5.944   3.650  0.1110 -0.1055  1.0066
13463TIP3    H161880   3.056   5.928   3.557 -1.3637 -0.1641  1.2401
13463TIP3    H261881   3.083   5.857   3.688  1.2949 -0.0507  0.7990
13464TIP3   OH261882   5.760   1.545  12.184 -0.5757 -0.0893  0.0871
13464TIP3    H161883   5.808   1.612  12.233  1.1298  0.0256 -1.6096
13464TIP3    H261884   5.749   1.473  12.246  1.9380 -0.1469  0.5574
13465TIP3   OH261885   4.914   2.905   0.174 -0.3603 -0.2949 -0.0449
13465TIP3    H161886   4.958   2.989   0.187  0.9317 -0.8313 -0.7060
13465TIP3    H261887   4.930   2.884   0.081 -1.5818 -0.7732 -0.1646
13466TIP3   OH261888   4.534   5.430   3.666 -0.0662 -0.2441 -0.1505
13466TIP3    H161889   4.514   5.505   3.611 -1.0854 -0.9228 -0.7344
13466TIP3    H261890   4.583   5.371   3.608  0.7268 -0.0564  0.3041
13467TIP3   OH261891   4.800   5.809  17.096  0.1065 -0.3926  0.2832
13467TIP3    H161892   4.705   5.808  17.095  0.0391 -2.7221  1.9927
13467TIP3    H261893   4.825   5.719  17.118  2.7256 -0.0125 -0.7548
13468TIP3   OH261894   1.428   0.411  14.445 -0.3195  0.3376 -0.4186
13468TIP3    H161895   1.457   0.320  14.457  0.2978  0.5215 -0.4688
13468TIP3    H261896   1.417   0.420  14.350 -2.2112 -0.2226 -0.2808
13469TIP3   OH261897   4.568   2.878  14.459  0.4505  0.0198  0.2570
13469TIP3    H161898   4.578   2.784  14.470 -1.3784 -0.3470 -0.8692
13469TIP3    H261899   4.501   2.903  14.522 -0.5152  0.1947 -0.8101
13470TIP3   OH261900   3.131   6.636   3.056 -0.2577 -0.3303 -0.0477
13470TIP3    H161901   3.123   6.731   3.067  0.4412 -0.2972  0.2387
13470TIP3    H261902   3.042   6.606   3.038 -0.6473  0.2505  0.8510
13471TIP3   OH261903   5.735   1.441  15.029 -0.4151 -0.3005 -0.1767
13471TIP3    H161904   5.828   1.438  15.052 -0.1826  0.5104 -0.9357
13471TIP3    H261905   5.713   1.352  15.004  0.6667 -0.1574 -1.7867
13472TIP3   OH261906   3.974   2.274   0.318 -0.6211 -0.2359 -0.0196
13472TIP3    H161907   3.905   2.232   0.369 -1.1042 -0.8771 -1.1745
13472TIP3    H261908   3.936   2.290   0.232  0.6839 -0.6846 -0.7167
13473TIP3   OH261909   5.025   2.216  10.919  0.3142  0.3608  0.0083
13473TIP3    H161910   4.965   2.145  10.944 -0.3470  0.9811  0.2421
13473TIP3    H261911   5.099   2.172  10.877 -0.0908 -0.4609  0.1347
13474TIP3   OH261912   4.733   6.321  14.423 -0.2766  0.0828  0.1785
13474TIP3    H161913   4.699   6.332  14.334  0.1337  1.4758  0.1744
13474TIP3    H261914   4.741   6.410  14.457  1.2221 -0.3303  0.9900
13475TIP3   OH261915   1.842   5.975   1.513  0.2197 -0.0468  0.0991
13475TIP3    H161916   1.845   5.966   1.608  0.3908 -1.3380 -0.0155
13475TIP3    H261917   1.888   6.057   1.496  1.5333 -0.5542  1.0325
13476TIP3   OH261918   3.547   1.370  13.118 -0.6007  0.2139 -0.0908
13476TIP3    H161919   3.498   1.351  13.199 -0.7574  1.0642  0.0211
13476TIP3    H261920   3.512   1.454  13.088 -0.8977 -0.3358 -1.3260
13477TIP3   OH261921   5.376   6.283   4.751 -0.3279 -0.0734 -0.2801
13477TIP3    H161922   5.392   6.223   4.824  0.2159  1.3135  0.7708
13477TIP3    H261923   5.306   6.340   4.781  0.1196  0.7119 -0.7090
13478TIP3   OH261924   2.120   6.105   2.293 -0.1889 -0.5372  0.2965
13478TIP3    H161925   2.081   6.018   2.301  1.5701 -1.2211  2.1828
13478TIP3    H261926   2.155   6.108   2.204 -2.8705 -0.5323 -0.8700
13479TIP3   OH261927   1.543   3.966   2.158 -1.0166 -0.2979 -0.0002
13479TIP3    H161928   1.562   3.879   2.122  0.2534 -0.0459  0.0141
13479TIP3    H261929   1.451   3.982   2.134 -0.8056 -0.9685 -1.3940
13480TIP3   OH261930   1.169   0.362  14.658  0.4497 -0.1042  0.0130
13480TIP3    H161931   1.203   0.305  14.727 -0.3510 -0.8387 -0.1736
13480TIP3    H261932   1.105   0.417  14.702  0.6392  0.0987  0.0367
13481TIP3   OH261933   6.320   2.207   0.597 -0.4225  0.1783  0.3035
13481TIP3    H161934   6.279   2.120   0.595 -0.0792 -0.0528  1.9220
13481TIP3    H261935   6.354   2.219   0.508 -0.0460 -1.5651  0.1608
13482TIP3   OH261936   1.337   1.138   4.960  0.1358 -0.0228  0.5791
13482TIP3    H161937   1.363   1.140   4.868 -2.2644 -2.0217 -0.2694
13482TIP3    H261938   1.379   1.060   4.995  0.0619  0.0575  0.8473
13483TIP3   OH261939   2.949   5.894  11.813 -0.1704  0.8239  0.1973
13483TIP3    H161940   2.925   5.960  11.878 -2.7231 -0.0025  0.2349
13483TIP3    H261941   2.945   5.811  11.859 -2.3979  0.1820 -0.9654
13484TIP3   OH261942   1.366   2.366  11.917 -0.2090 -0.1428  0.0415
13484TIP3    H161943   1.325   2.452  11.918  0.6550  0.2767  1.0193
13484TIP3    H261944   1.292   2.305  11.919 -0.8226  0.5894  1.4012
13485TIP3   OH261945   4.058   3.175  13.688 -0.1040 -0.6834 -0.2755
13485TIP3    H161946   3.995   3.189  13.618 -0.5798 -0.2555  0.2358
13485TIP3    H261947   4.057   3.080  13.703 -0.7134 -0.6680 -0.1935
13486TIP3   OH261948   1.567   4.693   4.299 -0.1742  0.6408  0.5051
13486TIP3    H161949   1.507   4.745   4.245 -0.6603 -0.2353  0.1919
13486TIP3    H261950   1.653   4.708   4.260  0.0340  2.8177  1.6403
13487TIP3   OH261951   2.410   1.013   5.751 -0.2636 -0.7224 -0.3852
13487TIP3    H161952   2.376   0.961   5.678 -1.5884  0.0149 -0.3340
13487TIP3    H261953   2.383   0.966   5.829  0.1580 -0.9158 -0.3536
13488TIP3   OH261954   3.819   4.001  12.781 -0.0953  0.0203 -0.3242
13488TIP3    H161955   3.739   3.961  12.747  1.0269 -1.9005 -0.8415
13488TIP3    H261956   3.888   3.974  12.720  1.2130  0.2975  0.9649
13489TIP3   OH261957   4.018   3.920   4.209  0.1078 -0.1922  0.2254
13489TIP3    H161958   4.059   4.000   4.244  0.7094  0.6106 -2.1432
13489TIP3    H261959   4.088   3.855   4.210 -0.4180 -0.8089  2.2840
13490TIP3   OH261960   1.650   5.045  16.927  0.8843  0.5741 -0.6789
13490TIP3    H161961   1.729   5.096  16.942  0.1868  1.0172  1.9031
13490TIP3    H261962   1.644   4.985  17.001 -1.1816  0.5395 -0.7972
13491TIP3   OH261963   2.750   3.308  11.229  0.0317  0.5973 -0.1338
13491TIP3    H161964   2.817   3.330  11.165  0.3389  0.4021  0.1163
13491TIP3    H261965   2.773   3.220  11.260 -0.8075  0.1901 -0.6372
13492TIP3   OH261966   2.930   4.999  16.514  0.6060  0.9332 -0.4490
13492TIP3    H161967   2.963   4.983  16.426  1.8098 -0.2255  0.1884
13492TIP3    H261968   2.930   4.913  16.556 -1.1969  1.2541  0.2851
13493TIP3   OH261969   0.512   6.416   0.496 -0.6619  0.6253 -0.4464
13493TIP3    H161970   0.417   6.407   0.499 -0.6536  0.7200  1.4681
13493TIP3    H261971   0.545   6.326   0.488 -0.9088  0.4535  0.3551
13494TIP3   OH261972   1.589   0.200   3.655 -0.2510  0.1837 -1.0373
13494TIP3    H161973   1.580   0.123   3.599  0.5692  1.4596 -3.0445
13494TIP3    H261974   1.570   0.274   3.597  0.9532  1.5995  0.2958
13495TIP3   OH261975   6.855   2.097  14.347  0.1363  0.0696  0.1880
13495TIP3    H161976   6.806   2.109  14.265  0.2298 -1.0808 -0.0641
13495TIP3    H261977   6.940   2.136  14.330 -0.9141  2.8844  0.9258
13496TIP3   OH261978   4.694   3.340   1.926  0.2764 -0.5743  0.1030
13496TIP3    H161979   4.718   3.304   1.840 -0.5485 -0.6134 -0.1140
13496TIP3    H261980   4.671   3.264   1.979  0.0385 -0.4887  0.1222
13497TIP3   OH261981   1.760   2.000   2.914 -0.0376  0.0584  0.0782
13497TIP3    H161982   1.802   1.915   2.902 -2.1026 -0.9270 -0.6373
13497TIP3    H261983   1.772   2.020   3.006  1.0827 -0.6619  0.1083
13498TIP3   OH261984   0.544   1.682   3.349 -0.7148  0.8807 -0.4767
13498TIP3    H161985   0.636   1.692   3.324 -0.6527  0.2075 -0.5452
13498TIP3    H261986   0.510   1.618   3.287 -0.8313 -0.0257  0.4966
13499TIP3   OH261987   1.858   6.173   1.034  0.3853 -0.0284  0.5857
13499TIP3    H161988   1.913   6.201   0.960 -0.0639 -0.9191 -0.1128
13499TIP3    H261989   1.772   6.156   0.995 -0.0661  0.2204  1.4559
13500TIP3   OH261990   5.424   1.640  12.637  0.5486  0.9886  0.3548
13500TIP3    H161991   5.380   1.619  12.720 -0.7439  1.3014 -0.2272
13500TIP3    H261992   5.433   1.555  12.593 -0.6007  1.0670 -0.0519
13501TIP3   OH261993   4.115   1.835  12.721 -0.2015 -0.4860 -0.6166
13501TIP3    H161994   4.089   1.857  12.632 -2.0130  0.3288  0.0375
13501TIP3    H261995   4.180   1.901  12.744 -1.2208  0.5821 -0.6880
13502TIP3   OH261996   0.734   5.541   5.054  0.3788 -0.1769 -0.5856
13502TIP3    H161997   0.804   5.502   5.001  1.3169 -1.3875  1.4308
13502TIP3    H261998   0.654   5.526   5.003  1.3026 -0.5878 -1.9864
13503TIP3   OH261999   0.320   5.386  12.416  0.1986  0.1606 -0.3639
13503TIP3    H162000   0.395   5.427  12.373  1.6752 -1.3248  0.6918
13503TIP3    H262001   0.351   5.364  12.504 -0.0891 -4.1668 -1.1713
13504TIP3   OH262002   3.489   1.652   3.115  0.1190 -0.5777  0.0238
13504TIP3    H162003   3.423   1.604   3.166 -0.7254  0.2354 -0.2721
13504TIP3    H262004   3.447   1.735   3.093  0.9780 -0.3387 -0.8084
13505TIP3   OH262005   0.509   5.975  15.342 -0.0458 -0.4092  0.2700
13505TIP3    H162006   0.565   6.052  15.352  0.8157 -0.8934 -0.7213
13505TIP3    H262007   0.469   5.986  15.256 -0.7856 -0.5268  0.5908
13506TIP3   OH262008   3.452   0.423   1.242  0.0796  0.2751 -0.4264
13506TIP3    H162009   3.518   0.355   1.253  0.2006  0.2985 -0.9841
13506TIP3    H262010   3.382   0.381   1.192 -0.7087  0.0103  0.8247
13507TIP3   OH262011   5.103   5.516  16.953 -0.6292  0.4132 -0.5403
13507TIP3    H162012   5.020   5.513  17.001 -0.6015 -0.6202 -0.5306
13507TIP3    H262013   5.092   5.453  16.882 -0.1960  0.9838 -1.1228
13508TIP3   OH262014   4.444   0.739  12.638 -0.5379  0.2721 -0.5477
13508TIP3    H162015   4.388   0.671  12.601  0.1156  0.0547 -1.1584
13508TIP3    H262016   4.525   0.694  12.661 -1.0902  0.2912  1.6739
13509TIP3   OH262017   5.110   3.898  11.328  0.1917  0.0627 -0.3333
13509TIP3    H162018   5.205   3.904  11.320  0.1399  0.7711 -0.5210
13509TIP3    H262019   5.076   3.939  11.248 -0.2717  0.5607  0.1057
13510TIP3   OH262020   1.245   2.932   3.762 -0.6165  0.0601  0.5305
13510TIP3    H162021   1.319   2.871   3.756 -1.8815 -1.4103 -0.9339
13510TIP3    H262022   1.276   3.012   3.719  0.5075 -0.1119  0.9882
13511TIP3   OH262023   4.532   6.001  12.372 -0.2913 -0.5110  0.4078
13511TIP3    H162024   4.522   5.909  12.349  2.9569 -0.9993  0.4655
13511TIP3    H262025   4.554   6.000  12.465  0.3100  0.2843  0.2784
13512TIP3   OH262026   5.740   2.251   1.874 -0.2095 -0.0730 -0.4217
13512TIP3    H162027   5.772   2.267   1.785  0.6804  2.2771  0.2172
13512TIP3    H262028   5.819   2.233   1.924 -0.2522  1.9312  0.4606
13513TIP3   OH262029   2.457   0.538  10.829  0.0591 -0.8583  0.0500
13513TIP3    H162030   2.512   0.598  10.779  0.7410 -0.6529  1.0146
13513TIP3    H262031   2.519   0.483  10.877 -0.5695 -1.8175 -0.2178
13514TIP3   OH262032   3.821   3.317   3.637  0.3079  0.1954  0.1309
13514TIP3    H162033   3.740   3.271   3.662 -0.2182  0.7400 -0.5403
13514TIP3    H262034   3.877   3.309   3.714 -0.7121  0.5619  0.9378
13515TIP3   OH262035   6.348   5.475   0.951  0.1004  0.3111 -0.2245
13515TIP3    H162036   6.388   5.389   0.934 -2.1794 -1.0308  0.7164
13515TIP3    H262037   6.337   5.477   1.046 -0.7814  1.2194 -0.3402
13516TIP3   OH262038   3.331   1.932   5.590  0.1312 -0.2597  0.1608
13516TIP3    H162039   3.410   1.986   5.588  0.3518 -0.4433 -3.6787
13516TIP3    H262040   3.358   1.848   5.554 -1.6500 -0.5869 -0.5182
13517TIP3   OH262041   4.444   4.169  12.504 -0.1110 -0.5994 -0.6080
13517TIP3    H162042   4.529   4.161  12.548 -0.2327  0.1268 -0.2310
13517TIP3    H262043   4.380   4.173  12.575 -0.6356 -2.7694 -0.9052
13518TIP3   OH262044   6.657   3.025  13.846 -0.0751 -0.4094  0.0576
13518TIP3    H162045   6.658   2.930  13.837 -0.1419 -0.3792 -0.2757
13518TIP3    H262046   6.711   3.042  13.923  0.4345 -0.6783 -0.2363
13519TIP3   OH262047   3.645   4.531   2.670 -0.1628 -0.0116 -0.4807
13519TIP3    H162048   3.683   4.617   2.653  0.6398 -0.3726 -0.5554
13519TIP3    H262049   3.606   4.538   2.757  0.6145  0.1882 -0.1454
13520TIP3   OH262050   0.248   5.873   1.032 -0.2959  0.0476  0.0900
13520TIP3    H162051   0.305   5.947   1.055  0.9013 -0.7532 -0.2318
13520TIP3    H262052   0.161   5.912   1.025  0.1831  1.2905  0.6756
13521TIP3   OH262053   6.728   0.609   1.632  0.4970  0.6636  0.1401
13521TIP3    H162054   6.683   0.529   1.606  3.2618 -1.8191  2.3458
13521TIP3    H262055   6.666   0.653   1.691 -0.4067 -0.7777  0.3054
13522TIP3   OH262056   3.048   5.070   0.486  0.0213  0.8879  0.1270
13522TIP3    H162057   3.010   5.038   0.568 -0.4382 -1.7477 -0.9961
13522TIP3    H262058   3.131   5.022   0.479  0.3984  1.6253 -0.6118
13523TIP3   OH262059   2.836   3.967   2.683  0.4383 -0.2551  0.0468
13523TIP3    H162060   2.848   3.970   2.778 -0.1616  1.4904  0.1061
13523TIP3    H262061   2.853   3.876   2.659  1.9571 -0.4470  1.6342
13524TIP3   OH262062   2.650   1.420   1.471  0.5947 -0.2772 -0.5089
13524TIP3    H162063   2.589   1.399   1.541 -0.1278  0.1508 -0.9964
13524TIP3    H262064   2.719   1.353   1.478  0.6815 -0.0775  0.7561
13525TIP3   OH262065   5.933   3.144   0.675 -0.0569  0.7834  0.1051
13525TIP3    H162066   5.964   3.054   0.687 -2.5497 -0.1575 -0.0319
13525TIP3    H262067   6.011   3.192   0.647  1.3663 -1.2983  0.2663
13526TIP3   OH262068   4.489   5.080  15.026  0.4091 -0.0718 -0.3016
13526TIP3    H162069   4.533   5.165  15.033 -0.6063  0.4672 -0.2803
13526TIP3    H262070   4.396   5.101  15.029  0.1444 -1.2023 -0.2002
13527TIP3   OH262071   6.519   2.288  15.398  0.3795 -0.2121 -0.5026
13527TIP3    H162072   6.598   2.243  15.426 -0.3651 -1.0764  0.2895
13527TIP3    H262073   6.548   2.375  15.372  1.4505 -0.1886  0.7133
13528TIP3   OH262074   5.741   3.676  13.478  0.1637  0.5765  0.2984
13528TIP3    H162075   5.716   3.759  13.519  1.0436  0.1526  1.7776
13528TIP3    H262076   5.781   3.625  13.549 -0.2928 -1.0970 -0.5881
13529TIP3   OH262077   2.686   1.443  14.761  0.3692  0.4790 -0.7954
13529TIP3    H162078   2.765   1.419  14.713 -0.3853  0.5739 -2.1254
13529TIP3    H262079   2.616   1.439  14.696 -0.4531  2.1185 -0.0656
13530TIP3   OH262080   2.779   2.008   2.294 -0.6316  0.5089  0.3085
13530TIP3    H162081   2.732   1.988   2.213 -0.8293 -2.2206  0.9971
13530TIP3    H262082   2.871   1.990   2.274 -0.5351  0.8661  0.4133
13531TIP3   OH262083   5.156   1.288  13.381 -0.3092  0.6104  0.5470
13531TIP3    H162084   5.158   1.351  13.453  1.9321  2.4484 -1.0007
13531TIP3    H262085   5.245   1.287  13.347 -0.6798 -2.1481 -0.6332
13532TIP3   OH262086   5.333   0.649  16.728 -0.3923  1.0161  0.0589
13532TIP3    H162087   5.409   0.619  16.778  0.6832 -1.4873 -2.7535
13532TIP3    H262088   5.347   0.743  16.716  0.0434  1.4240  3.0306
13533TIP3   OH262089   5.410   2.768   4.318 -0.8224  0.0151 -0.2179
13533TIP3    H162090   5.456   2.721   4.388 -0.1869 -0.7665 -1.1283
13533TIP3    H262091   5.455   2.852   4.312  1.1810 -1.0644 -1.6945
13534TIP3   OH262092   2.743   4.575  13.851 -0.6372 -0.3610  0.1097
13534TIP3    H162093   2.708   4.662  13.871 -0.1263 -0.3122  0.7949
13534TIP3    H262094   2.809   4.591  13.784 -0.1025 -0.1387  0.6823
13535TIP3   OH262095   0.059   1.134   6.020 -0.1979  0.6611  0.1093
13535TIP3    H162096  -0.027   1.147   6.060 -0.1531  0.2679  0.3358
13535TIP3    H262097   0.081   1.043   6.039  1.2714  1.3611  2.0314
13536TIP3   OH262098   6.597   6.527   1.355 -0.4241  0.0713 -0.3821
13536TIP3    H162099   6.626   6.605   1.308  1.6419 -0.8824 -0.7827
13536TIP3    H262100   6.517   6.500   1.310  0.1118  0.6401 -1.7116
13537TIP3   OH262101   5.296   6.301   1.867 -0.5518  0.0565 -0.0262
13537TIP3    H162102   5.383   6.339   1.854 -0.9163  0.8690 -0.1251
13537TIP3    H262103   5.292   6.280   1.960 -0.0689 -0.4438 -0.1136
13538TIP3   OH262104   0.777   0.588  16.299 -0.3789 -0.3775 -0.1909
13538TIP3    H162105   0.748   0.498  16.286 -2.1744 -0.0500  1.1462
13538TIP3    H262106   0.784   0.598  16.394 -1.2330  1.1706 -0.2560
13539TIP3   OH262107   0.600   3.995  12.256 -0.7023 -0.1477  0.0922
13539TIP3    H162108   0.588   3.964  12.346  0.4991  0.8480  0.6326
13539TIP3    H262109   0.514   3.985  12.215 -1.5621  0.4091  1.6778
13540TIP3   OH262110   3.247   3.209   5.164 -0.4726  0.0586  0.7264
13540TIP3    H162111   3.246   3.298   5.198  0.7605  0.8298 -1.1534
13540TIP3    H262112   3.175   3.207   5.100  0.8218  0.4075 -0.8034
13541TIP3   OH262113   0.984   0.286   6.055 -0.5254 -0.4294  1.3064
13541TIP3    H162114   1.001   0.321   5.968 -1.4312  0.1234  1.3388
13541TIP3    H262115   1.042   0.210   6.062 -1.5015 -1.3949 -0.3619
13542TIP3   OH262116   0.856   4.679   6.469  0.4775  0.5340 -0.2142
13542TIP3    H162117   0.761   4.684   6.472  0.4395 -0.3123  0.4990
13542TIP3    H262118   0.876   4.586   6.484  1.3812  0.5330 -1.3077
13543TIP3   OH262119   4.718   6.037  13.370  0.1979 -0.2952 -0.4614
13543TIP3    H162120   4.672   6.103  13.318 -1.6002  1.0106  2.5440
13543TIP3    H262121   4.649   5.991  13.417  1.7118 -0.6436  1.5690
13544TIP3   OH262122   2.569   1.955  12.463 -0.0477  0.4294 -0.2746
13544TIP3    H162123   2.562   1.939  12.369 -0.7793 -0.0563 -0.1504
13544TIP3    H262124   2.492   1.912  12.500 -0.5187  1.7818  0.4062
13545TIP3   OH262125   6.482   6.532  16.273  0.3083  0.0071 -0.3678
13545TIP3    H162126   6.533   6.569  16.345  1.2072  0.2436 -1.0947
13545TIP3    H262127   6.404   6.496  16.314 -0.4851  2.4392  0.4335
13546TIP3   OH262128   4.383   6.770  10.911  0.4377 -0.2087  0.0061
13546TIP3    H162129   4.318   6.836  10.886  0.2605 -0.4967 -0.3062
13546TIP3    H262130   4.456   6.785  10.851  1.1652  0.8898  1.1371
13547TIP3   OH262131   6.079   5.637  15.334 -0.2712 -0.1753 -0.2632
13547TIP3    H162132   6.042   5.559  15.293  2.1647 -0.6050 -1.8479
13547TIP3    H262133   6.099   5.609  15.424 -0.4269 -1.0443 -0.4891
13548TIP3   OH262134   4.562   1.314   5.335 -0.4511  0.0052 -0.0093
13548TIP3    H162135   4.601   1.240   5.287  1.3631 -0.8296  2.5233
13548TIP3    H262136   4.553   1.282   5.425  0.1745  2.7664  1.1415
13549TIP3   OH262137   5.541   3.038   3.610 -0.1410 -0.1158  0.1820
13549TIP3    H162138   5.609   2.990   3.657 -0.0752 -0.0803  0.1244
13549TIP3    H262139   5.547   3.127   3.643  0.2009  0.0132 -0.2073
13550TIP3   OH262140   5.457   4.427   4.266 -0.0693 -0.4122 -0.3664
13550TIP3    H162141   5.513   4.498   4.235  0.5761 -0.4680  0.5967
13550TIP3    H262142   5.372   4.469   4.283  0.2471  0.1025  0.0001
13551TIP3   OH262143   5.575   3.397  11.979  0.3467  0.5583  0.6666
13551TIP3    H162144   5.508   3.331  12.001 -0.6286  1.0515 -0.6980
13551TIP3    H262145   5.535   3.480  12.003 -0.1712  0.9858 -1.4245
13552TIP3   OH262146   1.192   3.473  13.829 -0.7776  0.4608  0.1528
13552TIP3    H162147   1.157   3.421  13.756  0.8888 -1.1215  0.3969
13552TIP3    H262148   1.238   3.545  13.787 -2.4357  1.3551 -0.2224
13553TIP3   OH262149   6.644   0.900  11.650  0.0948 -0.6581  0.1186
13553TIP3    H162150   6.708   0.970  11.664  0.8531 -1.0800 -1.0637
13553TIP3    H262151   6.672   0.829  11.708  0.6596 -0.8063 -0.3285
13554TIP3   OH262152   0.304   1.723  12.072 -0.2565  0.2094  0.4217
13554TIP3    H162153   0.280   1.682  11.989  3.4666  2.1273 -1.8786
13554TIP3    H262154   0.294   1.817  12.056  0.1880  0.6165  2.2894
13555TIP3   OH262155   3.533   6.033  14.756  0.4579 -0.0381  0.1757
13555TIP3    H162156   3.525   6.025  14.851  1.3975 -0.7637  0.2054
13555TIP3    H262157   3.484   6.112  14.735  0.8427  0.5457  1.3520
13556TIP3   OH262158   0.014   1.153   5.759 -0.1128  0.3122 -0.0109
13556TIP3    H162159   0.001   1.148   5.854  0.4006 -0.5971  0.0224
13556TIP3    H262160  -0.025   1.236   5.734  1.3399  1.4192  1.2632
13557TIP3   OH262161   0.487   6.191  16.379 -0.3124  0.3018 -0.4182
13557TIP3    H162162   0.513   6.238  16.300  0.3395  0.1827 -0.2746
13557TIP3    H262163   0.478   6.258  16.446 -0.8537  0.4011 -0.5817
13558TIP3   OH262164   4.156   4.851   3.178  0.1344  0.3578  0.1884
13558TIP3    H162165   4.203   4.808   3.250 -0.6689  1.2964  1.3169
13558TIP3    H262166   4.207   4.931   3.161 -0.1438  0.5568  0.2899
13559TIP3   OH262167   4.253   6.694  13.553  0.3349  0.2765  0.2955
13559TIP3    H162168   4.175   6.683  13.500  0.6585  1.3826 -0.4469
13559TIP3    H262169   4.226   6.751  13.625 -0.2183 -1.5757  1.6388
13560TIP3   OH262170   4.127   5.527   6.012 -0.1151  0.1338 -0.2369
13560TIP3    H162171   4.037   5.536   5.982 -0.0003 -0.6884 -0.8688
13560TIP3    H262172   4.154   5.440   5.982  1.4894  1.0557 -1.6804
13561TIP3   OH262173   1.087   2.657   4.932  0.1772 -1.0624 -0.3666
13561TIP3    H162174   1.042   2.634   5.013 -0.8327 -1.1761 -0.9350
13561TIP3    H262175   1.154   2.590   4.921  1.6654  0.0623  1.3739
13562TIP3   OH262176   4.004   1.191  14.170  0.0304 -0.7413 -0.0061
13562TIP3    H162177   3.933   1.255  14.175 -0.4091 -1.2938  1.0590
13562TIP3    H262178   4.016   1.176  14.076 -0.7753 -0.1068 -0.2223
13563TIP3   OH262179   3.908   4.115  10.310 -0.1665 -0.2482 -0.0966
13563TIP3    H162180   3.846   4.184  10.288  0.1841 -0.3933 -1.5895
13563TIP3    H262181   3.976   4.160  10.360 -1.4523 -0.0989  1.6346
13564TIP3   OH262182   3.912   2.265  12.407  1.0142  0.8651  0.7862
13564TIP3    H162183   3.976   2.203  12.442  1.3199  0.7156 -0.0230
13564TIP3    H262184   3.964   2.330  12.359  0.5039  0.0117 -1.0079
13565TIP3   OH262185   2.354   3.321   2.600  0.0983 -0.4973 -0.1056
13565TIP3    H162186   2.394   3.406   2.619 -0.9022 -0.3027  1.3140
13565TIP3    H262187   2.294   3.306   2.674  0.0122 -2.2839 -0.5039
13566TIP3   OH262188   0.162   4.796   5.018 -0.6001  0.0466 -0.0515
13566TIP3    H162189   0.237   4.784   5.076 -0.1980  1.2901 -0.2908
13566TIP3    H262190   0.192   4.764   4.933 -0.4616  0.2380 -0.0730
13567TIP3   OH262191   1.764   4.847   1.617  0.4013  0.3552 -0.3197
13567TIP3    H162192   1.721   4.763   1.608 -0.4327  0.5709  1.2783
13567TIP3    H262193   1.765   4.884   1.529  0.5914 -1.2085 -1.0000
13568TIP3   OH262194   4.839   0.110   5.014 -0.3772 -0.6190  0.4256
13568TIP3    H162195   4.747   0.092   5.030 -0.4606  0.1792  0.8894
13568TIP3    H262196   4.843   0.204   4.997  0.3743 -0.6129  0.5728
13569TIP3   OH262197   0.885   6.163   0.229  0.2073 -0.3181  0.3297
13569TIP3    H162198   0.924   6.130   0.149  2.3371 -0.6581  1.4183
13569TIP3    H262199   0.883   6.258   0.217  2.7724 -0.1430  0.7289
13570TIP3   OH262200   0.037   1.159  14.426 -0.3537 -0.0998  0.2431
13570TIP3    H162201   0.005   1.070  14.444  0.7090 -0.4808  0.3583
13570TIP3    H262202   0.026   1.205  14.509  0.4192 -0.5599  0.6166
13571TIP3   OH262203   2.794   4.578  11.191 -0.0237  0.5731 -0.2079
13571TIP3    H162204   2.725   4.514  11.171 -0.6001  1.4951 -1.2600
13571TIP3    H262205   2.756   4.662  11.168  0.5116  1.3986  1.7336
13572TIP3   OH262206   0.618   4.410   3.849  0.4611 -0.2600  0.1313
13572TIP3    H162207   0.598   4.338   3.788 -1.9071 -0.0600  0.6018
13572TIP3    H262208   0.547   4.408   3.913 -0.3442  3.2005 -0.4839
13573TIP3   OH262209   0.343   1.109  14.492  0.1155 -0.2544 -0.4416
13573TIP3    H162210   0.296   1.122  14.574  0.3824  1.5582 -0.5454
13573TIP3    H262211   0.276   1.076  14.431 -0.1443 -1.3440  0.3990
13574TIP3   OH262212   3.081   1.974   2.245  0.6120  0.2448  0.1059
13574TIP3    H162213   3.076   1.934   2.332 -0.4408 -0.7627 -0.3795
13574TIP3    H262214   3.142   1.918   2.197 -0.8614 -0.8470 -0.5745
13575TIP3   OH262215   5.660   1.390   0.322  0.2363 -0.1800  0.1185
13575TIP3    H162216   5.657   1.323   0.390 -2.0074 -0.2736  0.0121
13575TIP3    H262217   5.568   1.403   0.297  0.8633  0.8844 -1.8877
13576TIP3   OH262218   5.767   1.645   3.195  0.1897  0.3677 -0.3249
13576TIP3    H162219   5.748   1.625   3.103 -0.9959 -1.1272  0.1997
13576TIP3    H262220   5.857   1.617   3.208  1.4523  3.4094 -1.7484
13577TIP3   OH262221   2.972   6.247  13.283 -0.0711 -0.6520  0.1526
13577TIP3    H162222   2.985   6.270  13.191  0.3823  0.4245  0.4685
13577TIP3    H262223   2.883   6.211  13.286 -0.8480  1.1158 -0.4034
13578TIP3   OH262224   6.768   6.176  11.816  0.1705 -0.1075  0.2603
13578TIP3    H162225   6.820   6.104  11.780  2.1445  1.6538 -0.6403
13578TIP3    H262226   6.696   6.133  11.862  1.3380 -2.6400 -0.0976
13579TIP3   OH262227   1.801   1.025   2.774 -0.7204  0.0006  0.3143
13579TIP3    H162228   1.767   1.064   2.854 -3.1485  1.4205 -1.2689
13579TIP3    H262229   1.741   0.954   2.753 -0.7481  0.3125 -0.7618
13580TIP3   OH262230   5.960   0.844  15.105  0.0624  0.4641  0.9970
13580TIP3    H162231   5.967   0.800  15.020  2.0491  0.0626  1.3215
13580TIP3    H262232   5.901   0.787  15.156 -1.9731  1.2364 -0.3652
13581TIP3   OH262233   1.699   2.532   0.362  0.2223  0.2047  0.0988
13581TIP3    H162234   1.696   2.490   0.448  1.1592 -0.2556 -0.0819
13581TIP3    H262235   1.670   2.622   0.378 -2.5760 -0.6476  0.3612
13582TIP3   OH262236   6.616   1.280  13.176 -0.0575  0.1938 -0.4167
13582TIP3    H162237   6.700   1.322  13.158  0.6869 -1.4379 -0.8788
13582TIP3    H262238   6.551   1.342  13.143  0.9585  1.3371 -0.3397
13583TIP3   OH262239   3.988   5.384  13.519  0.0095 -0.6328  0.3322
13583TIP3    H162240   3.931   5.308  13.509 -0.4860 -0.1887 -0.3630
13583TIP3    H262241   3.939   5.442  13.578 -1.1814  0.5634 -1.7117
13584TIP3   OH262242   0.421   6.801   4.439 -0.3847 -0.2778 -0.3585
13584TIP3    H162243   0.429   6.890   4.473  0.6989  0.9152 -3.4038
13584TIP3    H262244   0.327   6.781   4.446 -1.1577  2.2461 -2.0520
13585TIP3   OH262245   6.562   1.120  14.309 -0.0365  0.1355 -0.2316
13585TIP3    H162246   6.585   1.201  14.263 -0.3406  0.6736  0.5443
13585TIP3    H262247   6.564   1.144  14.402 -0.9199 -0.5446 -0.0276
13586TIP3   OH262248   6.675   1.880  13.307  0.5038 -0.0843 -0.3956
13586TIP3    H162249   6.588   1.842  13.292  0.9545 -1.3410  0.0588
13586TIP3    H262250   6.699   1.917  13.223 -0.6087  0.5962 -0.4426
13587TIP3   OH262251   1.871   3.565  14.110 -0.2874  0.1096  0.2015
13587TIP3    H162252   1.914   3.536  14.191 -0.4279 -0.6095  0.0268
13587TIP3    H262253   1.911   3.649  14.090  1.6950 -0.9258 -0.4330
13588TIP3   OH262254   6.587   2.488  13.095 -0.3811 -0.0691  0.0026
13588TIP3    H162255   6.611   2.409  13.047 -3.8007 -1.3207  0.0587
13588TIP3    H262256   6.585   2.557  13.028  0.5458 -0.4912 -0.4721
13589TIP3   OH262257   6.783   5.420   1.014 -0.2422 -0.2346  0.4541
13589TIP3    H162258   6.797   5.417   1.109 -1.3867 -1.2278  0.6224
13589TIP3    H262259   6.871   5.416   0.976  0.1534 -1.6682  1.4617
13590TIP3   OH262260   2.865   5.242  15.112 -0.0204  0.8500  0.5142
13590TIP3    H162261   2.825   5.208  15.032 -0.3645  2.2699  0.0690
13590TIP3    H262262   2.959   5.233  15.097 -0.0951 -0.7919  0.8169
13591TIP3   OH262263   3.042   5.785  11.078 -0.2635 -0.4777  0.8528
13591TIP3    H162264   3.127   5.751  11.108  0.5609 -0.1433 -0.9602
13591TIP3    H262265   3.038   5.874  11.114  0.2901 -0.3968  0.7219
13592TIP3   OH262266   6.660   1.091  13.406  0.0418 -0.0513 -0.1264
13592TIP3    H162267   6.744   1.057  13.436 -0.4719 -2.5765 -1.2777
13592TIP3    H262268   6.679   1.132  13.322  0.1245 -0.7749 -0.4680
13593TIP3   OH262269   1.221   2.531   2.881 -0.0027 -0.0771 -0.2034
13593TIP3    H162270   1.235   2.437   2.874  2.8760  0.3972 -2.1891
13593TIP3    H262271   1.211   2.561   2.791  0.6651  1.7253  0.2833
13594TIP3   OH262272   6.462   0.462  15.491 -0.0143 -0.0847  0.6271
13594TIP3    H162273   6.457   0.510  15.573 -2.2792  0.7013  0.0985
13594TIP3    H262274   6.420   0.378  15.510 -1.5852  0.5257  0.0567
13595TIP3   OH262275   0.949   3.629  14.633 -0.2995  0.2743 -0.0163
13595TIP3    H162276   0.951   3.589  14.720  0.9262  1.5131  0.5596
13595TIP3    H262277   1.034   3.607  14.595 -0.1869  1.1077 -0.2542
13596TIP3   OH262278   3.425   6.440   2.373 -0.2772 -0.5456  0.1166
13596TIP3    H162279   3.485   6.477   2.438 -0.9006  2.0135 -0.6171
13596TIP3    H262280   3.471   6.452   2.290 -0.7586 -0.9271 -0.2081
13597TIP3   OH262281   1.432   6.246  13.027  0.2672  0.3360 -0.2011
13597TIP3    H162282   1.344   6.266  12.996  0.5376  1.3874 -0.3384
13597TIP3    H262283   1.467   6.184  12.963 -0.7604 -0.9969  0.4765
13598TIP3   OH262284   1.779   5.595  13.866 -0.0406 -0.5920 -0.2422
13598TIP3    H162285   1.757   5.610  13.958 -0.1292  3.0447 -0.6867
13598TIP3    H262286   1.694   5.600  13.821  0.3291  2.3339 -0.8507
13599TIP3   OH262287   3.859   6.283  16.017 -0.2988  0.4374  0.0604
13599TIP3    H162288   3.766   6.286  16.038 -0.4586 -0.6852 -0.4331
13599TIP3    H262289   3.902   6.266  16.100 -0.4843  1.3764  0.3675
13600TIP3   OH262290   3.406   5.237   5.206  0.1716 -0.1404 -0.4704
13600TIP3    H162291   3.479   5.259   5.265 -1.3127 -0.4447  1.5803
13600TIP3    H262292   3.329   5.237   5.262 -1.0458 -2.7151 -1.9483
13601TIP3   OH262293   6.150   4.592   1.404 -0.1965  0.3670  0.0318
13601TIP3    H162294   6.150   4.615   1.311 -1.0413  0.3770  0.0289
13601TIP3    H262295   6.210   4.655   1.444 -2.0199  2.2611 -0.0633
13602TIP3   OH262296   2.265   0.781   3.847  0.3013 -0.8546  0.5500
13602TIP3    H162297   2.207   0.804   3.774  2.6405 -0.6669 -1.3808
13602TIP3    H262298   2.330   0.851   3.849  0.6927 -1.2217  2.4148
13603TIP3   OH262299   6.715   0.059  11.512  0.0586  0.0151  0.3489
13603TIP3    H162300   6.715  -0.028  11.551 -2.1580 -0.0637  0.3109
13603TIP3    H262301   6.669   0.114  11.576 -1.7836  0.3293 -1.1633
13604TIP3   OH262302   0.227   5.705  15.099  0.3920 -0.7634  0.2263
13604TIP3    H162303   0.252   5.617  15.069  1.4725 -0.7469  1.0375
13604TIP3    H262304   0.183   5.690  15.183  0.3423 -0.5446  0.2394
13605TIP3   OH262305   2.544   3.549   2.555 -0.2523 -0.0897 -0.0595
13605TIP3    H162306   2.631   3.539   2.594 -0.4881  2.2129  1.2167
13605TIP3    H262307   2.552   3.627   2.499 -1.0197 -0.9902 -1.4961
13606TIP3   OH262308   3.839   6.486   1.840 -0.0938 -0.4817  0.0117
13606TIP3    H162309   3.772   6.501   1.774  0.6665  1.6942 -0.3260
13606TIP3    H262310   3.856   6.392   1.835 -1.3896 -0.6807 -1.5615
13607TIP3   OH262311   5.009   0.343   1.239 -0.0649 -0.0207 -0.0200
13607TIP3    H162312   5.006   0.357   1.333  0.3844  0.2722 -0.0442
13607TIP3    H262313   4.930   0.385   1.205 -0.7484 -1.0001  0.3290
13608TIP3   OH262314   1.883   5.616  13.119 -0.3210 -0.3875  0.1946
13608TIP3    H162315   1.936   5.575  13.050  1.2718 -0.0824  1.1757
13608TIP3    H262316   1.810   5.555  13.133  0.0345 -1.0857 -0.8645
13609TIP3   OH262317   0.569   3.805   1.769 -0.0190  0.4033 -0.0849
13609TIP3    H162318   0.538   3.715   1.781  0.5597  0.4500  2.2217
13609TIP3    H262319   0.657   3.806   1.806 -0.5846  2.2356  1.3951
13610TIP3   OH262320   2.426   5.025   0.766 -0.6133  0.3042 -0.5693
13610TIP3    H162321   2.458   4.940   0.738 -0.2150  0.0733  0.5185
13610TIP3    H262322   2.379   5.060   0.691 -0.2998 -0.6322 -1.2095
13611TIP3   OH262323   5.319   5.380  13.451  0.0928  1.2061 -0.2862
13611TIP3    H162324   5.395   5.322  13.446 -1.0112 -0.2718 -0.7070
13611TIP3    H262325   5.356   5.468  13.453  1.8509  0.4953  0.9348
13612TIP3   OH262326   6.329   5.493  13.236 -0.2635  0.3619  0.1728
13612TIP3    H162327   6.331   5.481  13.331 -0.5559  0.1194  0.1513
13612TIP3    H262328   6.392   5.429  13.202  2.0131  2.3851  0.3704
13613TIP3   OH262329   2.638   3.393   5.581 -0.0712  0.3412 -0.1028
13613TIP3    H162330   2.580   3.359   5.649 -0.0099  0.8011  0.1782
13613TIP3    H262331   2.614   3.344   5.502  0.3581 -0.7284  0.4075
13614TIP3   OH262332   4.513   5.899  15.707 -0.2261 -0.0670  0.1989
13614TIP3    H162333   4.443   5.833  15.712  0.7541 -1.4252 -2.2561
13614TIP3    H262334   4.467   5.981  15.693 -1.4489 -0.2632  2.4924
13615TIP3   OH262335   2.701   4.440  16.987  0.3312 -0.0248 -0.0374
13615TIP3    H162336   2.646   4.411  16.914 -0.4392  1.3971 -0.0637
13615TIP3    H262337   2.790   4.429  16.955  0.1029 -2.0020 -0.1495
13616TIP3   OH262338   1.107   0.562  12.037 -0.2466  0.0555 -0.1120
13616TIP3    H162339   1.080   0.600  12.120 -1.2806 -1.5918  0.3484
13616TIP3    H262340   1.030   0.513  12.007  0.4487 -0.2110 -1.5405
13617TIP3   OH262341   6.406   1.046  10.670 -0.0545 -0.4759 -0.0569
13617TIP3    H162342   6.375   0.964  10.630 -2.4942  1.1316 -1.7277
13617TIP3    H262343   6.440   1.097  10.597  1.8895 -0.1299  1.0369
13618TIP3   OH262344   3.995   4.760   5.708  0.0696 -0.3685 -0.3973
13618TIP3    H162345   3.948   4.691   5.754 -1.1712  0.6679 -0.0553
13618TIP3    H262346   4.047   4.802   5.777  0.2043 -0.4426 -0.4525
13619TIP3   OH262347   1.328   2.941  15.563 -0.7404 -0.4382 -0.5891
13619TIP3    H162348   1.393   2.985  15.617 -2.0806 -0.8238  1.4573
13619TIP3    H262349   1.361   2.852  15.554 -1.1830 -0.7665  0.8484
13620TIP3   OH262350   4.627   3.983   2.711 -0.5580 -0.0104  0.1468
13620TIP3    H162351   4.538   4.016   2.697 -1.0540 -2.0692 -2.0684
13620TIP3    H262352   4.659   4.034   2.785 -2.9625  1.9737 -0.0339
13621TIP3   OH262353   3.749   3.845  10.791 -0.3130 -0.3147 -0.4315
13621TIP3    H162354   3.814   3.881  10.731 -0.3851  0.7710  0.1110
13621TIP3    H262355   3.666   3.853  10.743 -0.3095  0.1397 -0.3695
13622TIP3   OH262356   1.417   6.000   1.636 -0.3816  0.0637  0.5958
13622TIP3    H162357   1.339   6.003   1.582  1.1987 -2.3568 -2.1180
13622TIP3    H262358   1.453   6.088   1.633 -2.2683  0.8838  0.8690
13623TIP3   OH262359   3.343   5.037   4.664  0.1634 -0.0192  0.5816
13623TIP3    H162360   3.385   5.122   4.670 -0.7965  0.4513  0.8430
13623TIP3    H262361   3.254   5.052   4.694 -0.3523 -0.8771 -0.4458
13624TIP3   OH262362   6.759   1.420  15.898  1.0842  0.0920  0.3013
13624TIP3    H162363   6.823   1.464  15.841  1.0584  1.4480  1.2805
13624TIP3    H262364   6.692   1.486  15.915 -0.5396 -1.2482 -0.5605
13625TIP3   OH262365   0.877   1.783  11.136 -0.3406 -0.6218 -0.2911
13625TIP3    H162366   0.970   1.805  11.130 -0.3561 -0.6850 -0.7387
13625TIP3    H262367   0.874   1.714  11.203 -0.1089 -0.3821 -0.0266
13626TIP3   OH262368   4.152   6.162   0.479 -0.2961  0.3798 -0.2584
13626TIP3    H162369   4.210   6.177   0.553  0.2064  0.3890 -0.6449
13626TIP3    H262370   4.209   6.127   0.411 -1.2486 -2.6517  0.3472
13627TIP3   OH262371   4.980   3.897   6.601 -0.7258  0.4719 -0.1739
13627TIP3    H162372   5.059   3.908   6.548 -1.1448  0.4901 -0.8139
13627TIP3    H262373   4.909   3.925   6.543 -1.0861  1.7335  0.8573
13628TIP3   OH262374   5.082   6.355  12.774 -0.7949  0.4237  0.0304
13628TIP3    H162375   5.033   6.321  12.700 -1.2305  0.5186  0.2741
13628TIP3    H262376   5.097   6.447  12.752 -0.2350  0.2618 -0.2982
13629TIP3   OH262377   4.552   5.154  13.337  0.3211 -0.2751  0.3195
13629TIP3    H162378   4.586   5.162  13.247 -1.2047 -1.2469 -0.3853
13629TIP3    H262379   4.464   5.192  13.332  1.3295  2.6499  2.2128
13630TIP3   OH262380   6.364   4.255   1.598 -0.6371 -0.6854  0.4313
13630TIP3    H162381   6.437   4.313   1.576  0.2757 -0.3233  3.8914
13630TIP3    H262382   6.287   4.300   1.565  0.4323  0.4084 -0.6567
13631TIP3   OH262383   2.724   3.957  11.006  0.1478  0.6826  0.1096
13631TIP3    H162384   2.744   3.984  10.917 -0.4291  1.7398  0.2823
13631TIP3    H262385   2.763   4.025  11.061  1.2991 -0.4301  0.7297
13632TIP3   OH262386   5.926   4.458   5.008 -0.4845  0.2590 -0.7198
13632TIP3    H162387   5.833   4.478   5.004 -0.8437 -1.4083 -2.1145
13632TIP3    H262388   5.930   4.366   5.034  0.9324  0.9875  2.1472
13633TIP3   OH262389   3.643   6.356  10.492 -0.3485 -0.0961  0.1860
13633TIP3    H162390   3.553   6.328  10.512 -0.7426 -0.2169 -1.5584
13633TIP3    H262391   3.689   6.275  10.471  0.1621 -0.0233  1.0017
13634TIP3   OH262392   1.590   0.278  11.307  0.3061 -0.0232  0.0844
13634TIP3    H162393   1.664   0.225  11.275  0.7468  0.5152  0.2018
13634TIP3    H262394   1.567   0.237  11.391  1.6313  0.8646  0.9143
13635TIP3   OH262395   4.046   2.122   2.920  0.4282 -0.1957 -0.1016
13635TIP3    H162396   3.980   2.161   2.862  0.4956  0.5250  0.2984
13635TIP3    H262397   4.084   2.051   2.868 -0.4261 -0.4119 -0.4638
13636TIP3   OH262398   3.239   2.515  13.064  0.0901 -0.0041  0.1432
13636TIP3    H162399   3.263   2.525  12.972  0.2549  0.0734  0.1949
13636TIP3    H262400   3.148   2.485  13.062  0.1610 -0.2112 -0.0509
13637TIP3   OH262401   6.598   1.381   4.994 -0.0673  0.1444 -0.1955
13637TIP3    H162402   6.575   1.329   4.917  0.2925 -1.2118  0.5704
13637TIP3    H262403   6.549   1.340   5.066  0.1732  0.9099  0.4203
13638TIP3   OH262404   4.613   3.753  11.447  0.1061 -0.7797  0.0901
13638TIP3    H162405   4.697   3.713  11.471 -0.5091 -2.5239 -0.5533
13638TIP3    H262406   4.620   3.771  11.353 -0.3134 -1.1224 -0.0100
13639TIP3   OH262407   0.526   1.434   2.177 -0.1210  0.2086 -0.7646
13639TIP3    H162408   0.582   1.357   2.190 -0.9176 -0.3899 -0.7680
13639TIP3    H262409   0.587   1.507   2.169  0.6330 -0.2536  0.3873
13640TIP3   OH262410   1.609   2.343  15.675  0.3844  0.6540 -0.3445
13640TIP3    H162411   1.584   2.337  15.583 -0.7203 -1.6545  0.0423
13640TIP3    H262412   1.559   2.417  15.709 -2.5673 -1.0433 -0.6644
13641TIP3   OH262413   3.303   0.469  15.195 -0.3906  0.6901  0.0618
13641TIP3    H162414   3.296   0.391  15.139  1.4203 -1.1482  2.2157
13641TIP3    H262415   3.217   0.475  15.237 -0.6704  0.0900 -0.4000
13642TIP3   OH262416   3.995   1.353   2.050  0.0080 -0.3610  0.0205
13642TIP3    H162417   3.991   1.391   1.962 -0.6574  0.0722  0.2308
13642TIP3    H262418   4.066   1.288   2.045 -0.3550 -0.7003 -0.9686
13643TIP3   OH262419   2.132   0.151   4.785  0.0599 -0.0356 -0.1973
13643TIP3    H162420   2.072   0.177   4.715 -0.0449 -0.4376 -0.2571
13643TIP3    H262421   2.211   0.203   4.769 -0.2794  0.5223 -0.0980
13644TIP3   OH262422   0.516   5.263  15.203 -0.8618 -0.2462  0.1851
13644TIP3    H162423   0.593   5.287  15.256  1.0257 -1.3801 -1.8502
13644TIP3    H262424   0.493   5.175  15.233 -1.2145 -0.0112  0.6150
13645TIP3   OH262425   4.144   1.622  16.816 -0.3883  0.1916 -0.3073
13645TIP3    H162426   4.051   1.620  16.842 -0.2133 -2.9524  0.3914
13645TIP3    H262427   4.144   1.590  16.726  0.0242  0.2057 -0.3114
13646TIP3   OH262428   1.975   4.182  14.083  0.4082 -0.0379  0.2563
13646TIP3    H162429   1.916   4.178  14.157 -0.1037 -0.8987 -0.1796
13646TIP3    H262430   1.921   4.212  14.010  0.7116  0.0097  0.0461
13647TIP3   OH262431   2.918   1.198  16.794 -0.1812  0.0837 -0.6290
13647TIP3    H162432   2.854   1.163  16.856  0.1430 -0.1737 -0.4370
13647TIP3    H262433   2.965   1.266  16.843  1.5078 -1.5360  0.1186
13648TIP3   OH262434   6.215   4.217   0.276 -0.6736  0.2927  0.4912
13648TIP3    H162435   6.141   4.276   0.293  0.5484  1.6795  1.1840
13648TIP3    H262436   6.215   4.157   0.351  0.8521  2.3972  2.3056
13649TIP3   OH262437   1.296   3.553  12.267 -0.7499  0.6159 -0.3290
13649TIP3    H162438   1.213   3.558  12.314 -0.2454  1.0460  0.5402
13649TIP3    H262439   1.289   3.618  12.198 -1.4979 -0.0153 -0.8533
13650TIP3   OH262440   0.379   0.732  11.353 -0.1054  0.1203 -0.0803
13650TIP3    H162441   0.454   0.684  11.386 -0.8058 -0.3569  0.8706
13650TIP3    H262442   0.349   0.680  11.278 -1.7869 -1.8922  1.8452
13651TIP3   OH262443   2.100   1.636  15.889 -0.4047  0.0245 -0.2746
13651TIP3    H162444   2.020   1.671  15.926 -0.5492 -0.1667 -0.4013
13651TIP3    H262445   2.121   1.561  15.944  0.8969  1.3561  1.1165
13652TIP3   OH262446   0.163   2.077  12.882  0.0468 -0.5867  0.1598
13652TIP3    H162447   0.148   2.164  12.843 -0.2513  0.3830  2.3161
13652TIP3    H262448   0.219   2.032  12.819 -1.2551  0.4899 -1.8816
13653TIP3   OH262449   0.357   3.164   5.280  0.2340  0.0054  0.1500
13653TIP3    H162450   0.323   3.186   5.366  0.1461 -1.1799  0.4256
13653TIP3    H262451   0.326   3.235   5.223  0.4924  0.9146  1.1210
13654TIP3   OH262452   2.500   3.433  12.936  0.0429 -0.3035  0.1340
13654TIP3    H162453   2.480   3.364  12.999  0.7782 -0.5544  0.0967
13654TIP3    H262454   2.415   3.457  12.899 -0.5267  0.4802  1.8564
13655TIP3   OH262455   6.699   6.332  16.274 -0.4753  0.9446  0.7695
13655TIP3    H162456   6.759   6.373  16.211 -2.0382  1.6491 -0.3514
13655TIP3    H262457   6.619   6.384  16.267 -0.9446  0.5787  2.8513
13656TIP3   OH262458   4.959   6.813  16.704 -0.0070  0.0838  0.7143
13656TIP3    H162459   4.941   6.826  16.797  1.8417 -1.1424  1.2985
13656TIP3    H262460   4.913   6.733  16.681 -0.9248  0.6852  0.4009
13657TIP3   OH262461   2.508   1.231   2.141  0.3810  0.3201  0.1431
13657TIP3    H162462   2.588   1.284   2.135 -0.0384  0.8996 -0.4394
13657TIP3    H262463   2.485   1.231   2.234  1.0611  0.1406  0.3173
13658TIP3   OH262464   3.561   5.761  15.245  0.1103  0.0708 -0.0252
13658TIP3    H162465   3.502   5.686  15.258 -0.3080  0.2854 -0.6536
13658TIP3    H262466   3.522   5.810  15.173  0.2670  1.0114  0.5095
13659TIP3   OH262467   1.074   2.259   1.589  0.1844 -0.3671  0.0072
13659TIP3    H162468   1.069   2.350   1.562  2.8228 -0.7417 -2.1560
13659TIP3    H262469   1.137   2.258   1.661  0.4348 -0.5101 -0.2112
13660TIP3   OH262470   4.334   6.847   2.234 -0.0265  0.0017 -0.2857
13660TIP3    H162471   4.374   6.848   2.321  0.1430 -0.1840 -0.3598
13660TIP3    H262472   4.358   6.931   2.195 -2.3359  1.2853  0.8379
13661TIP3   OH262473   6.714   4.585   0.715  0.0602 -0.1983  0.1297
13661TIP3    H162474   6.776   4.591   0.642  0.7557  0.7066  0.7798
13661TIP3    H262475   6.663   4.506   0.695  1.7163 -1.2546 -0.1935
13662TIP3   OH262476   3.974   1.151   3.704 -0.1596  0.2672  0.4181
13662TIP3    H162477   4.001   1.063   3.677 -0.8844  0.4289 -0.9073
13662TIP3    H262478   3.914   1.136   3.777  0.1814 -0.3027  0.5923
13663TIP3   OH262479   4.003   2.440  14.578 -0.0222 -0.0893 -0.7529
13663TIP3    H162480   4.063   2.386  14.631 -0.3450 -1.2518 -1.5299
13663TIP3    H262481   3.956   2.493  14.642  0.8516 -0.1687 -0.0178
13664TIP3   OH262482   0.474   2.698  13.081 -0.1360 -1.0159 -0.1479
13664TIP3    H162483   0.436   2.651  13.155 -0.0919 -0.4895  0.2160
13664TIP3    H262484   0.476   2.790  13.110  1.0510 -0.9824 -0.3215
13665TIP3   OH262485   5.761   0.799  10.886 -0.2004  0.1381  0.1602
13665TIP3    H162486   5.802   0.839  10.809 -1.0667 -0.3237 -0.5596
13665TIP3    H262487   5.711   0.870  10.926 -0.5656  0.1390 -0.2872
13666TIP3   OH262488   1.293   4.572   3.337 -0.5455  1.0235  0.3569
13666TIP3    H162489   1.313   4.624   3.415  0.9929 -0.6576  1.1396
13666TIP3    H262490   1.364   4.508   3.332 -1.5145  0.0333 -1.4909
13667TIP3   OH262491   6.019   5.366   1.184 -0.1192 -0.2874  0.2164
13667TIP3    H162492   6.080   5.315   1.237 -0.0726  0.7593  1.1943
13667TIP3    H262493   6.022   5.324   1.098  0.8682 -1.1458  0.6459
13668TIP3   OH262494   5.900   4.778  13.568 -0.2914  0.4153 -0.2039
13668TIP3    H162495   5.946   4.833  13.631  2.4251 -1.3203 -0.5112
13668TIP3    H262496   5.933   4.690  13.583  1.5997  0.0543 -4.7678
13669TIP3   OH262497   5.517   6.348  16.769 -0.1369  0.3430  0.5342
13669TIP3    H162498   5.554   6.431  16.741  1.3681 -1.0173 -1.8367
13669TIP3    H262499   5.592   6.289  16.776 -1.2314 -1.0049  1.4846
13670TIP3   OH262500   0.682   3.557   3.790 -0.2747 -0.3344 -0.0902
13670TIP3    H162501   0.607   3.614   3.770 -0.2626 -0.3446 -0.1671
13670TIP3    H262502   0.758   3.613   3.780 -0.2651 -0.3538 -0.1289
13671TIP3   OH262503   5.387   2.694  11.961 -0.7384  0.1046  0.2002
13671TIP3    H162504   5.308   2.736  11.994 -0.2681 -0.2492  1.8932
13671TIP3    H262505   5.363   2.602  11.951 -1.0080  0.2895 -0.9203
13672TIP3   OH262506   4.294   1.314  14.237 -0.0923 -0.3569 -0.2778
13672TIP3    H162507   4.202   1.317  14.211  0.6379 -1.4377 -3.3228
13672TIP3    H262508   4.335   1.387  14.190  0.6264  0.3299  1.3081
13673TIP3   OH262509   3.473   6.644   4.614  0.0960 -0.0613  0.0286
13673TIP3    H162510   3.559   6.679   4.595  0.5054  0.4065  2.4453
13673TIP3    H262511   3.421   6.720   4.641  0.0629 -0.8166  2.2283
13674TIP3   OH262512   5.840   2.997  16.548  0.3197 -0.0277 -0.0540
13674TIP3    H162513   5.906   2.950  16.497  0.0161 -1.5851  0.9471
13674TIP3    H262514   5.887   3.028  16.625  0.6004  1.6908 -0.8565
13675TIP3   OH262515   2.945   4.052  14.709  0.7602  0.2669 -0.1062
13675TIP3    H162516   3.009   4.052  14.780 -0.2527 -1.8945  0.9044
13675TIP3    H262517   2.861   4.037  14.752  0.0451 -0.5689 -1.6966
13676TIP3   OH262518   2.737   0.247   0.025 -0.0618 -0.2830 -0.1798
13676TIP3    H162519   2.781   0.314   0.077  0.9035  0.4950 -1.9172
13676TIP3    H262520   2.709   0.292  -0.055 -5.9427 -0.1917  1.4926
13677TIP3   OH262521   5.430   1.628  15.851 -0.4485 -0.6219 -0.6618
13677TIP3    H162522   5.377   1.554  15.881 -1.6219  0.4206 -0.1170
13677TIP3    H262523   5.520   1.600  15.866 -0.8645 -1.9711 -0.5438
13678TIP3   OH262524   4.127   2.750  12.145 -0.1083 -0.4353 -0.1801
13678TIP3    H162525   4.119   2.679  12.081  0.4080  1.4760 -2.5325
13678TIP3    H262526   4.044   2.750  12.192 -0.1652 -2.4768 -0.1908
13679TIP3   OH262527   6.254   1.561   2.420 -0.0963  0.2148  0.1338
13679TIP3    H162528   6.298   1.476   2.414 -0.3130 -0.2654  3.5791
13679TIP3    H262529   6.161   1.539   2.425 -0.1672  0.6397  0.8452
13680TIP3   OH262530   2.324   6.596  15.773  0.4001  1.0162 -0.2682
13680TIP3    H162531   2.419   6.600  15.769  0.6498 -1.5583  0.9659
13680TIP3    H262532   2.295   6.620  15.685  2.2008  1.4904 -0.7648
13681TIP3   OH262533   5.868   1.713  11.316 -0.3560  0.2210  0.2630
13681TIP3    H162534   5.797   1.761  11.357 -0.3177 -0.6493  1.4192
13681TIP3    H262535   5.845   1.708  11.224 -2.1963 -0.7278  0.7426
13682TIP3   OH262536   0.863   1.364   1.098 -0.0817 -0.3554  0.2395
13682TIP3    H162537   0.849   1.270   1.112 -0.5702 -0.1999  0.7999
13682TIP3    H262538   0.855   1.403   1.185  1.6446  0.0250  0.2570
13683TIP3   OH262539   2.779   4.807  15.272  0.3941  0.0355 -0.2735
13683TIP3    H162540   2.843   4.843  15.332 -0.4499 -1.7018  1.7953
13683TIP3    H262541   2.830   4.750  15.214  0.8289 -1.1354  1.1898
13684TIP3   OH262542   1.124   5.616  12.961  0.0181 -0.3893 -0.4651
13684TIP3    H162543   1.207   5.621  12.914 -0.0407 -0.3487 -0.5628
13684TIP3    H262544   1.080   5.540  12.924 -0.8053  0.6592 -1.7174
13685TIP3   OH262545   3.188   3.050  13.966 -0.4188  0.3444 -0.2574
13685TIP3    H162546   3.166   3.134  13.926 -1.3490  0.2541  0.0507
13685TIP3    H262547   3.104   3.008  13.982  0.0434 -0.6795 -0.4609
13686TIP3   OH262548   4.932   0.918   2.741  0.0826 -0.2714 -0.6927
13686TIP3    H162549   4.878   0.989   2.776 -0.5368 -0.8432 -0.4609
13686TIP3    H262550   4.951   0.863   2.818 -0.5580 -1.0699 -1.0944
13687TIP3   OH262551   6.568   0.453   0.529 -0.1137 -0.0309 -0.2201
13687TIP3    H162552   6.621   0.434   0.607 -1.2568 -1.4147  0.2555
13687TIP3    H262553   6.570   0.372   0.478 -2.0639 -0.2801  0.0126
13688TIP3   OH262554   3.569   5.774  12.256  0.3919  0.1256 -0.2985
13688TIP3    H162555   3.561   5.771  12.161  0.6754 -1.2233 -0.3013
13688TIP3    H262556   3.572   5.682  12.283 -1.3091  0.4279  1.1497
13689TIP3   OH262557   4.750   2.947  10.810  0.4535  0.4824 -0.1808
13689TIP3    H162558   4.763   3.005  10.884 -2.4418  1.1203 -0.0500
13689TIP3    H262559   4.779   2.861  10.841 -0.9265  0.6701  1.8544
13690TIP3   OH262560   0.353   3.373  11.858  0.6889 -0.0686 -0.0907
13690TIP3    H162561   0.336   3.321  11.937 -0.1556 -0.3091 -0.4148
13690TIP3    H262562   0.439   3.344  11.828  1.3822  0.6128  1.1874
13691TIP3   OH262563   2.419   0.983  15.330  0.4372 -0.2474 -0.6395
13691TIP3    H162564   2.510   0.986  15.302  0.1348 -0.2717 -1.6673
13691TIP3    H262565   2.406   1.065  15.379  1.4919 -1.0889  1.1425
13692TIP3   OH262566   1.955   2.336  14.448 -0.2513 -0.5647  0.2381
13692TIP3    H162567   1.980   2.379  14.530  0.9772 -1.1388  0.1885
13692TIP3    H262568   2.035   2.293  14.419 -1.0672 -1.6324 -0.4873
13693TIP3   OH262569   5.328   0.156  16.448 -0.1090 -1.1351  0.3048
13693TIP3    H162570   5.279   0.233  16.420  1.7497 -0.7627 -2.2460
13693TIP3    H262571   5.263   0.086  16.453 -1.3545 -0.0483 -0.1369
13694TIP3   OH262572   6.825   4.741   3.479  0.7931  1.0588 -0.0247
13694TIP3    H162573   6.739   4.762   3.443  0.0824 -0.3003  0.7812
13694TIP3    H262574   6.872   4.825   3.479 -0.8279  2.0213  0.3176
13695TIP3   OH262575   0.126   5.104   5.021  0.0944  0.2221  0.1538
13695TIP3    H162576   0.135   5.135   4.931  2.7331 -0.2677  0.1565
13695TIP3    H262577   0.126   5.009   5.014  0.0126  0.1789  0.6531
13696TIP3   OH262578   5.807   4.023   3.648  0.3835 -0.3323 -0.0887
13696TIP3    H162579   5.900   4.046   3.658 -0.5204  3.0124  2.4319
13696TIP3    H262580   5.788   3.964   3.720  0.3145 -0.1259  0.0622
13697TIP3   OH262581   4.124   4.016  13.128 -0.2111  0.4820  0.1915
13697TIP3    H162582   4.049   4.074  13.140 -1.3192 -0.7033 -0.6418
13697TIP3    H262583   4.191   4.070  13.085 -1.0684  1.2359 -0.2142
13698TIP3   OH262584   1.192   2.720  13.509  0.2301  0.1864 -0.1694
13698TIP3    H162585   1.096   2.719  13.518 -0.0752 -3.0323 -2.2257
13698TIP3    H262586   1.208   2.745  13.418  1.3151 -0.0571 -0.0603
13699TIP3   OH262587   3.896   4.001  14.516 -0.1338 -0.3753  0.1546
13699TIP3    H162588   3.936   3.958  14.592  1.6818  0.3545 -0.3333
13699TIP3    H262589   3.970   4.020  14.458 -0.8147  3.1550  0.2163
13700TIP3   OH262590   0.258   3.764   4.467  0.0829  0.2277 -0.0692
13700TIP3    H162591   0.272   3.670   4.460  0.2627  0.3152 -0.9301
13700TIP3    H262592   0.253   3.780   4.561  2.3097 -0.3152  0.2082
13701TIP3   OH262593   4.323   4.470  12.186  0.3097  0.3548 -0.1569
13701TIP3    H162594   4.321   4.558  12.148 -2.6430  0.3485 -0.2649
13701TIP3    H262595   4.302   4.484  12.278 -2.3424 -0.2795 -0.5752
13702TIP3   OH262596   5.961   2.215   0.148  0.0259 -0.6644  0.2325
13702TIP3    H162597   5.881   2.267   0.156  0.1606 -0.4868  0.4575
13702TIP3    H262598   5.965   2.191   0.056 -0.7498 -1.4279  0.3868
13703TIP3   OH262599   5.751   0.362  10.098 -0.0769 -0.4060  0.1436
13703TIP3    H162600   5.798   0.356  10.181 -0.2847  0.7952  0.3694
13703TIP3    H262601   5.806   0.418  10.043 -0.4709 -0.2925 -0.1418
13704TIP3   OH262602   4.808   4.512   5.128 -1.1024  0.1027  0.0215
13704TIP3    H162603   4.822   4.602   5.158  0.2647 -0.5078  1.3066
13704TIP3    H262604   4.789   4.463   5.208  1.9273 -1.4406 -0.0732
13705TIP3   OH262605   3.602   4.784  14.685  0.2473  0.4367 -0.3207
13705TIP3    H162606   3.543   4.713  14.710 -0.5608  0.5471 -1.7915
13705TIP3    H262607   3.552   4.864  14.702  0.8608  0.6313  0.6037
13706TIP3   OH262608   5.173   6.800  16.542  0.0449  0.3304 -0.0881
13706TIP3    H162609   5.110   6.796  16.614 -2.0918 -0.1070 -1.8560
13706TIP3    H262610   5.143   6.733  16.480  2.1010  0.3195 -1.1760
13707TIP3   OH262611   3.976   1.137  10.419 -0.5369  0.1943  0.7120
13707TIP3    H162612   3.997   1.225  10.387 -1.0986 -0.7070 -2.4393
13707TIP3    H262613   3.929   1.096  10.347 -1.6347 -2.2192  2.6700
13708TIP3   OH262614   1.964   5.691   0.230  0.7698  0.0315  0.3243
13708TIP3    H162615   1.971   5.780   0.196  0.2351 -0.1158 -0.1906
13708TIP3    H262616   1.974   5.635   0.153  0.1026 -0.3262  0.4923
13709TIP3   OH262617   6.311   4.657   0.922 -0.0483  0.1127 -0.8142
13709TIP3    H162618   6.253   4.629   0.851  0.4938 -3.2001 -0.1342
13709TIP3    H262619   6.368   4.723   0.882 -1.8179  0.6991 -2.5142
13710TIP3   OH262620   5.148   3.493   0.560  0.2345 -0.1029 -0.9747
13710TIP3    H162621   5.193   3.431   0.618 -2.6192 -1.2445  0.2086
13710TIP3    H262622   5.145   3.448   0.475 -1.1262 -1.3302 -0.3222
13711TIP3   OH262623   4.799   3.287  16.170  0.4745 -0.5052 -0.2724
13711TIP3    H162624   4.735   3.346  16.129  0.0192 -1.0073 -0.3046
13711TIP3    H262625   4.770   3.281  16.261  0.6686 -0.4828 -0.2104
13712TIP3   OH262626   4.093   0.435  16.205  0.2642  0.4004  0.1360
13712TIP3    H162627   4.123   0.358  16.253  1.4717 -0.3851 -1.7565
13712TIP3    H262628   4.048   0.400  16.128  0.7956  1.5464 -0.7343
13713TIP3   OH262629   0.227   0.080  11.711 -0.3847 -0.1152  0.5170
13713TIP3    H162630   0.308   0.038  11.740 -0.1291  0.3011  0.4142
13713TIP3    H262631   0.254   0.141  11.642 -0.7174  0.3747  0.8098
13714TIP3   OH262632   6.247   2.301  13.319 -0.8302  0.1765  0.4414
13714TIP3    H162633   6.302   2.378  13.334 -2.3964  1.0665  2.0089
13714TIP3    H262634   6.260   2.247  13.397 -0.6568 -0.5843 -0.1032
13715TIP3   OH262635   5.191   4.980   5.961  0.0857  0.1798  0.2099
13715TIP3    H162636   5.115   5.029   5.994 -2.0577 -2.7309 -0.0862
13715TIP3    H262637   5.212   4.919   6.031  0.2082 -1.0863 -0.9075
13716TIP3   OH262638   6.776   5.240  13.231 -0.2098 -0.7070 -0.2248
13716TIP3    H162639   6.828   5.225  13.152 -0.3689 -1.3155 -0.2161
13716TIP3    H262640   6.759   5.152  13.266  0.0003 -0.4366  0.5746
13717TIP3   OH262641   2.096   1.717   1.730 -0.9603  0.1553  0.3128
13717TIP3    H162642   2.167   1.665   1.691 -1.0455  0.4230 -0.1956
13717TIP3    H262643   2.042   1.744   1.656 -0.1467  2.1761  0.3863
13718TIP3   OH262644   0.468   0.295  12.468  0.0277 -0.1016  0.0038
13718TIP3    H162645   0.550   0.289  12.419  0.1209  1.8120 -0.1274
13718TIP3    H262646   0.494   0.326  12.555 -0.5301  0.3311  0.0212
13719TIP3   OH262647   1.017   4.202  14.075  0.5618  0.5208 -0.4277
13719TIP3    H162648   0.939   4.206  14.020  0.8083  0.7352 -0.7644
13719TIP3    H262649   1.017   4.113  14.110 -0.2813  0.7640  0.2312
13720TIP3   OH262650   2.553   2.870  11.781  0.0957  0.3496  0.1241
13720TIP3    H162651   2.545   2.951  11.730 -0.1921  0.2273 -0.0270
13720TIP3    H262652   2.473   2.866  11.833  1.3504  1.6250  2.3180
13721TIP3   OH262653   2.167   3.892  15.538  0.2459 -0.2810  0.0934
13721TIP3    H162654   2.163   3.814  15.593  1.7679 -0.1903  0.3633
13721TIP3    H262655   2.250   3.884  15.491  0.1696  0.9171 -0.2747
13722TIP3   OH262656   5.469   5.598   0.218 -0.0367 -0.4640  0.4246
13722TIP3    H162657   5.545   5.578   0.164  0.3621  0.4533  0.6260
13722TIP3    H262658   5.494   5.677   0.266 -1.5456  0.5285 -0.3446
13723TIP3   OH262659   4.191   2.253   4.127  0.6095 -0.5952  0.1294
13723TIP3    H162660   4.166   2.309   4.201 -0.5980 -0.6880 -0.1835
13723TIP3    H262661   4.264   2.201   4.161 -0.1674 -0.9167  1.4056
13724TIP3   OH262662   0.068   1.442   2.974 -0.5826 -0.3196  0.3364
13724TIP3    H162663   0.072   1.535   2.997 -2.2092 -0.2371  0.4085
13724TIP3    H262664   0.101   1.397   3.052  0.8838  0.1872  0.0475
13725TIP3   OH262665   3.875   6.206  11.670 -0.0935 -0.3238 -0.3423
13725TIP3    H162666   3.936   6.174  11.603  0.6792 -0.2834  0.3314
13725TIP3    H262667   3.853   6.129  11.721  0.4200 -0.1073  0.2168
13726TIP3   OH262668   6.137   5.705  11.745 -0.2678 -0.1403 -0.0377
13726TIP3    H162669   6.116   5.778  11.803  1.5445  0.4874 -0.1320
13726TIP3    H262670   6.175   5.746  11.668 -1.6934 -1.0349 -1.2783
13727TIP3   OH262671   6.743   2.770  13.609 -0.1784 -0.3460  0.2696
13727TIP3    H162672   6.689   2.837  13.568 -0.5709 -0.1304  1.1370
13727TIP3    H262673   6.693   2.742  13.686  1.2232  0.3139  1.4602
13728TIP3   OH262674   3.550   4.009  17.086 -0.2463  0.1557  0.4881
13728TIP3    H162675   3.459   4.028  17.064  0.3419  0.8832 -1.5570
13728TIP3    H262676   3.563   4.047  17.173 -1.6951  0.6326  0.5182
13729TIP3   OH262677   4.656   1.471  15.031  0.1535 -0.4389 -0.0361
13729TIP3    H162678   4.651   1.411  14.957  0.3751 -1.1628  0.5156
13729TIP3    H262679   4.695   1.419  15.101 -0.2924  0.1475  0.6659
13730TIP3   OH262680   3.824   1.880  14.674  0.1091  0.2915  0.2744
13730TIP3    H162681   3.807   1.973  14.659 -2.2132 -0.2223 -0.6556
13730TIP3    H262682   3.763   1.855  14.743 -1.5609 -1.1604 -1.6073
13731TIP3   OH262683   6.804   4.657   4.028 -0.6617 -0.7655  0.7460
13731TIP3    H162684   6.812   4.598   4.104  1.6332 -0.3665  0.9086
13731TIP3    H262685   6.724   4.706   4.043 -2.0848 -3.0427  1.1597
13732TIP3   OH262686   5.643   1.398  13.624 -0.9987  0.0676 -0.4653
13732TIP3    H162687   5.557   1.357  13.623 -1.6837  1.4237  0.3912
13732TIP3    H262688   5.685   1.362  13.703 -0.1916 -1.6849 -1.6437
13733TIP3   OH262689   1.421   4.632  10.869  0.8250 -0.3151  0.5563
13733TIP3    H162690   1.433   4.601  10.779 -0.8660 -1.3616  0.6523
13733TIP3    H262691   1.352   4.698  10.862 -1.0417 -2.1144  1.3649
13734TIP3   OH262692   1.567   0.979  15.423  0.2395  0.4828  0.6707
13734TIP3    H162693   1.637   1.000  15.484  0.2808 -0.5479  1.0078
13734TIP3    H262694   1.495   1.037  15.448  1.1708  2.0667 -0.1447
13735TIP3   OH262695   4.643   5.058  14.793  0.2304 -0.5271  0.0004
13735TIP3    H162696   4.732   5.023  14.785  1.9120  3.1718  0.4916
13735TIP3    H262697   4.613   5.026  14.878  1.1443 -1.6999 -0.0836
13736TIP3   OH262698   6.255   0.561  10.877  0.6769 -0.1937  0.2102
13736TIP3    H162699   6.190   0.614  10.923 -0.1605 -1.3456  0.3961
13736TIP3    H262700   6.210   0.534  10.797  1.0022 -0.8273  0.2391
13737TIP3   OH262701   2.963   2.677  12.851  0.4045 -0.9403  0.2555
13737TIP3    H162702   2.882   2.722  12.875  1.8174  0.8834  1.9990
13737TIP3    H262703   3.016   2.745  12.808  1.0114 -2.0983 -0.8677
13738TIP3   OH262704   4.812   0.863  17.052  0.4357  0.4453 -0.0648
13738TIP3    H162705   4.786   0.878  17.143  1.8654  0.4131  0.3792
13738TIP3    H262706   4.736   0.821  17.011 -0.9784  2.2824  0.5584
13739TIP3   OH262707   0.689   5.315  12.690  0.0695  0.0654  0.1258
13739TIP3    H162708   0.602   5.274  12.689  0.1977 -0.1977 -0.2649
13739TIP3    H262709   0.750   5.242  12.682  0.3054  0.3083 -0.3225
13740TIP3   OH262710   6.662   6.740   2.804  0.0667 -0.7140  0.1926
13740TIP3    H162711   6.615   6.704   2.879  1.3541 -0.3326  1.2073
13740TIP3    H262712   6.733   6.792   2.842  0.2089  0.2265 -1.2762
13741TIP3   OH262713   4.752   3.149   0.336 -0.4173  0.1936  0.2129
13741TIP3    H162714   4.766   3.089   0.264  0.3583 -0.4579  0.8908
13741TIP3    H262715   4.779   3.101   0.414 -0.2822  1.2267  0.8320
13742TIP3   OH262716   2.188   5.366  10.954  0.1738 -0.5140  0.2227
13742TIP3    H162717   2.098   5.371  10.920  0.5060  0.9600 -0.5561
13742TIP3    H262718   2.182   5.402  11.043 -0.0013 -0.3173  0.1333
13743TIP3   OH262719   3.208   3.053   1.172 -0.0494  0.7052 -0.1579
13743TIP3    H162720   3.194   2.966   1.133 -1.1029  0.1999  1.2847
13743TIP3    H262721   3.272   3.094   1.114 -1.5785  0.0369 -2.4721
13744TIP3   OH262722   4.498   6.561  13.063 -0.3354 -0.1274  0.1743
13744TIP3    H162723   4.437   6.547  12.990 -1.5298  0.1737  1.0865
13744TIP3    H262724   4.526   6.472  13.087 -0.6249 -0.2910 -0.0713
13745TIP3   OH262725   1.819   1.495  14.203 -0.0622 -0.6370  0.2548
13745TIP3    H162726   1.747   1.507  14.142  0.7472  2.0797 -0.2742
13745TIP3    H262727   1.892   1.467  14.148  0.0313 -0.6041  0.3622
13746TIP3   OH262728   6.637   4.731   6.028  0.4819  0.6944  0.4962
13746TIP3    H162729   6.676   4.773   6.105  2.1517  0.7822 -0.3336
13746TIP3    H262730   6.639   4.638   6.049  1.9547  0.6185  0.1856
13747TIP3   OH262731   6.600   3.943  14.357 -0.4363 -0.0653 -0.1553
13747TIP3    H162732   6.606   3.926  14.451 -1.3199 -3.7488 -0.5954
13747TIP3    H262733   6.520   3.995  14.347 -0.7778 -0.3162  1.0847
13748TIP3   OH262734   5.924   1.067   1.263  0.5022 -0.5725  0.3507
13748TIP3    H162735   5.956   1.100   1.347  2.1516 -1.1810  0.0076
13748TIP3    H262736   5.971   0.985   1.250 -0.3800 -0.9332 -0.7668
13749TIP3   OH262737   2.447   6.816  10.806 -0.0564 -0.4851  0.1651
13749TIP3    H162738   2.469   6.909  10.796 -1.6757  0.1882  2.1417
13749TIP3    H262739   2.510   6.770  10.751 -0.2350  1.8650 -2.2128
13750TIP3   OH262740   4.643   0.951   3.179 -0.3857 -0.5012 -0.1250
13750TIP3    H162741   4.629   1.044   3.164 -0.5303 -0.7755 -2.0143
13750TIP3    H262742   4.626   0.938   3.272  0.5574  1.4955  0.3665
13751TIP3   OH262743   6.590   0.948   4.543  0.1504 -0.1598 -0.2720
13751TIP3    H162744   6.627   0.870   4.584  1.1252  0.2248 -0.3788
13751TIP3    H262745   6.497   0.931   4.536  0.6305 -2.4306 -2.6117
13752TIP3   OH262746   5.785   1.670  13.889 -0.1017  0.2361 -0.3446
13752TIP3    H162747   5.806   1.759  13.916  0.9900  0.0982 -0.6565
13752TIP3    H262748   5.762   1.624  13.970 -1.1934  0.9227 -0.2545
13753TIP3   OH262749   5.752   6.709  13.335 -0.0108  0.2025 -0.5873
13753TIP3    H162750   5.752   6.614  13.326 -0.1100  0.2534 -1.1834
13753TIP3    H262751   5.693   6.740  13.267 -0.0315  0.6897 -0.3556
13754TIP3   OH262752   2.054   2.880   0.021  0.2422  0.1030 -0.4308
13754TIP3    H162753   2.047   2.971  -0.008 -1.0998 -0.5481 -2.4144
13754TIP3    H262754   2.041   2.829  -0.059  1.7629 -1.8492  0.4977
13755TIP3   OH262755   0.888   3.104  11.899  0.1232 -0.3119 -0.2207
13755TIP3    H162756   0.983   3.117  11.897  0.1060  0.2980  1.2824
13755TIP3    H262757   0.873   3.029  11.841  1.4021  0.1588 -1.2132
13756TIP3   OH262758   3.546   5.379   5.004 -0.1219 -0.4914  0.4185
13756TIP3    H162759   3.514   5.334   5.082  1.4122 -1.2831  0.6512
13756TIP3    H262760   3.548   5.471   5.027 -0.1719 -0.6680  1.1405
13757TIP3   OH262761   2.158   6.018  14.687  0.5968 -0.1409 -0.6166
13757TIP3    H162762   2.122   5.946  14.739  0.1427  0.8564  0.4945
13757TIP3    H262763   2.081   6.069  14.661  1.0525  1.3568  0.7947
13758TIP3   OH262764   5.163   5.067  15.807  0.1718  0.0093  0.1921
13758TIP3    H162765   5.218   5.126  15.859  0.8966 -0.2980 -0.2057
13758TIP3    H262766   5.096   5.124  15.770  1.5447  0.8494 -1.1435
13759TIP3   OH262767   2.518   3.911  11.360  0.1835  0.5680 -0.3343
13759TIP3    H162768   2.570   3.871  11.290 -1.6973 -2.4661 -0.1905
13759TIP3    H262769   2.566   3.892  11.440  0.2067  0.1438 -0.4449
13760TIP3   OH262770   1.506   0.239  12.462 -0.2975 -0.0688 -0.2879
13760TIP3    H162771   1.503   0.320  12.512  1.4041 -0.1435 -0.0108
13760TIP3    H262772   1.424   0.195  12.484 -0.0702  0.3754  1.6445
13761TIP3   OH262773   0.282   6.125  10.607  0.3639 -0.9177  0.1798
13761TIP3    H162774   0.264   6.081  10.690  1.0396  0.0803  0.8699
13761TIP3    H262775   0.377   6.136  10.606  0.3105 -0.4648 -0.4862
13762TIP3   OH262776   0.012   1.572  11.231  0.2334 -0.1711  0.2520
13762TIP3    H162777  -0.035   1.654  11.246  0.5889  0.6595 -2.5493
13762TIP3    H262778  -0.056   1.505  11.226 -0.9242  1.0283 -3.8965
13763TIP3   OH262779   2.189   4.983  12.591 -0.5482  0.0853 -0.1922
13763TIP3    H162780   2.215   4.924  12.661 -0.8046 -1.6371 -1.4788
13763TIP3    H262781   2.271   5.015  12.554 -0.3805 -0.3470 -0.1955
13764TIP3   OH262782   5.059   2.964  14.401 -0.1993  0.3427 -0.2729
13764TIP3    H162783   5.002   2.962  14.478  0.1304 -0.6280 -0.0340
13764TIP3    H262784   5.117   3.039  14.415 -0.2627  0.2774  0.3396
13765TIP3   OH262785   4.311   0.792  11.381 -0.1114  0.2636  0.5564
13765TIP3    H162786   4.253   0.738  11.328 -1.6372  0.7602  1.6429
13765TIP3    H262787   4.261   0.811  11.460  0.8255  2.2509  0.7436
13766TIP3   OH262788   2.135   3.422   3.543  0.3614  0.6110  0.1488
13766TIP3    H162789   2.178   3.474   3.611 -0.1425  0.6478  0.4471
13766TIP3    H262790   2.199   3.416   3.473  0.2197  2.1239 -0.1425
13767TIP3   OH262791   2.836   2.888   2.243  0.2317  0.3605 -0.4588
13767TIP3    H162792   2.883   2.911   2.162  1.0433 -2.5102 -0.9226
13767TIP3    H262793   2.781   2.813   2.218 -0.7982  0.4830  1.2864
13768TIP3   OH262794   5.504   3.229  15.215 -0.7076 -0.5833 -0.2360
13768TIP3    H162795   5.573   3.251  15.152 -0.2466 -1.8500 -0.2009
13768TIP3    H262796   5.445   3.171  15.167 -2.3498  1.2605 -0.5791
13769TIP3   OH262797   2.901   2.991   1.390 -0.0054  0.3739  0.2096
13769TIP3    H162798   2.909   3.015   1.482  1.4887 -0.1958  0.2552
13769TIP3    H262799   2.960   3.050   1.344 -0.3528  0.3143 -0.3233
13770TIP3   OH262800   2.816   6.463  10.821  0.0052  0.2128  0.8582
13770TIP3    H162801   2.912   6.465  10.822  0.1104  1.9362 -1.9726
13770TIP3    H262802   2.794   6.377  10.785  0.4592 -0.1004  1.3032
13771TIP3   OH262803   2.900   6.459  16.778 -0.0720 -0.2049  1.0923
13771TIP3    H162804   2.844   6.389  16.745 -0.4368  0.0040  1.2559
13771TIP3    H262805   2.955   6.416  16.843  1.3030 -0.8199 -0.4102
13772TIP3   OH262806   5.757   6.710   3.113  0.4289  0.1770 -0.0216
13772TIP3    H162807   5.817   6.733   3.183  1.6199 -0.0326 -0.9370
13772TIP3    H262808   5.683   6.669   3.157  1.6872 -1.0513  1.0487
13773TIP3   OH262809   0.624   4.329   1.661  0.4974  0.5297  0.0549
13773TIP3    H162810   0.570   4.297   1.589 -2.0040  1.1845  1.5450
13773TIP3    H262811   0.660   4.250   1.701 -0.3043 -0.0101 -0.2645
13774TIP3   OH262812   0.290   3.868   4.780 -0.4516  0.0841 -0.4416
13774TIP3    H162813   0.200   3.881   4.809 -0.2719 -0.2895  0.3147
13774TIP3    H262814   0.330   3.955   4.788 -0.9670  0.4442 -1.6222
13775TIP3   OH262815   0.484   2.379  14.414  0.0684 -0.3122 -0.6622
13775TIP3    H162816   0.567   2.391  14.461  0.7517 -0.6725 -1.7378
13775TIP3    H262817   0.417   2.403  14.478  1.0285  0.8401 -0.0417
13776TIP3   OH262818   0.082   2.570   4.700  0.0219 -0.2334  0.4042
13776TIP3    H162819   0.173   2.599   4.693  0.0171 -0.2921  0.0904
13776TIP3    H262820   0.059   2.585   4.792  0.7607 -1.4160  0.8150
13777TIP3   OH262821   6.749   5.799   4.127 -0.3663  0.0348 -0.2992
13777TIP3    H162822   6.742   5.853   4.206 -0.1264  0.6796 -0.7163
13777TIP3    H262823   6.842   5.796   4.107 -0.2356 -1.5275  0.3859
13778TIP3   OH262824   4.915   5.617  15.648  0.2636 -0.0901  0.3152
13778TIP3    H162825   4.829   5.638  15.612  0.8202  1.1494 -0.3560
13778TIP3    H262826   4.976   5.675  15.602  1.4211 -0.6783  1.0326
13779TIP3   OH262827   5.083   4.589  16.445 -0.1515  0.0981  0.1674
13779TIP3    H162828   5.002   4.638  16.427  0.8532  2.0623  0.6487
13779TIP3    H262829   5.123   4.636  16.518  2.2848  0.2712 -1.1852
13780TIP3   OH262830   2.454   6.336  15.487  0.1907 -0.3452  0.0327
13780TIP3    H162831   2.392   6.403  15.516  1.1615  0.8507 -0.5265
13780TIP3    H262832   2.449   6.340  15.391  3.2769  2.0261 -0.1951
13781TIP3   OH262833   1.755   0.889   4.582  0.7044 -0.4395 -0.2497
13781TIP3    H162834   1.689   0.844   4.530  2.7377 -2.4179 -1.3134
13781TIP3    H262835   1.735   0.982   4.572 -2.4188 -0.9642  0.2714
13782TIP3   OH262836   6.163   5.832  16.108  0.9630 -0.6523  0.3213
13782TIP3    H162837   6.118   5.770  16.050  1.1977 -1.1281  0.6428
13782TIP3    H262838   6.124   5.817  16.194  1.2912 -0.6206  0.4778
13783TIP3   OH262839   4.540   3.092  16.630 -0.2608 -0.8566  0.3300
13783TIP3    H162840   4.586   3.019  16.672  0.2062 -0.8166 -0.1002
13783TIP3    H262841   4.502   3.141  16.703 -2.1890 -2.5700  0.5543
13784TIP3   OH262842   0.733   2.914   5.785  0.5936  0.1957  0.7089
13784TIP3    H162843   0.759   2.963   5.863 -0.6254  1.8902  0.1069
13784TIP3    H262844   0.801   2.933   5.721  0.0705  1.2481  0.4438
13785TIP3   OH262845   1.223   2.177  15.419 -0.5190 -0.9467 -0.2730
13785TIP3    H162846   1.281   2.115  15.375 -0.6621 -0.3302 -1.3687
13785TIP3    H262847   1.182   2.226  15.348  1.4928  2.2195  0.5276
13786TIP3   OH262848   5.191   0.067   2.434  0.1439  0.2113  0.5424
13786TIP3    H162849   5.224   0.143   2.387  1.4525 -0.2933  0.5880
13786TIP3    H262850   5.212   0.085   2.526 -0.2417  0.1373  0.6459
13787TIP3   OH262851   2.109   0.906   5.192 -0.2834  0.0579  0.1451
13787TIP3    H162852   2.056   0.954   5.130 -2.0763 -1.8076  0.1278
13787TIP3    H262853   2.047   0.850   5.239  1.3650 -0.5044  1.7920
13788TIP3   OH262854   2.786   4.552   2.359  0.1475 -0.0831 -0.0795
13788TIP3    H162855   2.828   4.543   2.445 -1.8104  0.6304  1.0157
13788TIP3    H262856   2.774   4.646   2.348 -0.4060 -0.2265 -0.7543
13789TIP3   OH262857   0.222   0.138  12.464  0.4768  0.6285  0.2684
13789TIP3    H162858   0.312   0.164  12.484  0.8032 -0.2265 -0.0455
13789TIP3    H262859   0.207   0.171  12.375  0.0583  1.8201  0.7735
13790TIP3   OH262860   4.063   3.861  14.703  0.1676 -0.7094  0.0715
13790TIP3    H162861   4.149   3.890  14.672  1.0356 -2.6700  0.4604
13790TIP3    H262862   4.075   3.768  14.722 -2.1870 -1.1570 -0.3361
13791TIP3   OH262863   2.581   3.440  13.260  0.5040 -0.0813  0.2061
13791TIP3    H162864   2.526   3.363  13.245  2.7186 -1.6234 -0.5340
13791TIP3    H262865   2.539   3.487  13.332 -0.5329 -2.3949  1.1817
13792TIP3   OH262866   5.353   2.613  16.495  0.0117  0.1391  0.7352
13792TIP3    H162867   5.390   2.652  16.415 -1.6956  0.3463 -0.0018
13792TIP3    H262868   5.379   2.673  16.565  0.8419  0.3954  0.2230
13793TIP3   OH262869   2.807   4.462  15.798 -0.2662  0.7421  0.3985
13793TIP3    H162870   2.780   4.531  15.737  0.4403 -1.4078 -2.5436
13793TIP3    H262871   2.902   4.460  15.790 -0.2972 -0.7160  0.2771
13794TIP3   OH262872   2.495   1.117   6.483  0.1730  0.1260  0.6956
13794TIP3    H162873   2.538   1.196   6.449  0.1871  0.0738  0.5930
13794TIP3    H262874   2.417   1.107   6.428  1.0813 -0.9328 -0.4515
13795TIP3   OH262875   2.086   4.517   2.934  0.0081 -0.1936  0.8951
13795TIP3    H162876   2.058   4.437   2.978 -0.4756 -0.3589  0.2992
13795TIP3    H262877   2.015   4.537   2.873  1.4699 -1.0169 -1.1710
13796TIP3   OH262878   3.071   1.885  11.566  0.1667 -0.0771  0.8602
13796TIP3    H162879   3.071   1.964  11.620  0.5361 -0.7197  1.8252
13796TIP3    H262880   3.035   1.817  11.622  2.3168 -1.2010  1.0018
13797TIP3   OH262881   1.760   1.691   4.837 -0.0893 -0.1711  0.2765
13797TIP3    H162882   1.777   1.629   4.766  0.0581 -0.0771  0.2304
13797TIP3    H262883   1.836   1.682   4.895  1.2678  1.8691 -1.0511
13798TIP3   OH262884   6.238   3.746   0.096  0.1654 -0.1689 -0.0387
13798TIP3    H162885   6.156   3.737   0.046 -0.3364 -0.9016  0.8913
13798TIP3    H262886   6.297   3.791   0.036 -1.1918  1.1852 -0.4249
13799TIP3   OH262887   5.978   0.348  15.066  0.3280 -0.3455  0.3208
13799TIP3    H162888   5.973   0.252  15.070  1.6974 -0.5507 -1.6037
13799TIP3    H262889   5.918   0.372  14.995  0.7659  0.1191  0.1053
13800TIP3   OH262890   0.201   1.883  14.270 -0.0764  0.1281  0.0005
13800TIP3    H162891   0.110   1.913  14.263  0.0557  0.9599  1.4225
13800TIP3    H262892   0.215   1.829  14.192 -1.6300  0.3972 -0.4940
13801TIP3   OH262893   3.025   2.621  13.454  0.1926 -0.2763 -0.0746
13801TIP3    H162894   2.981   2.546  13.494 -0.8935 -0.7845 -2.0808
13801TIP3    H262895   3.094   2.644  13.516 -2.2664 -0.0313  2.7723
13802TIP3   OH262896   6.249   2.912  12.904 -0.4992 -0.1931 -0.4422
13802TIP3    H162897   6.212   2.825  12.922  0.8131 -1.1266 -1.9761
13802TIP3    H262898   6.243   2.921  12.809  0.1746  1.0239 -0.3843
13803TIP3   OH262899   3.595   1.846  16.415  0.2400 -0.6392  0.0930
13803TIP3    H162900   3.563   1.778  16.473  1.3196 -2.1170 -0.9668
13803TIP3    H262901   3.682   1.867  16.447  0.2117 -0.2927 -0.0439
13804TIP3   OH262902   5.577   6.074  15.832 -0.3472 -0.0473 -0.2274
13804TIP3    H162903   5.560   6.166  15.812 -0.2370  0.0358  0.0498
13804TIP3    H262904   5.567   6.068  15.927  1.7474  0.1527  0.0617
13805TIP3   OH262905   1.839   6.795  14.736  0.2270  0.4932 -0.4632
13805TIP3    H162906   1.915   6.850  14.722  0.3396  0.4709  0.0408
13805TIP3    H262907   1.766   6.856  14.745 -0.0533  0.4793 -2.2586
13806TIP3   OH262908   3.944   6.853  13.617 -0.4261 -0.5064  0.6919
13806TIP3    H162909   3.932   6.775  13.563 -0.1293 -1.7504  2.3442
13806TIP3    H262910   3.913   6.828  13.704  2.4588  0.1428  2.0493
13807TIP3   OH262911   2.898   5.628  17.008 -0.0661 -0.1406  0.6301
13807TIP3    H162912   2.953   5.559  16.970  0.6515 -0.3329  1.9592
13807TIP3    H262913   2.949   5.660  17.083 -0.9948  0.9084  0.8293
13808TIP3   OH262914   2.634   0.814  12.966 -0.0861  0.9269  0.1672
13808TIP3    H162915   2.553   0.768  12.992  0.3365 -0.0054 -0.1435
13808TIP3    H262916   2.702   0.773  13.020  0.8284 -1.0681 -2.3025
13809TIP3   OH262917   6.567   4.240   3.424 -0.1030 -0.4328  0.3383
13809TIP3    H162918   6.628   4.186   3.474  0.2065  0.4100  0.9029
13809TIP3    H262919   6.532   4.182   3.357  0.9777 -1.0515  0.2896
13810TIP3   OH262920   1.903   0.233   6.146  0.2433 -0.1053 -0.0821
13810TIP3    H162921   1.875   0.267   6.061  0.4734 -1.0948 -0.5520
13810TIP3    H262922   1.823   0.198   6.185  0.3264 -0.5692 -0.3236
13811TIP3   OH262923   1.635   6.092  14.798 -0.0362 -0.5703  0.4016
13811TIP3    H162924   1.596   6.179  14.802 -0.3588 -0.7488  1.7129
13811TIP3    H262925   1.576   6.042  14.741 -1.5020 -0.6942  1.9355
13812TIP3   OH262926   6.391   0.367  11.020 -0.1052  0.1438 -0.5808
13812TIP3    H162927   6.358   0.415  10.943  1.3465  1.9094 -0.1813
13812TIP3    H262928   6.410   0.279  10.987 -1.1728  0.3368 -1.7980
13813TIP3   OH262929   6.052   3.210  12.548  0.9803  0.1104 -0.7025
13813TIP3    H162930   6.120   3.185  12.484 -0.6355 -0.4788 -2.2651
13813TIP3    H262931   6.079   3.166  12.628  1.8518 -1.0678 -1.5974
13814TIP3   OH262932   2.957   4.432   5.258 -0.2088  0.0987  0.0993
13814TIP3    H162933   3.015   4.376   5.207  0.4232  0.5196  0.3483
13814TIP3    H262934   3.009   4.509   5.279 -0.0932 -0.5022  2.2395
13815TIP3   OH262935   2.791   5.666  12.944 -0.5235  0.1423 -0.1204
13815TIP3    H162936   2.701   5.699  12.941 -0.6949 -0.3510 -0.9279
13815TIP3    H262937   2.786   5.587  12.998 -0.3264  0.7837  0.8668
13816TIP3   OH262938   2.069   3.373   6.072 -0.2276  0.3322 -0.4444
13816TIP3    H162939   2.085   3.442   6.136 -1.0704 -0.5244  0.7344
13816TIP3    H262940   1.974   3.373   6.060 -0.3430 -1.1370  0.2130
13817TIP3   OH262941   6.527   3.093   3.412  0.3439  0.3770 -0.1707
13817TIP3    H162942   6.466   3.146   3.464 -0.0737  2.1915 -2.3224
13817TIP3    H262943   6.614   3.120   3.442  0.1572 -1.3370  2.0784
13818TIP3   OH262944   1.158   6.325   1.080 -0.2243  0.4788  0.8265
13818TIP3    H162945   1.157   6.351   0.988  0.9738  1.5231  1.0867
13818TIP3    H262946   1.156   6.407   1.128 -0.2141 -0.0402  1.7353
13819TIP3   OH262947   5.423   2.802   5.051  0.5611 -0.2849  0.4815
13819TIP3    H162948   5.346   2.745   5.049 -0.2461  0.8054 -0.3519
13819TIP3    H262949   5.411   2.855   5.130  0.1348  0.3045  0.0273
13820TIP3   OH262950   6.039   4.164  11.388 -0.3360 -0.4313 -0.1097
13820TIP3    H162951   6.006   4.210  11.311  0.5157  0.0246 -0.2125
13820TIP3    H262952   6.022   4.224  11.460 -0.5206 -0.5718 -0.0357
13821TIP3   OH262953   4.372   5.751  12.933 -0.0495  0.1458 -0.3563
13821TIP3    H162954   4.404   5.793  13.013  0.6562  1.7051 -1.4131
13821TIP3    H262955   4.276   5.749  12.944  0.1235 -1.7690  1.4859
13822TIP3   OH262956   5.576   0.920   0.759  0.1804  0.3715  0.0231
13822TIP3    H162957   5.535   0.900   0.843  2.5018  0.5464  1.2800
13822TIP3    H262958   5.525   0.870   0.695 -1.0778 -0.5136  1.6338
13823TIP3   OH262959   0.778   0.441   1.998 -0.2118 -0.3182 -0.4979
13823TIP3    H162960   0.696   0.427   2.046 -0.2747 -0.5942 -0.6839
13823TIP3    H262961   0.768   0.390   1.918  0.0976 -0.2614 -0.5740
13824TIP3   OH262962   0.446   6.027   1.725 -0.5568  0.5133 -0.1189
13824TIP3    H162963   0.461   6.063   1.812  1.8577 -0.2642 -0.1549
13824TIP3    H262964   0.475   6.096   1.665  1.5720 -0.4143 -0.2164
13825TIP3   OH262965   5.795   5.411   1.413  0.0732 -0.7916  0.3116
13825TIP3    H162966   5.877   5.444   1.377 -0.2494  0.2836  0.5179
13825TIP3    H262967   5.735   5.487   1.410  0.0006 -0.6388  3.0135
13826TIP3   OH262968   4.128   2.870  14.776 -0.3943  0.1056  0.0875
13826TIP3    H162969   4.058   2.914  14.728 -0.2723  0.3299  0.1128
13826TIP3    H262970   4.088   2.844  14.859  0.2475  2.7144  1.3404
13827TIP3   OH262971   3.509   6.775   1.045  0.2531 -0.2608  0.4303
13827TIP3    H162972   3.481   6.684   1.052  1.9667 -0.9357 -0.9631
13827TIP3    H262973   3.479   6.815   1.127 -2.9577 -1.3352 -0.0965
13828TIP3   OH262974   1.423   1.013   4.732  0.6141  0.3965  0.4633
13828TIP3    H162975   1.459   0.927   4.754  1.2128  1.3687  3.8226
13828TIP3    H262976   1.482   1.046   4.664  0.7262 -1.5783 -0.4559
13829TIP3   OH262977   4.176   2.440  16.245  0.8871  0.3883  0.3291
13829TIP3    H162978   4.139   2.489  16.319 -0.4144 -0.2466  0.1265
13829TIP3    H262979   4.106   2.380  16.219  1.7046 -0.1186 -0.7627
13830TIP3   OH262980   0.156   1.201  15.000  0.2930 -0.2080 -0.2122
13830TIP3    H162981   0.230   1.156  15.041  0.1892 -0.0087  0.1988
13830TIP3    H262982   0.079   1.159  15.038  0.1889  0.7761  0.7145
13831TIP3   OH262983   6.482   6.781   5.150  0.5027  0.6562  0.1170
13831TIP3    H162984   6.505   6.773   5.058 -2.5715  0.8094 -0.7846
13831TIP3    H262985   6.525   6.862   5.179  1.6586  0.5097 -1.0988
13832TIP3   OH262986   4.119   1.155   5.289 -0.1621  0.2212 -0.1697
13832TIP3    H162987   4.034   1.120   5.262 -0.5316 -0.2253  1.4279
13832TIP3    H262988   4.184   1.100   5.246 -0.6122  1.2750 -2.3408
13833TIP3   OH262989   0.269   3.058  14.376  0.1713  0.1467 -0.7167
13833TIP3    H162990   0.203   3.127  14.388 -0.4949 -0.3537 -1.4155
13833TIP3    H262991   0.267   3.009  14.458  0.5207  0.8431 -0.2833
13834TIP3   OH262992   0.880   4.699  14.724 -0.0119 -0.6693  0.0460
13834TIP3    H162993   0.962   4.739  14.752 -0.0382 -0.6619  0.1145
13834TIP3    H262994   0.829   4.771  14.687 -0.8875 -0.1859  2.0231
13835TIP3   OH262995   0.646   1.932  14.228  0.2215 -0.4387  0.2676
13835TIP3    H162996   0.576   1.966  14.283  0.3544 -0.5489  0.5047
13835TIP3    H262997   0.609   1.854  14.187 -0.5379  0.6745 -1.2896
13836TIP3   OH262998   5.194   1.422   5.223 -1.1491  0.0527 -0.6177
13836TIP3    H162999   5.166   1.420   5.315 -3.8017  0.5252 -1.3272
13836TIP3    H263000   5.274   1.370   5.222 -0.8980  0.2164  1.9845
13837TIP3   OH263001   3.924   5.074  15.351  0.5676  0.2596 -0.3569
13837TIP3    H163002   3.831   5.098  15.359  0.6316  0.3523  0.0990
13837TIP3    H263003   3.968   5.157  15.333  0.5368  0.1811 -0.8280
13838TIP3   OH263004   5.286   3.725   6.622  0.3818 -0.2008 -0.2836
13838TIP3    H163005   5.213   3.680   6.663  0.5414 -0.3636 -0.1724
13838TIP3    H263006   5.246   3.790   6.565  0.1586  0.2027  0.3210
13839TIP3   OH263007   1.888   6.225   3.192 -0.2414  0.5905  0.1812
13839TIP3    H163008   1.879   6.312   3.230 -3.0865  0.8361 -0.7959
13839TIP3    H263009   1.818   6.221   3.126  1.7384 -1.3307 -1.9818
13840TIP3   OH263010   2.303   1.212  14.183 -0.0631  0.5974 -0.4652
13840TIP3    H163011   2.260   1.174  14.107 -1.2367 -0.2824  0.6041
13840TIP3    H263012   2.307   1.306  14.165  0.7743  0.2777 -2.1143
13841TIP3   OH263013   1.417   2.555  16.080  0.3858  0.0176 -0.0523
13841TIP3    H163014   1.447   2.582  15.994 -0.4896 -0.7095 -0.6053
13841TIP3    H263015   1.322   2.564  16.077  0.3510  0.1347  0.8906
13842TIP3   OH263016   4.358   2.044   3.008 -0.0133  0.3044 -0.7555
13842TIP3    H163017   4.291   2.108   3.032 -0.0568  0.0327 -0.1388
13842TIP3    H263018   4.368   1.989   3.086  1.1586  0.5347 -0.7259
13843TIP3   OH263019   3.874   3.939  16.080  0.2469 -0.1007  0.2641
13843TIP3    H163020   3.908   3.852  16.102 -0.4757 -0.0054  1.8993
13843TIP3    H263021   3.809   3.923  16.011 -1.7641 -1.2450  2.3030
13844TIP3   OH263022   2.577   1.700  15.257 -0.2404 -0.1076 -0.1181
13844TIP3    H163023   2.619   1.753  15.326 -1.3777 -0.5841  0.9672
13844TIP3    H263024   2.506   1.654  15.302 -0.4965 -1.0609 -1.4579
13845TIP3   OH263025   6.759   5.788  13.828  0.0165  0.0728 -0.3835
13845TIP3    H163026   6.842   5.756  13.793  0.1698  0.1426 -0.0876
13845TIP3    H263027   6.784   5.854  13.894 -0.2615 -0.1445 -0.0540
13846TIP3   OH263028   2.729   0.665   4.207  0.3999 -0.1180 -0.0781
13846TIP3    H163029   2.823   0.659   4.225  0.3148 -0.7280  0.1888
13846TIP3    H263030   2.698   0.574   4.214  0.2683 -0.3744 -2.8162
13847TIP3   OH263031   5.128   4.029  16.248  0.0257  0.2945  0.3754
13847TIP3    H163032   5.172   4.058  16.328 -0.2724  0.1020  0.6136
13847TIP3    H263033   5.086   3.946  16.273 -2.0788  1.3867  0.7231
13848TIP3   OH263034   5.387   0.280  15.538 -0.5788  0.1935  0.4868
13848TIP3    H163035   5.322   0.210  15.541 -0.7698  0.2839 -0.9693
13848TIP3    H263036   5.393   0.304  15.446  0.9657  0.7125  0.6814
13849TIP3   OH263037   5.832   5.337   5.624  0.0799  1.1363 -0.2304
13849TIP3    H163038   5.847   5.266   5.561 -0.1786  1.1481 -0.3057
13849TIP3    H263039   5.912   5.390   5.620  0.7436  0.2380  0.6333
13850TIP3   OH263040   6.816   6.452   1.059  0.2036 -0.2539 -0.4971
13850TIP3    H163041   6.726   6.443   1.026  0.2896  1.4150 -1.3270
13850TIP3    H263042   6.824   6.545   1.078  1.9064 -0.3051 -0.8697
13851TIP3   OH263043   2.850   1.429  16.959 -0.1197 -0.4966  0.5321
13851TIP3    H163044   2.782   1.392  17.016 -0.9482  0.6224  0.2961
13851TIP3    H263045   2.886   1.502  17.009 -0.3220  0.0190 -0.0707
13852TIP3   OH263046   3.351   6.544  15.437 -0.2396  0.3051 -0.8984
13852TIP3    H163047   3.437   6.549  15.478  0.2441 -0.2776 -1.8033
13852TIP3    H263048   3.298   6.495  15.500 -0.0339  0.9994 -0.1617
13853TIP3   OH263049   1.989   4.045  14.597 -0.6225  0.3517 -0.5294
13853TIP3    H163050   1.933   4.051  14.674 -1.2064  0.1060 -0.9301
13853TIP3    H263051   2.039   4.127  14.597  0.0646 -0.0410  0.6244
13854TIP3   OH263052   2.268   6.620  16.042  0.4826  0.3978 -0.6900
13854TIP3    H163053   2.246   6.697  16.094  2.7771  0.5307  0.2101
13854TIP3    H263054   2.248   6.644  15.952  0.4853  1.7878 -0.3292
13855TIP3   OH263055   6.324   0.697  14.382 -0.0095 -1.1031  0.0416
13855TIP3    H163056   6.232   0.722  14.390  0.1831 -0.6922  1.2047
13855TIP3    H263057   6.365   0.771  14.337 -0.0917 -0.8700  0.3423
13856TIP3   OH263058   0.394   6.678   3.532 -0.6315  0.5076 -0.1460
13856TIP3    H163059   0.446   6.631   3.466 -0.2135  0.8912 -0.0966
13856TIP3    H263060   0.320   6.621   3.550  0.1229 -0.3566  0.2791
13857TIP3   OH263061   0.146   0.108  16.839  0.2910  0.0484 -0.2354
13857TIP3    H163062   0.084   0.131  16.908  1.4560  0.9474  0.5578
13857TIP3    H263063   0.140   0.180  16.776  0.7347  0.2850 -0.0092
13858TIP3   OH263064   4.684   5.930  14.983 -0.3213  0.2605 -0.3282
13858TIP3    H163065   4.683   5.850  15.035 -0.5845 -1.0111 -2.2264
13858TIP3    H263066   4.626   5.912  14.909  1.0722  1.5157 -1.7888
13859TIP3   OH263067   0.456   3.001   6.461 -0.5906  0.0554  0.0005
13859TIP3    H163068   0.517   2.929   6.444 -0.3552  0.1781  0.3080
13859TIP3    H263069   0.512   3.074   6.488 -0.9589 -0.4401  2.3832
13860TIP3   OH263070   2.147   0.124  11.810 -0.1088 -0.2679  0.0536
13860TIP3    H163071   2.073   0.113  11.869 -0.5788 -0.2789 -0.5221
13860TIP3    H263072   2.219   0.076  11.851 -0.3447 -0.0467  0.7442
13861TIP3   OH263073   6.844   3.820  14.185  0.0962  0.0238 -0.3088
13861TIP3    H163074   6.826   3.796  14.276  1.1882  0.0755 -0.0628
13861TIP3    H263075   6.862   3.914  14.188 -0.9080  0.2487 -0.7572
13862TIP3   OH263076   0.011   2.855   0.125 -0.0349  0.8285  0.2620
13862TIP3    H163077  -0.042   2.784   0.162 -2.2774  2.0622 -0.4039
13862TIP3    H263078   0.085   2.863   0.185  0.4629 -2.2055  0.2145
13863TIP3   OH263079   5.501   4.485  14.888  0.3283 -0.3093 -0.7327
13863TIP3    H163080   5.527   4.535  14.965  0.7991 -0.0116 -1.0823
13863TIP3    H263081   5.502   4.394  14.916  0.7824 -0.2213 -0.4672
13864TIP3   OH263082   5.203   3.600  11.990  0.4910 -0.0903  0.2202
13864TIP3    H163083   5.155   3.670  12.035  0.7729  1.2603 -1.4610
13864TIP3    H263084   5.155   3.520  12.012  0.2325  0.5784  2.3080
13865TIP3   OH263085   1.921   4.400  13.606 -0.1307  0.1420  0.0631
13865TIP3    H163086   1.926   4.492  13.582  0.3425 -0.2803 -1.6150
13865TIP3    H263087   2.005   4.363  13.579  0.0680 -0.6113  1.5856
13866TIP3   OH263088   0.037   1.953   4.676 -0.2133 -0.2533 -0.1239
13866TIP3    H163089   0.130   1.930   4.675 -0.1673 -0.0551 -1.0229
13866TIP3    H263090  -0.004   1.887   4.620 -0.5478 -0.0635 -0.1038
13867TIP3   OH263091   5.792   4.211  11.886 -0.0946 -0.0783  0.2872
13867TIP3    H163092   5.841   4.138  11.924  0.0517 -0.4450 -0.5709
13867TIP3    H263093   5.710   4.172  11.856  0.2200 -0.0258 -0.6868
13868TIP3   OH263094   3.858   1.725   5.085  0.8557 -0.8948  0.0423
13868TIP3    H163095   3.808   1.695   5.010 -1.9573 -2.0486  2.1874
13868TIP3    H263096   3.887   1.813   5.061  0.4490 -1.3923 -2.5116
13869TIP3   OH263097   3.543   3.022  15.351  0.4430 -0.0991  0.4777
13869TIP3    H163098   3.551   2.940  15.401 -0.0972 -0.5429 -0.1385
13869TIP3    H263099   3.475   3.071  15.397  2.1249  0.8937  2.0054
13870TIP3   OH263100   4.161   0.684  13.432 -0.3159  0.1227  0.7915
13870TIP3    H163101   4.152   0.609  13.491 -1.3114 -0.4756 -0.0780
13870TIP3    H263102   4.131   0.651  13.347  0.1895  1.2312  0.1610
13871TIP3   OH263103   6.802   4.242  15.710  0.0718 -0.7691  0.0269
13871TIP3    H163104   6.762   4.169  15.757 -1.3600  1.8640  3.3131
13871TIP3    H263105   6.895   4.235  15.730 -0.3084 -0.6536  1.9629
13872TIP3   OH263106   1.668   1.585   4.224  0.0966 -0.2631 -0.3985
13872TIP3    H163107   1.730   1.536   4.279  1.1436 -2.1272 -3.0483
13872TIP3    H263108   1.689   1.677   4.242  1.2366 -0.7986  1.3340
13873TIP3   OH263109   3.125   4.106  12.607  0.0954 -0.3239  0.0072
13873TIP3    H163110   3.062   4.178  12.609  0.2267 -0.2219  0.7546
13873TIP3    H263111   3.162   4.104  12.695  1.2044 -0.3290 -0.4366
13874TIP3   OH263112   6.182   3.315   3.968  0.5426 -0.0510 -0.2454
13874TIP3    H163113   6.271   3.305   4.002  0.1855 -1.4237  0.3618
13874TIP3    H263114   6.153   3.225   3.950 -1.6024  0.1018  1.9451
13875TIP3   OH263115   5.103   4.048   3.244  0.6212  0.3520 -0.0977
13875TIP3    H163116   5.160   4.095   3.183  0.6003 -0.8724 -1.1235
13875TIP3    H263117   5.068   3.976   3.191 -1.6097  0.8682  0.5973
13876TIP3   OH263118   2.751   4.413  16.443  0.3859  0.1029  0.0411
13876TIP3    H163119   2.790   4.478  16.384 -1.2818  0.9483 -0.1630
13876TIP3    H263120   2.686   4.461  16.493 -2.7778 -1.8330 -1.8993
13877TIP3   OH263121   5.739   6.082  15.090 -0.1810 -0.1864  0.3431
13877TIP3    H163122   5.761   6.113  15.178 -0.7137  1.4458 -0.0660
13877TIP3    H263123   5.665   6.136  15.063 -0.6837 -1.3577 -0.7235
13878TIP3   OH263124   2.993   0.174  13.437  0.2564  0.2244  0.1873
13878TIP3    H163125   3.010   0.122  13.515 -1.3948  0.8791  1.0239
13878TIP3    H263126   2.968   0.260  13.470  0.6241  0.8642 -1.1078
13879TIP3   OH263127   5.839   0.376  10.346 -0.0856  0.3195 -0.0802
13879TIP3    H163128   5.806   0.363  10.435  1.1724 -1.4861  0.1611
13879TIP3    H263129   5.911   0.438  10.356  0.9048 -0.8620  0.4007
13880TIP3   OH263130   3.862   5.646   4.361 -0.1120  0.8771  0.1462
13880TIP3    H163131   3.890   5.599   4.282  0.5899  0.5207  0.5933
13880TIP3    H263132   3.944   5.670   4.404 -0.4948  0.4655  1.1173
13881TIP3   OH263133   4.869   5.907   1.659  0.0608 -0.1044 -0.0412
13881TIP3    H163134   4.834   5.859   1.734 -0.8205 -0.6333 -0.7632
13881TIP3    H263135   4.793   5.949   1.620  0.5882  0.5825 -0.3530
13882TIP3   OH263136   5.474   4.648   2.473  0.0586  0.2502 -0.0413
13882TIP3    H163137   5.401   4.674   2.528  1.7897  1.6220  1.7405
13882TIP3    H263138   5.436   4.588   2.409 -2.2721 -0.5475  1.9479
13883TIP3   OH263139   2.509   1.526  12.660  0.1319  0.0315  0.1790
13883TIP3    H163140   2.540   1.594  12.721  0.1968  0.0195  0.1593
13883TIP3    H263141   2.537   1.444  12.700  0.0543  0.0163  0.2014
13884TIP3   OH263142   1.617   3.490  14.041  0.1663  0.6644 -0.6969
13884TIP3    H163143   1.710   3.512  14.051  1.1937 -3.3467  0.4485
13884TIP3    H263144   1.581   3.501  14.129  0.1081  0.1658 -0.6572
13885TIP3   OH263145   3.612   0.486   3.598  0.6407 -0.0286  0.2693
13885TIP3    H163146   3.700   0.483   3.560  0.2740  2.5716 -1.0361
13885TIP3    H263147   3.626   0.507   3.690  1.4001 -1.8526  0.6182
13886TIP3   OH263148   6.727   0.807  10.841  0.1466 -0.0593 -0.2675
13886TIP3    H163149   6.663   0.736  10.834 -0.6977  0.7741 -1.3116
13886TIP3    H263150   6.675   0.882  10.871  1.0168  0.1532  0.7758
13887TIP3   OH263151   0.682   4.063  16.521  0.7340  0.1507  0.0148
13887TIP3    H163152   0.766   4.027  16.548  0.5149 -0.2634  0.1502
13887TIP3    H263153   0.660   4.015  16.441  0.9969  0.8096 -0.4644
13888TIP3   OH263154   0.564   2.744  14.459 -0.4705  0.0653 -0.9190
13888TIP3    H163155   0.481   2.778  14.492 -1.4501 -0.1730 -2.9482
13888TIP3    H263156   0.618   2.822  14.445 -0.3568  0.2284  0.3370
13889TIP3   OH263157   4.210   1.631   2.660  0.1801 -0.4923  0.1184
13889TIP3    H163158   4.264   1.696   2.615 -0.0751 -0.6633 -0.4405
13889TIP3    H263159   4.196   1.668   2.748 -0.1890  0.3440 -0.2776
13890TIP3   OH263160   4.936   1.828   0.091 -0.0238  0.3202  0.2759
13890TIP3    H163161   5.026   1.846   0.118  0.9976 -2.4491 -0.8842
13890TIP3    H263162   4.891   1.803   0.171  0.1802  1.7496  0.8713
13891TIP3   OH263163   3.506   1.092   2.295  0.1555  0.5815  0.0085
13891TIP3    H163164   3.491   1.026   2.363 -1.8011  1.5184  0.5569
13891TIP3    H263165   3.419   1.122   2.271  0.9826  3.1332 -0.0723
13892TIP3   OH263166   1.702   3.826  12.845  0.0919 -0.0491  0.3607
13892TIP3    H163167   1.697   3.739  12.883  2.1069 -0.3458  0.0467
13892TIP3    H263168   1.720   3.884  12.919  0.2932 -0.1155  0.3639
13893TIP3   OH263169   2.798   0.470   5.772 -0.2080  0.4487  0.0732
13893TIP3    H163170   2.816   0.546   5.716 -0.7585  0.4803 -0.0663
13893TIP3    H263171   2.860   0.479   5.845  1.5167 -0.3551 -1.2235
13894TIP3   OH263172   6.077   0.874   1.772  0.0323  0.2720  0.5120
13894TIP3    H163173   6.115   0.787   1.769  1.2559  0.7974 -0.2550
13894TIP3    H263174   6.079   0.899   1.864  1.7445  0.3292  0.4945
13895TIP3   OH263175   5.539   1.458  16.231  0.2822 -0.1722  0.0888
13895TIP3    H163176   5.540   1.401  16.155 -0.0708  0.4947 -0.4271
13895TIP3    H263177   5.629   1.489  16.240 -0.0783  1.5257 -1.4563
13896TIP3   OH263178   0.537   5.224   4.943 -0.2925 -0.5911 -0.3689
13896TIP3    H163179   0.595   5.216   4.866  0.1670 -0.1753 -0.0760
13896TIP3    H263180   0.480   5.299   4.922 -1.1867 -1.4152 -0.9447
13897TIP3   OH263181   3.692   2.181   1.700  0.7146 -0.4166 -0.1625
13897TIP3    H163182   3.601   2.179   1.731  0.6855  1.6537  0.0870
13897TIP3    H263183   3.745   2.169   1.778  0.6582 -0.8662 -0.1923
13898TIP3   OH263184   2.575   2.186   1.231  0.4161 -0.4704 -0.4472
13898TIP3    H163185   2.602   2.176   1.322  1.9762  0.2068 -0.7896
13898TIP3    H263186   2.564   2.097   1.199 -0.3148 -0.7112  0.4317
13899TIP3   OH263187   2.732   0.072  12.007  0.3192  0.2563  0.5167
13899TIP3    H163188   2.727  -0.024  12.005 -0.8793  0.3048 -1.0419
13899TIP3    H263189   2.813   0.091  12.053  0.4943 -1.5080  1.0079
13900TIP3   OH263190   1.497   6.772   3.842 -0.3130 -0.2785 -0.0970
13900TIP3    H163191   1.431   6.705   3.826 -1.4806  0.8957 -0.4010
13900TIP3    H263192   1.580   6.725   3.844 -0.9974 -1.5866 -1.3308
13901TIP3   OH263193   3.713   0.864   5.235 -0.6183  0.0913 -0.0350
13901TIP3    H163194   3.797   0.881   5.193 -0.0445 -1.3021  0.4854
13901TIP3    H263195   3.693   0.944   5.283  1.8129 -0.4692  2.1233
13902TIP3   OH263196   3.393   5.485   1.249  0.2215 -0.2555  0.2753
13902TIP3    H163197   3.485   5.463   1.262  0.6910  1.0913 -0.5086
13902TIP3    H263198   3.347   5.442   1.320  1.6479  0.2827  1.5771
13903TIP3   OH263199   3.788   0.186  13.020  0.2832 -0.2891 -0.1533
13903TIP3    H163200   3.694   0.186  13.001  0.0246  1.2284  0.9562
13903TIP3    H263201   3.794   0.210  13.112  1.7903  0.1247 -0.3372
13904TIP3   OH263202   3.091   1.926  12.361 -0.2026  0.5672  0.7416
13904TIP3    H163203   3.054   1.860  12.301 -0.3798  1.4238 -0.1255
13904TIP3    H263204   3.186   1.912  12.357 -0.2439  0.3177  0.6205
13905TIP3   OH263205   5.938   1.355   0.315  0.2901 -0.0366  0.0678
13905TIP3    H163206   5.974   1.444   0.305  1.7011 -0.2514  2.4793
13905TIP3    H263207   5.844   1.367   0.307  0.0598  2.4161  3.8329
13906TIP3   OH263208   3.042   0.626  13.500  0.5531  0.1576  0.3228
13906TIP3    H163209   2.955   0.658  13.521  1.5068  2.6768  0.7703
13906TIP3    H263210   3.051   0.545  13.551 -1.4915 -0.1927  0.2189
13907TIP3   OH263211   1.891   6.755   2.567  0.1878  0.1103 -0.2355
13907TIP3    H163212   1.801   6.787   2.561 -0.2006 -0.7568  0.6569
13907TIP3    H263213   1.943   6.819   2.519 -0.4093  2.7566  2.3338
13908TIP3   OH263214   0.746   6.412   3.271 -0.0579 -0.0001  0.0844
13908TIP3    H163215   0.830   6.389   3.232  0.0969  1.9134 -0.8419
13908TIP3    H263216   0.756   6.394   3.364  2.4238  2.8340  0.4997
13909TIP3   OH263217   2.091   2.799  10.245  0.1381  0.4481 -0.1054
13909TIP3    H163218   2.141   2.880  10.237  0.6728  0.2828  1.2113
13909TIP3    H263219   2.158   2.731  10.258 -0.3471 -0.0686 -0.2906
13910TIP3   OH263220   4.831   0.792   3.969 -0.5220 -0.8787 -0.3884
13910TIP3    H163221   4.891   0.866   3.980 -0.1314 -1.2783  0.2330
13910TIP3    H263222   4.808   0.767   4.058 -1.3208 -0.9758 -0.6137
13911TIP3   OH263223   5.529   6.191   4.421 -0.2745  0.5630  0.3041
13911TIP3    H163224   5.448   6.241   4.430  0.3380  1.3235  1.8531
13911TIP3    H263225   5.588   6.249   4.372  0.1974  1.0946  1.4783
13912TIP3   OH263226   4.560   6.577  11.655 -0.4198 -0.4069  0.6257
13912TIP3    H163227   4.569   6.496  11.604  1.1434  1.4704 -2.3369
13912TIP3    H263228   4.622   6.566  11.727  1.1549 -1.1787 -0.7663
13913TIP3   OH263229   5.644   6.696  15.442 -0.5520 -0.0585  0.4926
13913TIP3    H163230   5.707   6.767  15.429 -0.4278  0.2379  2.5054
13913TIP3    H263231   5.677   6.625  15.387  0.8836  0.4898  0.6048
13914TIP3   OH263232   1.857   4.235   6.611 -0.2568 -0.6408  0.0398
13914TIP3    H163233   1.859   4.274   6.698  0.9518 -0.6936  0.0597
13914TIP3    H263234   1.764   4.220   6.593 -0.5476 -0.2621  1.1454
13915TIP3   OH263235   5.711   2.811  13.390 -0.3451 -0.5172  0.3837
13915TIP3    H163236   5.697   2.868  13.465 -0.1512  0.6521 -0.4367
13915TIP3    H263237   5.767   2.741  13.422 -0.6872 -0.3158  1.4470
13916TIP3   OH263238   4.594   1.798  14.002 -0.2472 -0.7371  0.2541
13916TIP3    H163239   4.668   1.750  13.965 -1.4612 -3.1917  0.8076
13916TIP3    H263240   4.535   1.810  13.928 -0.2767 -0.7781  0.2706
13917TIP3   OH263241   3.800   1.065   5.608  1.0847 -0.1731 -0.3073
13917TIP3    H163242   3.769   1.147   5.569 -1.1195 -1.4138 -1.3610
13917TIP3    H263243   3.891   1.059   5.581  1.3580  1.9742 -0.0664
13918TIP3   OH263244   0.014   5.139  12.084 -0.3071  0.4783 -0.1256
13918TIP3    H163245   0.083   5.167  12.144 -0.7277 -0.9320  1.0715
13918TIP3    H263246  -0.067   5.152  12.133 -0.8636  1.3585 -1.2243
13919TIP3   OH263247   2.509   2.374   2.118 -0.1011 -0.5155  0.0461
13919TIP3    H163248   2.511   2.466   2.091 -2.0618 -0.5502 -0.3790
13919TIP3    H263249   2.487   2.378   2.212 -0.7407 -0.5486 -0.0981
13920TIP3   OH263250   1.479   0.450  10.604 -0.4018  0.2223 -0.1704
13920TIP3    H163251   1.557   0.476  10.555 -0.2664  0.4296  0.1497
13920TIP3    H263252   1.413   0.434  10.537 -0.1524  0.2799 -0.4313
13921TIP3   OH263253   6.480   0.290  12.298  0.3995 -0.3131 -0.9235
13921TIP3    H163254   6.386   0.272  12.300  0.5866 -1.2441  0.0845
13921TIP3    H263255   6.497   0.319  12.209 -0.7501 -0.6473 -1.2628
13922TIP3   OH263256   1.512   5.199   5.625 -0.0016  0.0702 -0.1815
13922TIP3    H163257   1.453   5.137   5.668  1.7251 -1.4895  0.0461
13922TIP3    H263258   1.547   5.253   5.696 -0.9076  0.8458 -0.2909
13923TIP3   OH263259   6.161   4.883  14.929 -0.2656 -0.7161  0.2179
13923TIP3    H163260   6.196   4.799  14.898  0.3106 -0.0761 -0.8984
13923TIP3    H263261   6.238   4.935  14.950 -0.5959 -0.0624 -0.1756
13924TIP3   OH263262   4.859   2.426   3.277  0.4042  0.3423 -0.7867
13924TIP3    H163263   4.878   2.357   3.340  1.3441  1.0200 -0.3049
13924TIP3    H263264   4.769   2.409   3.250  0.2991 -0.5077  0.0360
13925TIP3   OH263265   0.869   5.377   2.510  0.4511  0.1997  0.1606
13925TIP3    H163266   0.792   5.372   2.453 -0.2982 -0.4891  1.1839
13925TIP3    H263267   0.878   5.470   2.531 -0.4121  0.2360  0.4190
13926TIP3   OH263268   1.588   3.383  15.465  0.1371  0.1880  0.1046
13926TIP3    H163269   1.582   3.426  15.551  1.4269  1.4443 -0.3928
13926TIP3    H263270   1.526   3.431  15.410  2.0172  1.9308 -0.6136
13927TIP3   OH263271   5.355   4.415   3.819 -0.1707 -0.2680 -0.2784
13927TIP3    H163272   5.304   4.351   3.869 -1.2299  1.0597  0.3818
13927TIP3    H263273   5.298   4.441   3.747  0.7533 -0.9938 -1.3266
13928TIP3   OH263274   1.403   6.582  16.903 -0.1705 -0.0347  0.3382
13928TIP3    H163275   1.410   6.525  16.827  0.2357 -0.3541  0.6125
13928TIP3    H263276   1.320   6.629  16.890 -0.3356 -0.4268 -0.0638
13929TIP3   OH263277   4.755   4.085   3.437 -0.0418 -0.0130  0.0800
13929TIP3    H163278   4.720   4.110   3.352 -1.2981 -0.3106  0.4950
13929TIP3    H263279   4.766   4.168   3.483  0.5840  0.1440 -0.3399
13930TIP3   OH263280   5.303   2.882   0.412 -0.6049  0.0906  0.0314
13930TIP3    H163281   5.377   2.937   0.436 -1.0593  0.6331  0.2134
13930TIP3    H263282   5.335   2.827   0.341  0.0223  0.1937  0.2336
13931TIP3   OH263283   3.519   0.973  16.307 -0.4219  0.1669  0.2079
13931TIP3    H163284   3.537   0.986  16.214  1.8669 -1.3184  0.3745
13931TIP3    H263285   3.517   1.062  16.344  1.6824  0.6904 -0.7913
13932TIP3   OH263286   0.073   5.149  12.377 -0.1034  0.5636  0.3870
13932TIP3    H163287   0.002   5.098  12.415 -2.0471  1.3357 -1.9404
13932TIP3    H263288   0.046   5.240  12.388 -0.1616  0.8369 -1.6029
13933TIP3   OH263289   5.981   2.212   0.650  0.5105  0.3337  0.5303
13933TIP3    H163290   5.910   2.259   0.695  1.0798  1.1083  0.6323
13933TIP3    H263291   5.938   2.173   0.573  0.2259  1.9130 -0.1473
13934TIP3   OH263292   2.789   2.719  13.071  0.1672  0.3048  0.0557
13934TIP3    H163293   2.784   2.748  13.161 -2.0866  0.9170 -0.2231
13934TIP3    H263294   2.805   2.799  13.020  0.9926  0.0225 -0.1589
13935TIP3   OH263295   0.439   3.427   0.543 -0.9784  0.0717  0.1202
13935TIP3    H163296   0.482   3.464   0.619 -1.1824 -0.8801  0.7236
13935TIP3    H263297   0.463   3.334   0.545 -1.9256 -0.2033 -0.3040
13936TIP3   OH263298   6.732   5.005  12.531  0.8674 -0.3188  0.2283
13936TIP3    H163299   6.645   4.977  12.503  0.1840  0.2082  1.7513
13936TIP3    H263300   6.766   4.934  12.584  0.6737  0.1653  1.0095
13937TIP3   OH263301   0.854   0.039  13.035  0.7669  0.2733  0.0240
13937TIP3    H163302   0.941   0.017  13.004  0.2375 -0.2011 -1.1908
13937TIP3    H263303   0.796  -0.023  12.990  0.1212 -2.0954  3.7065
13938TIP3   OH263304   5.045   5.359  12.461 -0.0834 -0.5538 -0.5061
13938TIP3    H163305   5.100   5.283  12.442 -0.6492 -0.5624 -2.3131
13938TIP3    H263306   5.064   5.420  12.390 -0.4202  0.5766  0.3420
13939TIP3   OH263307   4.585   1.878   1.069 -0.8845  0.0030  0.4888
13939TIP3    H163308   4.628   1.919   0.994 -1.4591 -0.8542 -0.3524
13939TIP3    H263309   4.580   1.946   1.135  1.1427  0.3202  0.3821
13940TIP3   OH263310   3.720   2.310  12.972  0.2204  0.6075 -0.4383
13940TIP3    H163311   3.772   2.247  12.923  0.1806  0.5099 -0.3535
13940TIP3    H263312   3.673   2.360  12.905 -0.1814  0.1807 -0.4827
13941TIP3   OH263313   3.649   1.853   0.345  0.7064 -0.0638 -0.6736
13941TIP3    H163314   3.724   1.804   0.312  1.7596  1.8416 -1.2470
13941TIP3    H263315   3.687   1.919   0.403 -0.7290 -0.3365  0.6738
13942TIP3   OH263316   3.029   3.622  14.091  0.1370  0.6211 -0.6037
13942TIP3    H163317   3.097   3.647  14.028  0.7332  2.0282  0.5460
13942TIP3    H263318   3.060   3.540  14.128  0.3250  0.3505 -1.3346
13943TIP3   OH263319   4.745   3.050   1.415  0.6860 -1.1078 -0.1907
13943TIP3    H163320   4.724   2.956   1.413  1.3395 -1.2649  0.0388
13943TIP3    H263321   4.808   3.059   1.487  1.3747 -0.6478 -0.8387
13944TIP3   OH263322   6.405   0.677  15.682  0.0818 -0.2381 -0.5385
13944TIP3    H163323   6.394   0.652  15.774 -0.4996  1.3648 -0.1522
13944TIP3    H263324   6.316   0.681  15.648  0.1583  1.0626 -0.6335
13945TIP3   OH263325   3.291   1.967   5.070 -0.2419  0.0264 -0.4742
13945TIP3    H163326   3.197   1.949   5.072 -0.1999 -0.1576  0.8353
13945TIP3    H263327   3.322   1.929   4.988 -1.1082 -0.9457 -0.3637
13946TIP3   OH263328   3.268   5.220  12.976  0.0821 -0.2934 -0.3014
13946TIP3    H163329   3.348   5.260  12.943 -0.2163  2.1588  1.6258
13946TIP3    H263330   3.293   5.181  13.060 -0.6883  0.5208  0.3341
13947TIP3   OH263331   5.874   3.876  12.428 -0.2023  0.0910  0.1246
13947TIP3    H163332   5.801   3.821  12.398  0.2283 -1.3310  1.5314
13947TIP3    H263333   5.943   3.860  12.363 -0.4073 -0.2853 -0.0083
13948TIP3   OH263334   3.101   5.835  11.389 -0.3860 -0.3018 -0.3778
13948TIP3    H163335   3.044   5.860  11.461  1.5386  0.4830  0.9700
13948TIP3    H263336   3.063   5.877  11.312 -1.7195 -0.0121  0.4150
13949TIP3   OH263337   1.231   2.407  12.209  0.4133  0.4565 -0.1671
13949TIP3    H163338   1.163   2.473  12.195  1.0395  1.2645  0.5077
13949TIP3    H263339   1.286   2.443  12.279  0.8946 -0.6866  0.0627
13950TIP3   OH263340   5.472   3.649  16.872 -0.0034  0.6848  0.1125
13950TIP3    H163341   5.541   3.710  16.900  1.3592  0.1592 -1.8542
13950TIP3    H263342   5.517   3.589  16.812 -1.7656 -0.9536  0.3594
13951TIP3   OH263343   4.759   6.506   1.116  0.0378  0.0713 -0.0664
13951TIP3    H163344   4.730   6.414   1.112 -1.9232  0.5816  0.8097
13951TIP3    H263345   4.727   6.545   1.035 -2.6626  0.8245  1.2520
13952TIP3   OH263346   0.501   6.021  14.177 -0.1954 -0.0382  0.0008
13952TIP3    H163347   0.473   5.931  14.158  1.9275 -0.8927  0.6827
13952TIP3    H263348   0.517   6.060  14.091 -1.4301 -0.1832 -0.3122
13953TIP3   OH263349   1.553   2.173  14.869 -0.5160 -0.1989 -0.4050
13953TIP3    H163350   1.633   2.123  14.851  1.8725  2.7009  1.1443
13953TIP3    H263351   1.550   2.239  14.799  0.0353  1.3796  0.9985
13954TIP3   OH263352   0.347   3.617  15.488  0.4603 -0.4875  0.2803
13954TIP3    H163353   0.325   3.612  15.581 -0.1691 -1.3998  0.0972
13954TIP3    H263354   0.294   3.549  15.447  0.2915  0.2905 -0.8374
13955TIP3   OH263355   1.548   3.865  12.579 -0.3174 -0.7180  0.3658
13955TIP3    H163356   1.615   3.841  12.643 -0.7088 -1.4450  0.5230
13955TIP3    H263357   1.467   3.830  12.616 -0.3288 -2.6589 -1.2677
13956TIP3   OH263358   3.159   2.848  16.118 -0.1549 -0.1288 -0.3270
13956TIP3    H163359   3.168   2.941  16.097 -1.0012  0.2768  0.9636
13956TIP3    H263360   3.248   2.814  16.113  0.1166  0.6416 -1.2322
13957TIP3   OH263361   0.333   4.912  14.228  0.7019  0.1512 -0.5567
13957TIP3    H163362   0.283   4.838  14.194 -2.0918  1.1587  1.0461
13957TIP3    H263363   0.377   4.878  14.307  0.0506 -0.0056 -0.2592
13958TIP3   OH263364   5.763   1.394  12.457 -0.4197  0.0289  0.2141
13958TIP3    H163365   5.821   1.435  12.521 -2.4484  2.3605  0.6926
13958TIP3    H263366   5.677   1.392  12.500 -1.3255 -0.5865 -1.5444
13959TIP3   OH263367   2.997   1.049  12.673  0.2701 -0.3525 -0.2948
13959TIP3    H163368   3.000   0.957  12.697  0.3163 -0.2429  0.1257
13959TIP3    H263369   3.035   1.095  12.748 -0.2745  0.0529 -0.2589
13960TIP3   OH263370   6.557   4.006   4.925  0.0001 -0.1588 -0.0083
13960TIP3    H163371   6.539   3.946   4.853  0.7676 -1.6975  1.0256
13960TIP3    H263372   6.627   4.062   4.893 -0.4411 -0.0777 -0.8492
13961TIP3   OH263373   4.185   2.989   4.527 -0.1646  0.6015  0.5008
13961TIP3    H163374   4.137   3.004   4.445  0.5878  0.8870  0.1063
13961TIP3    H263375   4.224   3.074   4.548  0.3584  0.3124  0.6962
13962TIP3   OH263376   3.812   2.774   0.903  0.1450  0.5643  0.0373
13962TIP3    H163377   3.780   2.720   0.975 -0.6269  1.2840  0.2449
13962TIP3    H263378   3.898   2.805   0.933 -0.2326  0.9800  0.7097
13963TIP3   OH263379   4.739   2.422  15.986 -0.4549  0.4129 -0.0214
13963TIP3    H163380   4.822   2.455  15.952 -0.2607  0.2290  0.2699
13963TIP3    H263381   4.672   2.466  15.933 -0.1784  0.6665 -0.1635
13964TIP3   OH263382   0.721   2.928   1.076  0.4625  0.4667 -0.5018
13964TIP3    H163383   0.809   2.948   1.109  2.0429  0.0176 -4.0357
13964TIP3    H263384   0.711   2.834   1.090 -0.7409  0.9208  2.4202
13965TIP3   OH263385   1.170   6.067   4.617 -0.1434 -0.1377  0.6007
13965TIP3    H163386   1.186   6.148   4.666  1.0548 -0.6680  1.1370
13965TIP3    H263387   1.216   6.000   4.667 -2.5498 -1.4960  1.1412
13966TIP3   OH263388   1.244   5.284  10.255  0.0860  0.1054 -0.3506
13966TIP3    H163389   1.319   5.317  10.306 -1.4434  0.5381  1.7485
13966TIP3    H263390   1.205   5.362  10.217 -1.5333  0.4378  1.8123
13967TIP3   OH263391   4.034   0.286   1.010 -0.2698 -0.2350  0.7126
13967TIP3    H163392   4.073   0.334   0.937  0.2847  0.4402  1.4442
13967TIP3    H263393   4.059   0.195   0.995  0.3556 -0.0118  0.3885
13968TIP3   OH263394   5.076   4.393   5.755 -0.3958 -0.2160 -0.2918
13968TIP3    H163395   5.023   4.383   5.676  0.2388 -1.2882 -0.5997
13968TIP3    H263396   5.072   4.486   5.775 -0.8557  0.0126 -1.3809
13969TIP3   OH263397   0.478   5.622  15.396  0.3224 -0.7116 -0.1005
13969TIP3    H163398   0.490   5.535  15.359  1.6256 -0.3850 -0.5016
13969TIP3    H263399   0.388   5.646  15.374  0.0368 -1.8469 -0.2031
13970TIP3   OH263400   4.306   4.312   3.855 -0.7246 -0.5486  0.0136
13970TIP3    H163401   4.372   4.272   3.911  0.5349 -0.9234 -1.6722
13970TIP3    H263402   4.243   4.241   3.838 -0.4060 -0.8102 -0.0902
13971TIP3   OH263403   1.252   1.734   3.395  0.5096  0.5747  0.0739
13971TIP3    H163404   1.342   1.702   3.388  0.4293 -0.3857  2.5677
13971TIP3    H263405   1.221   1.737   3.305  3.0428  1.0496 -0.8800
13972TIP3   OH263406   2.271   2.802  12.178 -0.0017  0.0360  0.5595
13972TIP3    H163407   2.250   2.819  12.269  2.1182 -1.1113  1.3143
13972TIP3    H263408   2.302   2.711  12.177 -1.5303 -0.5611 -1.6130
13973TIP3   OH263409   1.198   2.022  16.066  0.8601  0.3481 -0.3160
13973TIP3    H163410   1.194   1.943  16.120 -0.5751 -0.1022 -1.0268
13973TIP3    H263411   1.181   2.094  16.127  2.9985  0.2340  0.4934
13974TIP3   OH263412   2.212   5.623   3.178  0.7498  0.1999 -0.2509
13974TIP3    H163413   2.278   5.587   3.238 -0.0824 -0.1176  0.4899
13974TIP3    H263414   2.128   5.606   3.221  0.2028  1.0417 -0.9513
13975TIP3   OH263415   2.816   2.548   1.578 -0.2257 -0.0490 -0.7659
13975TIP3    H163416   2.804   2.473   1.520  1.3622 -0.8935 -0.0835
13975TIP3    H263417   2.864   2.612   1.526  0.0654 -0.2822 -0.7884
13976TIP3   OH263418   1.980   4.199  10.951  0.5452  0.1115  0.2417
13976TIP3    H163419   1.885   4.193  10.939  0.7563  0.6606 -2.2412
13976TIP3    H263420   2.013   4.112  10.929  0.6121 -0.2043  1.5258
13977TIP3   OH263421   1.997   5.869   3.122  0.5213 -0.1303  0.3728
13977TIP3    H163422   2.022   5.927   3.193 -0.5264  2.6310 -1.3784
13977TIP3    H263423   1.945   5.800   3.164  1.5615  0.3224  2.4836
13978TIP3   OH263424   5.221   6.041  15.793 -0.0095 -0.0758 -0.3503
13978TIP3    H163425   5.128   6.064  15.784 -0.0245 -0.1096 -0.2873
13978TIP3    H263426   5.254   6.038  15.704  0.0060  0.2503 -0.3559
13979TIP3   OH263427   3.414   3.569   1.873 -0.0121 -0.8067  0.0671
13979TIP3    H163428   3.464   3.548   1.794 -1.9567 -3.4101 -0.6084
13979TIP3    H263429   3.376   3.655   1.855 -0.2214 -1.2372 -1.7653
13980TIP3   OH263430   0.524   1.492   2.490  0.1389 -0.1315  0.1169
13980TIP3    H163431   0.529   1.509   2.396  2.0490 -1.2980 -0.0493
13980TIP3    H263432   0.534   1.578   2.530  1.6306  0.1461 -0.7605
13981TIP3   OH263433   1.762   0.100  12.191  0.0004  0.8205  0.5479
13981TIP3    H163434   1.684   0.150  12.167 -0.1949  0.7392  1.0196
13981TIP3    H263435   1.739   0.055  12.272 -0.0527 -0.5594 -0.1969
13982TIP3   OH263436   1.009   0.098   0.472 -0.4783 -0.9405  0.5720
13982TIP3    H163437   1.102   0.075   0.471 -0.8530 -2.5270 -0.2184
13982TIP3    H263438   1.008   0.193   0.456  0.8888 -1.3264 -2.4585
13983TIP3   OH263439   6.396   4.751  13.143  0.0549  0.0797  0.0781
13983TIP3    H163440   6.368   4.804  13.068 -0.0021  0.3963  0.3185
13983TIP3    H263441   6.465   4.804  13.185  2.3490 -1.4470 -1.5278
13984TIP3   OH263442   4.221   0.034  13.764  0.1068 -0.7292 -0.3842
13984TIP3    H163443   4.180   0.064  13.683  2.1398 -1.5632 -1.8177
13984TIP3    H263444   4.153   0.041  13.831 -1.4124  0.6734 -2.0179
13985TIP3   OH263445   4.182   5.894   2.172 -0.2014  0.0724 -0.2617
13985TIP3    H163446   4.144   5.827   2.114  0.5116  0.8806 -1.7234
13985TIP3    H263447   4.107   5.932   2.217 -0.5900 -2.0963  1.1047
13986TIP3   OH263448   4.253   0.433   3.389 -0.2470  0.2043 -0.2558
13986TIP3    H163449   4.171   0.397   3.355 -0.2255 -0.5832  0.4801
13986TIP3    H263450   4.308   0.356   3.404  0.2597  0.6489  0.1799
13987TIP3   OH263451   6.690   5.126  11.854  0.3895  0.0369 -0.2377
13987TIP3    H163452   6.744   5.122  11.932 -1.3528 -0.5488  1.0066
13987TIP3    H263453   6.744   5.087  11.785  2.1140  0.9332  0.5561
13988TIP3   OH263454   5.637   3.762  14.639  0.5909  0.4547  0.6470
13988TIP3    H163455   5.542   3.777  14.642  0.5051  0.2215 -0.6111
13988TIP3    H263456   5.646   3.666  14.636  0.7418  0.4865 -1.7867
13989TIP3   OH263457   3.869   3.973  15.305  0.2391  0.0453  0.1131
13989TIP3    H163458   3.870   4.068  15.321  0.8770  0.0603  0.0137
13989TIP3    H263459   3.938   3.959  15.241  0.4180 -0.5380  0.4274
13990TIP3   OH263460   4.590   3.837   3.278 -0.0545  0.0515  0.0593
13990TIP3    H163461   4.638   3.808   3.355 -0.1650 -2.2251 -0.6700
13990TIP3    H263462   4.554   3.922   3.303  2.4679  0.8172  1.3955
13991TIP3   OH263463   6.686   6.310  12.604  1.2701  0.0724 -0.3622
13991TIP3    H163464   6.753   6.355  12.656  0.5883  0.8275 -0.1084
13991TIP3    H263465   6.604   6.330  12.649  0.7425  0.1721 -1.3347
13992TIP3   OH263466   1.561   6.528   1.485  0.0734 -0.2854  0.4291
13992TIP3    H163467   1.519   6.614   1.487  0.8900  0.1938 -1.0383
13992TIP3    H263468   1.579   6.508   1.577 -1.6587  0.3092  0.9331
13993TIP3   OH263469   2.162   4.431  11.336 -1.0608  0.0802 -0.2404
13993TIP3    H163470   2.150   4.353  11.390 -1.7805  2.1055  2.7053
13993TIP3    H263471   2.257   4.440  11.327 -0.7184  1.1606  3.1837
13994TIP3   OH263472   5.496   6.318   5.338 -0.5327 -0.5873  0.0463
13994TIP3    H163473   5.459   6.276   5.260  1.1757  1.8501 -2.2885
13994TIP3    H263474   5.589   6.330   5.317  0.0332  0.0538  2.5540
13995TIP3   OH263475   3.087   1.976  12.670  0.1326 -0.2088  0.1729
13995TIP3    H163476   3.099   1.948  12.579  1.9638  0.6849  0.0896
13995TIP3    H263477   3.160   1.935  12.718 -2.0512 -2.5306  1.7485
13996TIP3   OH263478   3.077   1.642   6.085  0.6362 -0.7435 -0.7507
13996TIP3    H163479   3.019   1.684   6.149 -2.2020 -1.1623 -2.8637
13996TIP3    H263480   3.039   1.555   6.072  2.0755 -1.2391 -1.8790
13997TIP3   OH263481   3.188   6.272  14.492  0.0215 -0.1317  0.1019
13997TIP3    H163482   3.188   6.366  14.509  0.3147  0.2035 -1.5474
13997TIP3    H263483   3.275   6.243  14.520 -0.0561  0.0971  0.5807
13998TIP3   OH263484   5.452   2.353   4.368  0.0037  0.0570  0.8063
13998TIP3    H163485   5.481   2.275   4.321 -1.9845 -0.8459  0.9628
13998TIP3    H263486   5.373   2.325   4.415 -0.0040  1.8213  1.9418
13999TIP3   OH263487   5.630   5.418  12.881  0.2709  0.5802 -0.4928
13999TIP3    H163488   5.665   5.345  12.829  0.4920 -1.2105  1.9821
13999TIP3    H263489   5.536   5.398  12.889  0.2144  0.9228 -0.3212
14000TIP3   OH263490   0.615   5.619  13.745  0.0717  0.5431 -0.1486
14000TIP3    H163491   0.613   5.525  13.724 -0.3664  0.3603  0.6635
14000TIP3    H263492   0.652   5.623  13.833 -3.9186  0.6958  1.7664
14001TIP3   OH263493   6.172   5.318  14.411  0.4634  0.5008 -0.8120
14001TIP3    H163494   6.091   5.277  14.380 -0.5284  0.4351  1.6397
14001TIP3    H263495   6.144   5.374  14.484  2.6662  0.1409  0.3998
14002TIP3   OH263496   0.390   3.575  16.076  0.2683 -0.3019 -0.9442
14002TIP3    H163497   0.310   3.584  16.023 -0.0037 -0.8933 -0.6440
14002TIP3    H263498   0.373   3.499  16.132  1.5595 -1.2715 -1.8063
14003TIP3   OH263499   0.041   5.649   3.780  0.7024 -0.2915 -0.7049
14003TIP3    H163500   0.076   5.719   3.725  0.8947  1.0111  0.9845
14003TIP3    H263501  -0.054   5.656   3.770  0.6743  0.8348  0.1265
14004TIP3   OH263502   4.517   6.744   4.171 -0.1650 -0.1832  0.1843
14004TIP3    H163503   4.607   6.774   4.157 -0.3460  0.8051  1.0393
14004TIP3    H263504   4.467   6.825   4.183 -1.2816 -0.6871 -0.8442
14005TIP3   OH263505   5.473   1.517  13.318  0.5374  0.5333  0.4786
14005TIP3    H163506   5.477   1.422  13.326  1.0039  0.6006  1.1636
14005TIP3    H263507   5.531   1.537  13.245 -0.1580  0.2345 -0.1569
14006TIP3   OH263508   3.475   5.819  14.963  0.6078  0.3679  0.4278
14006TIP3    H163509   3.380   5.816  14.977  0.4466  0.1504 -0.5996
14006TIP3    H263510   3.500   5.727  14.952  0.3504  0.5600 -2.6708
14007TIP3   OH263511   3.921   6.493   4.907 -0.2237 -0.1193  0.0090
14007TIP3    H163512   3.901   6.583   4.930 -0.2270  0.0851 -0.7720
14007TIP3    H263513   3.961   6.498   4.820  1.6710 -0.6856  0.7945
14008TIP3   OH263514   1.929   6.471   4.065  0.6692  0.0926  0.6145
14008TIP3    H163515   1.965   6.408   4.128 -0.4342 -0.4895  0.6833
14008TIP3    H263516   1.939   6.429   3.980 -1.4316 -0.8955  0.7918
14009TIP3   OH263517   4.453   3.051   2.702 -0.1634  0.0855  0.1246
14009TIP3    H163518   4.423   2.976   2.752 -0.3365 -0.2421 -0.4640
14009TIP3    H263519   4.399   3.051   2.624  1.8166 -0.9665 -1.3453
14010TIP3   OH263520   2.566   4.550   3.454  0.1453 -0.1678  0.3295
14010TIP3    H163521   2.531   4.534   3.366 -0.5588 -2.3452  0.9294
14010TIP3    H263522   2.592   4.463   3.485  1.7714  0.7618  1.7265
14011TIP3   OH263523   0.057   0.046   1.338  0.3531 -0.3454  0.2677
14011TIP3    H163524   0.058   0.122   1.279 -0.7293 -1.0295 -0.6730
14011TIP3    H263525  -0.034   0.041   1.369  0.0626 -1.9588 -0.6813
14012TIP3   OH263526   6.657   2.413   4.301 -0.1704 -0.7632  0.4542
14012TIP3    H163527   6.664   2.410   4.396 -1.0884 -1.6453  0.5117
14012TIP3    H263528   6.619   2.499   4.282 -0.4423 -0.7777  0.9262
14013TIP3   OH263529   6.012   0.578  10.381  0.1041  0.1021 -0.0063
14013TIP3    H163530   5.971   0.661  10.357  0.0209  0.2918  0.7533
14013TIP3    H263531   6.096   0.603  10.420 -1.1889  0.1173  3.1200
14014TIP3   OH263532   1.742   0.564  15.464 -0.2933  0.0193 -0.6998
14014TIP3    H163533   1.829   0.524  15.460 -0.4722 -0.5425  0.3841
14014TIP3    H263534   1.756   0.655  15.439  0.5533 -0.1454 -0.8613
14015TIP3   OH263535   6.124   4.177  15.927 -0.2143 -0.0044  0.2695
14015TIP3    H163536   6.119   4.186  15.832  0.9163  1.3911  0.3247
14015TIP3    H263537   6.039   4.138  15.951 -1.8677  2.5657 -0.9700
14016TIP3   OH263538   0.122   3.676  11.143  0.6110  0.1837  0.7265
14016TIP3    H163539   0.078   3.760  11.152  1.3521  0.6162  0.3307
14016TIP3    H263540   0.099   3.646  11.055  1.0262  0.3654  0.5551
14017TIP3   OH263541   6.855   3.400  16.051 -0.1650 -0.0955 -0.2399
14017TIP3    H163542   6.810   3.394  16.136 -1.0373 -1.8046 -0.7888
14017TIP3    H263543   6.810   3.337  15.995  1.4499 -0.1827 -1.5161
14018TIP3   OH263544   2.835   5.669   0.581 -0.7316 -0.6904 -0.4012
14018TIP3    H163545   2.829   5.580   0.544 -0.0519 -2.2946  3.0084
14018TIP3    H263546   2.838   5.656   0.675  3.0507  2.7269  0.2333
14019TIP3   OH263547   4.152   4.781  12.427 -0.0357 -0.2225  0.8614
14019TIP3    H163548   4.206   4.857  12.403  0.0511 -0.7147 -0.5978
14019TIP3    H263549   4.063   4.809  12.406  0.2090 -1.3770 -2.3080
14020TIP3   OH263550   5.952   0.092  16.818 -0.3040 -0.3388 -0.1511
14020TIP3    H163551   5.938   0.186  16.809  0.5084 -0.0351  1.4709
14020TIP3    H263552   5.874   0.053  16.780 -1.2252  1.0272  0.2615
14021TIP3   OH263553   3.814   3.263   2.281  0.0392 -0.1730 -0.9241
14021TIP3    H163554   3.881   3.226   2.338 -0.9124  0.1780  0.4861
14021TIP3    H263555   3.748   3.194   2.273 -1.1749  0.7125  0.7550
14022TIP3   OH263556   1.110   0.358  14.398  0.0542 -0.3165  0.3245
14022TIP3    H163557   1.113   0.264  14.381 -1.2196  0.0335 -2.5203
14022TIP3    H263558   1.131   0.367  14.491  1.2117 -3.2952  0.4538
14023TIP3   OH263559   2.861   3.586   0.418 -0.7598  0.7246  0.0151
14023TIP3    H163560   2.881   3.671   0.456 -0.5698 -0.4457  2.7353
14023TIP3    H263561   2.924   3.576   0.346  0.1244  2.2712  0.5305
14024TIP3   OH263562   2.545   1.930   1.151  0.2271  0.2301 -0.1149
14024TIP3    H163563   2.607   1.953   1.083 -0.2942  0.2506 -0.5881
14024TIP3    H263564   2.584   1.853   1.193  1.3628  1.2091  0.6733
14025TIP3   OH263565   0.486   4.965   1.590  0.3467  0.4175  0.6643
14025TIP3    H163566   0.442   4.881   1.607 -1.9246  1.2246 -0.7687
14025TIP3    H263567   0.443   5.026   1.650  2.4110  0.5133  2.1299
14026TIP3   OH263568   0.420   3.619  13.356 -0.5335  0.0819 -0.3681
14026TIP3    H163569   0.460   3.635  13.271 -0.7825 -0.4787 -0.5996
14026TIP3    H263570   0.398   3.706  13.390  0.3520  0.3603 -0.4924
14027TIP3   OH263571   4.698   4.500   3.985 -0.4506 -0.1099  0.4357
14027TIP3    H163572   4.609   4.526   3.963  0.3248  1.5371 -1.0587
14027TIP3    H263573   4.701   4.501   4.080 -1.9761 -0.0353  0.5049
14028TIP3   OH263574   4.075   0.171   6.285  0.2727 -0.3081  0.2120
14028TIP3    H163575   4.143   0.104   6.278  1.1266  0.5369  0.2290
14028TIP3    H263576   4.113   0.238   6.342 -0.0099  0.8425 -0.9193
14029TIP3   OH263577   6.210   0.144  13.852 -0.3501  0.2210  0.2303
14029TIP3    H163578   6.300   0.125  13.827 -0.5219 -0.1862 -0.1021
14029TIP3    H263579   6.158   0.123  13.774 -0.5250  2.5670 -0.3540
14030TIP3   OH263580   1.336   0.925  14.565  0.1734  0.3541  0.3244
14030TIP3    H163581   1.304   0.835  14.570  1.3090 -0.0768 -0.0100
14030TIP3    H263582   1.296   0.959  14.485  0.8036 -0.2973 -0.2856
14031TIP3   OH263583   6.180   4.451  10.185  0.6823 -0.2763 -0.2610
14031TIP3    H163584   6.243   4.383  10.208  1.0283  0.3217  0.6093
14031TIP3    H263585   6.114   4.448  10.255  0.8543  0.4579 -0.0476
14032TIP3   OH263586   4.329   4.087  15.394  0.1324  0.4760  0.1453
14032TIP3    H163587   4.382   4.015  15.426  1.9329  1.3952 -0.6534
14032TIP3    H263588   4.377   4.166  15.419 -1.5474  1.4084  0.5852
14033TIP3   OH263589   6.110   4.804   0.699  0.2215 -0.1731  0.8003
14033TIP3    H163590   6.068   4.723   0.728 -1.0547  0.1944  0.0620
14033TIP3    H263591   6.189   4.774   0.654 -0.2464 -1.0401  0.5020
14034TIP3   OH263592   0.074   3.031  11.521 -0.0545  0.3976  0.0803
14034TIP3    H163593   0.125   3.111  11.537 -0.5131  0.6542  0.2709
14034TIP3    H263594  -0.013   3.051  11.554 -0.5773  0.3343 -1.1942
14035TIP3   OH263595   4.348   5.814   3.619 -0.3674  0.0856  0.3785
14035TIP3    H163596   4.331   5.851   3.533  0.9586 -0.0077  0.0463
14035TIP3    H263597   4.444   5.813   3.626 -0.3780  2.4347  2.8521
14036TIP3   OH263598   4.906   3.192  12.009  0.9148  0.0377 -0.2098
14036TIP3    H163599   4.925   3.099  12.000  0.7968 -0.0672  0.5322
14036TIP3    H263600   4.823   3.205  11.963  0.8761 -0.2417 -0.2158
14037TIP3   OH263601   2.631   0.196  15.279  0.1609  0.6499 -0.1528
14037TIP3    H163602   2.630   0.247  15.360 -2.0786 -1.1317  1.0554
14037TIP3    H263603   2.606   0.258  15.211 -2.3959  1.2584  1.2360
14038TIP3   OH263604   2.479   1.725  14.034  0.0944  0.4343  0.5015
14038TIP3    H163605   2.396   1.681  14.055 -1.4709  2.2587 -1.4296
14038TIP3    H263606   2.476   1.805  14.086  0.3311  0.8032 -0.0520
14039TIP3   OH263607   2.678   3.053   1.997 -0.8390 -0.2507  0.0540
14039TIP3    H163608   2.609   3.110   2.031  0.2497  1.8401 -1.0444
14039TIP3    H263609   2.657   3.041   1.905 -0.6847 -1.1058  0.1218
14040TIP3   OH263610   1.410   4.167   0.146  0.1259 -0.2346  0.3206
14040TIP3    H163611   1.371   4.219   0.216  1.3915 -0.3687  1.1590
14040TIP3    H263612   1.441   4.231   0.082 -0.5204 -0.0849  0.1561
14041TIP3   OH263613   4.132   2.412   2.788 -0.0839  0.1963  0.3377
14041TIP3    H163614   4.046   2.370   2.779  0.4534 -0.7593 -0.5211
14041TIP3    H263615   4.193   2.340   2.799  0.8529  0.7460 -1.0036
14042TIP3   OH263616   0.441   5.847  17.072 -1.0675  0.8068 -0.0802
14042TIP3    H163617   0.407   5.884  16.990 -0.2767 -0.7534 -1.1592
14042TIP3    H263618   0.503   5.913  17.103 -0.6832  1.0380 -1.2507
14043TIP3   OH263619   5.310   1.973  16.301 -0.3622  0.3568 -0.0049
14043TIP3    H163620   5.260   1.976  16.382  0.7880 -0.5513  0.7630
14043TIP3    H263621   5.353   1.888  16.301  0.2962  0.6504 -1.1846
14044TIP3   OH263622   2.989   4.638  13.701  0.1202  0.1610  0.1586
14044TIP3    H163623   3.041   4.704  13.747  1.0652  0.6398 -1.5028
14044TIP3    H263624   3.043   4.614  13.625 -1.5690 -0.2423 -0.9587
14045TIP3   OH263625   6.398   1.367  12.868  0.4246  0.0574 -0.3885
14045TIP3    H163626   6.327   1.379  12.805 -1.0809  1.1924  1.4200
14045TIP3    H263627   6.383   1.280  12.904  0.4924 -0.0558 -0.6276
14046TIP3   OH263628   3.236   1.115  10.863  0.0088 -0.3553  0.7287
14046TIP3    H163629   3.329   1.133  10.872 -0.1049  0.5894  0.1479
14046TIP3    H263630   3.232   1.026  10.828  0.7630  0.1691 -0.7647
14047TIP3   OH263631   3.404   0.437  15.566  0.0239  0.2061  0.0564
14047TIP3    H163632   3.427   0.527  15.544  1.5756  0.1206  1.1337
14047TIP3    H263633   3.450   0.420  15.649  2.1910 -2.4634 -1.5228
14048TIP3   OH263634   6.731   5.277   5.680 -0.1024  0.2244 -0.0115
14048TIP3    H163635   6.656   5.254   5.736 -1.1055  0.6865 -1.1170
14048TIP3    H263636   6.738   5.203   5.619 -1.2918  1.3162 -1.5215
14049TIP3   OH263637   6.689   1.685   4.664 -0.1169 -0.0181  0.2874
14049TIP3    H163638   6.767   1.679   4.609 -0.4755  1.2281 -0.3931
14049TIP3    H263639   6.621   1.719   4.606 -0.3699  1.8599  1.5930
14050TIP3   OH263640   3.143   6.842  14.039  0.8154 -0.5514 -0.1133
14050TIP3    H163641   3.093   6.889  13.973  1.4655 -0.4824 -0.5742
14050TIP3    H263642   3.148   6.902  14.113  2.4009  0.5291 -1.0165
14051TIP3   OH263643   4.345   6.483  14.315  0.2817  0.0675  0.6130
14051TIP3    H163644   4.286   6.445  14.380 -0.5439 -0.4155 -0.3968
14051TIP3    H263645   4.414   6.417  14.304 -0.2106 -0.3777  0.1471
14052TIP3   OH263646   1.150   2.260  17.087  0.0836  0.0238 -0.3432
14052TIP3    H163647   1.227   2.220  17.047 -0.6547 -2.0595  0.1862
14052TIP3    H263648   1.081   2.251  17.021 -0.6793 -1.7896  0.6260
14053TIP3   OH263649   1.739   1.468   3.269 -0.2529  0.0979 -0.0071
14053TIP3    H163650   1.811   1.515   3.311  1.1119 -1.2644 -0.7158
14053TIP3    H263651   1.732   1.386   3.318 -0.3823 -0.3655 -0.7726
14054TIP3   OH263652   6.519   5.107   2.925  0.6871  0.6515  0.2817
14054TIP3    H163653   6.427   5.092   2.948  0.8532 -0.4524  0.2482
14054TIP3    H263654   6.553   5.021   2.901  1.5072  1.1857 -0.5557
14055TIP3   OH263655   5.197   4.922   3.210  1.3434 -0.2148  0.5947
14055TIP3    H163656   5.181   4.859   3.280 -1.2296 -1.0104 -0.5953
14055TIP3    H263657   5.124   4.910   3.149  2.4700  1.7412 -1.2920
14056TIP3   OH263658   4.592   4.990  12.415 -0.7311  0.6279  0.1125
14056TIP3    H163659   4.545   5.029  12.341 -1.2812  0.9643  0.6258
14056TIP3    H263660   4.556   4.902  12.423 -0.5763  0.5447 -0.1006
14057TIP3   OH263661   3.172   5.590   1.037 -0.2419 -0.2340 -0.6348
14057TIP3    H163662   3.108   5.642   1.086 -0.0345 -0.9519  0.4143
14057TIP3    H263663   3.231   5.555   1.103 -0.2429 -1.6288 -1.3340
14058TIP3   OH263664   5.131   6.494  16.733 -0.5290 -0.4381 -0.0112
14058TIP3    H163665   5.118   6.558  16.803 -0.1688 -0.0253 -0.3171
14058TIP3    H263666   5.133   6.409  16.778 -0.5902 -0.2032  0.4416
14059TIP3   OH263667   2.585   6.401  10.969 -0.9289  0.2822 -0.1321
14059TIP3    H163668   2.559   6.488  10.999 -2.3910  0.5476 -1.9928
14059TIP3    H263669   2.657   6.417  10.908 -0.0745  0.0083  0.7737
14060TIP3   OH263670   6.369   5.971  15.972  0.1645 -0.2096  0.1727
14060TIP3    H163671   6.298   5.916  16.007  0.0303 -0.4225 -0.4233
14060TIP3    H263672   6.359   6.054  16.018  0.1294 -0.5529  0.8054
14061TIP3   OH263673   0.961   1.036  11.161  0.4268  0.0804  0.6192
14061TIP3    H163674   0.979   0.994  11.078 -1.7537 -1.1203  0.6865
14061TIP3    H263675   0.936   1.125  11.138 -0.3893 -0.3085 -0.0629
14062TIP3   OH263676   6.640   0.420  11.547  0.1970 -0.0658 -0.5756
14062TIP3    H163677   6.624   0.335  11.587  0.8223  0.4017  0.7118
14062TIP3    H263678   6.597   0.414  11.462 -1.5313 -0.9654  0.3003
14063TIP3   OH263679   6.694   5.134  15.266  0.3792 -0.8732  0.4588
14063TIP3    H163680   6.756   5.171  15.203  3.9233 -2.2620  2.8530
14063TIP3    H263681   6.710   5.181  15.347 -2.2563 -0.8721  1.0784
14064TIP3   OH263682   3.923   5.896   6.251 -0.3114  0.0141  0.3525
14064TIP3    H163683   4.013   5.875   6.227 -0.7051 -1.0580 -0.2229
14064TIP3    H263684   3.891   5.818   6.296 -1.4858 -0.3048 -0.9649
14065TIP3   OH263685   1.602   6.687  12.995 -0.0701 -0.0288 -0.1277
14065TIP3    H163686   1.619   6.595  12.971 -0.2189  0.0483 -0.5261
14065TIP3    H263687   1.654   6.737  12.933 -2.4538  0.2584 -2.0342
14066TIP3   OH263688   3.807   5.025  16.905  0.1018  0.2231 -0.6134
14066TIP3    H163689   3.821   5.039  16.999  0.9220  0.6269 -0.7814
14066TIP3    H263690   3.806   5.113  16.868  0.5939  0.0405 -1.0762
14067TIP3   OH263691   5.525   4.646  11.654  0.1883 -0.6546  0.1810
14067TIP3    H163692   5.507   4.554  11.631  0.4351 -0.1468 -2.4359
14067TIP3    H263693   5.619   4.656  11.638  0.1806  0.0230  0.5481
14068TIP3   OH263694   0.552   4.100  10.823 -0.8976  0.2745  0.2032
14068TIP3    H163695   0.513   4.033  10.767 -0.5100  0.5593 -0.4156
14068TIP3    H263696   0.481   4.128  10.880 -0.7123 -1.7698  1.5579
14069TIP3   OH263697   6.727   3.682  13.973 -0.9589 -0.0809 -0.2567
14069TIP3    H163698   6.666   3.673  14.046 -0.6269 -0.0912  0.0200
14069TIP3    H263699   6.802   3.727  14.010 -0.4045 -0.8935 -0.3675
14070TIP3   OH263700   3.127   4.930   2.153  0.3096 -0.3347 -0.2043
14070TIP3    H163701   3.190   4.903   2.086 -1.4750 -0.5981 -1.8658
14070TIP3    H263702   3.075   4.852   2.171  0.3237 -0.0832  1.0023
14071TIP3   OH263703   4.102   0.967  14.449 -0.1945 -0.6802 -0.4671
14071TIP3    H163704   4.166   0.940  14.383  0.8282 -0.1886  0.3002
14071TIP3    H263705   4.146   0.950  14.532 -1.8403 -2.2450  0.1380
14072TIP3   OH263706   5.847   2.795   4.290  0.5365 -0.4027  0.3666
14072TIP3    H163707   5.785   2.724   4.274 -1.5491  1.7410 -2.0271
14072TIP3    H263708   5.932   2.759   4.266 -0.1711 -2.5552  0.8551
14073TIP3   OH263709   2.202   4.461   5.421  0.0838  0.1247 -0.0614
14073TIP3    H163710   2.148   4.479   5.498 -1.3566 -0.5279 -0.8581
14073TIP3    H263711   2.165   4.380   5.385  1.4922 -0.2369 -0.7687
14074TIP3   OH263712   5.527   4.805  15.735 -0.6286 -0.2803  0.3484
14074TIP3    H163713   5.515   4.818  15.829  1.0748  0.2640  0.5240
14074TIP3    H263714   5.584   4.877  15.708  0.0534 -1.2305 -0.8394
14075TIP3   OH263715   4.679   5.146   5.017 -0.4113  0.3759 -0.6103
14075TIP3    H163716   4.593   5.119   5.050 -0.3675  0.9342 -0.0344
14075TIP3    H263717   4.741   5.098   5.072 -0.3269 -1.2064 -1.9890
14076TIP3   OH263718   3.906   2.685   4.315  0.5448 -0.2853 -0.7395
14076TIP3    H163719   3.813   2.696   4.298 -0.0026 -2.5676  0.3192
14076TIP3    H263720   3.946   2.678   4.228  0.1619  3.0222 -1.2930
14077TIP3   OH263721   2.215   2.375  16.142  0.0271  1.0411 -0.2629
14077TIP3    H163722   2.211   2.335  16.228  1.7048 -0.4311 -0.8030
14077TIP3    H263723   2.144   2.439  16.142 -1.6711 -0.6994  1.2786
14078TIP3   OH263724   3.929   4.010   2.433 -0.4184  0.1488 -0.2749
14078TIP3    H163725   3.966   4.044   2.514 -1.8369  0.3628  0.3280
14078TIP3    H263726   3.846   3.970   2.460 -0.8492  0.0843 -1.5969
14079TIP3   OH263727   1.244   5.956  13.148  0.6182 -0.5310  0.5682
14079TIP3    H163728   1.184   5.896  13.193 -1.1281 -0.8947 -2.0545
14079TIP3    H263729   1.203   5.973  13.064  3.7138  0.0894 -0.9623
14080TIP3   OH263730   2.876   4.662   3.041 -0.8132 -0.2218 -0.3849
14080TIP3    H163731   2.870   4.754   3.015  2.5972  0.9020  2.0292
14080TIP3    H263732   2.826   4.656   3.122  0.3559 -0.0189  0.3684
14081TIP3   OH263733   1.180   3.006   2.356  0.0605  0.4514 -0.5131
14081TIP3    H163734   1.153   2.984   2.445  0.5633 -1.8410 -0.8640
14081TIP3    H263735   1.136   3.089   2.337 -1.2585  0.2228  1.3173
14082TIP3   OH263736   2.055   0.044   4.343 -0.7063  0.3092 -0.5308
14082TIP3    H163737   2.036  -0.010   4.267  0.7800 -1.5134  0.3100
14082TIP3    H263738   2.151   0.043   4.349 -0.7952 -1.4630  2.5755
14083TIP3   OH263739   0.068   1.901  15.935 -0.2523  0.0014 -0.2662
14083TIP3    H163740  -0.007   1.877  15.881 -1.3646 -0.6921  1.4683
14083TIP3    H263741   0.144   1.870  15.887 -1.2675 -1.6999 -0.8588
14084TIP3   OH263742   0.615   3.383   5.494 -0.1520 -0.3067  0.2524
14084TIP3    H163743   0.698   3.375   5.447 -0.6685  0.2320 -0.7813
14084TIP3    H263744   0.591   3.293   5.515  0.0524 -0.5639 -0.5895
14085TIP3   OH263745   3.594   3.643   0.458  0.0563 -0.0507  0.2533
14085TIP3    H163746   3.658   3.658   0.528  0.6781 -0.0666 -0.2923
14085TIP3    H263747   3.646   3.602   0.388 -0.4912  0.2295 -0.3215
14086TIP3   OH263748   4.491   0.184   1.525 -0.1738  0.0552 -0.0385
14086TIP3    H163749   4.525   0.262   1.569  0.4550  0.3003 -0.9232
14086TIP3    H263750   4.533   0.185   1.439  0.1092 -1.4557  0.0573
14087TIP3   OH263751   1.150   5.745   2.722 -0.2930  0.1942  0.5408
14087TIP3    H163752   1.242   5.765   2.708 -0.1006 -1.6862 -1.2166
14087TIP3    H263753   1.131   5.672   2.664 -2.7915  0.2054  1.2033
14088TIP3   OH263754   3.647   0.023  16.311 -0.1750  0.0336  0.0983
14088TIP3    H163755   3.600  -0.024  16.242 -1.1988  1.9459 -0.5886
14088TIP3    H263756   3.641   0.116  16.286  1.9765  0.5607  1.2414
14089TIP3   OH263757   6.641   5.922   6.459  0.4641  0.9476  0.2793
14089TIP3    H163758   6.644   6.015   6.481 -0.0269  1.7127 -2.4531
14089TIP3    H263759   6.726   5.904   6.420 -0.5666  1.2021 -2.2592
14090TIP3   OH263760   3.498   2.562  14.399 -0.6235  0.3076  0.7640
14090TIP3    H163761   3.488   2.601  14.486  0.5834 -0.7530  1.3986
14090TIP3    H263762   3.559   2.490  14.411 -0.3842  0.1722 -0.9903
14091TIP3   OH263763   4.187   1.949  15.482 -0.3332 -0.0485 -0.0854
14091TIP3    H163764   4.165   2.025  15.535 -0.2216 -0.1186  0.0588
14091TIP3    H263765   4.102   1.909  15.462 -0.3344 -0.3898  0.5788
14092TIP3   OH263766   5.497   0.556   4.791 -0.0250 -0.2242 -0.0921
14092TIP3    H163767   5.567   0.513   4.741  0.8258 -0.0035  0.8734
14092TIP3    H263768   5.542   0.596   4.866 -1.3238 -1.0126  1.1580
14093TIP3   OH263769   4.843   3.689   2.807  0.3567 -0.4838 -0.1025
14093TIP3    H163770   4.825   3.595   2.811  1.8366 -0.7527  0.6638
14093TIP3    H263771   4.791   3.726   2.878  0.0987 -0.7608 -0.1411
14094TIP3   OH263772   1.483   6.800   1.436  0.3452  0.0039 -0.8204
14094TIP3    H163773   1.527   6.878   1.471 -1.7122  0.3170  1.3500
14094TIP3    H263774   1.434   6.831   1.360 -1.0973  1.1175  0.4891
14095TIP3   OH263775   4.994   4.867  13.628  0.3612  0.1012  0.8196
14095TIP3    H163776   4.925   4.832  13.572  0.5795 -0.6045  0.9748
14095TIP3    H263777   5.066   4.885  13.568  0.1338  0.5967  0.6928
14096TIP3   OH263778   5.164   4.683  15.475  0.6066 -0.0048 -0.6410
14096TIP3    H163779   5.076   4.701  15.506 -0.3595  0.0770 -3.2604
14096TIP3    H263780   5.217   4.754  15.511 -0.3934  0.0579  0.7950
14097TIP3   OH263781   1.489   1.832  11.065 -0.7671  0.6814 -0.4749
14097TIP3    H163782   1.531   1.885  10.998 -0.2760  0.9706  0.0561
14097TIP3    H263783   1.400   1.867  11.072 -0.7927  0.7001 -0.9160
14098TIP3   OH263784   6.493   1.764   0.701  0.6441  0.1335  0.3024
14098TIP3    H163785   6.460   1.766   0.611  2.0522 -0.8594 -0.2555
14098TIP3    H263786   6.415   1.744   0.754 -0.2628  1.0415 -0.6297
14099TIP3   OH263787   5.424   0.164  14.561 -0.3793  0.4449 -0.1713
14099TIP3    H163788   5.474   0.156  14.480 -2.6276 -1.4189 -1.4642
14099TIP3    H263789   5.341   0.203  14.535 -1.0062  0.1811  1.3229
14100TIP3   OH263790   1.557   0.357  15.459  0.2648 -0.7888  0.1523
14100TIP3    H163791   1.619   0.429  15.464  0.7500 -1.3031  2.7127
14100TIP3    H263792   1.584   0.307  15.381  0.9619  0.7979 -0.6724
14101TIP3   OH263793   0.891   1.251  14.900  0.2579 -0.0778  0.1738
14101TIP3    H163794   0.802   1.282  14.881  0.1616 -0.9188 -0.8459
14101TIP3    H263795   0.887   1.220  14.990 -1.6049 -3.7442 -1.0016
14102TIP3   OH263796   0.547   4.462  10.878 -0.2872  0.8153  0.4627
14102TIP3    H163797   0.603   4.399  10.923 -1.0712 -0.7541 -0.6399
14102TIP3    H263798   0.604   4.502  10.813 -0.6112 -1.7266 -1.5641
14103TIP3   OH263799   4.608   0.393   5.780  0.1836  0.1031 -0.3156
14103TIP3    H163800   4.541   0.359   5.840 -0.9990  1.5451 -0.7638
14103TIP3    H263801   4.578   0.366   5.693 -0.5444  1.8478 -0.6360
14104TIP3   OH263802   4.514   5.300   4.640 -0.2680 -0.0881 -0.0456
14104TIP3    H163803   4.441   5.307   4.578  1.0395 -2.0841 -1.9609
14104TIP3    H263804   4.472   5.296   4.726 -2.4076 -0.9175 -1.0535
14105TIP3   OH263805   0.022   4.278   1.212  0.4970 -0.7462 -0.9129
14105TIP3    H163806   0.085   4.329   1.161 -0.6734  1.0963 -0.6106
14105TIP3    H263807   0.034   4.188   1.182  1.0720  0.0142 -3.1389
14106TIP3   OH263808   3.723   5.294  14.835  0.4104 -0.0354  0.1459
14106TIP3    H163809   3.661   5.243  14.782 -1.6014  1.5003  0.8739
14106TIP3    H263810   3.780   5.229  14.875  0.2200 -1.4255 -1.7083
14107TIP3   OH263811   0.940   6.270   5.571 -0.1154  0.3302  0.5978
14107TIP3    H163812   0.989   6.303   5.646 -1.7125  0.9567  1.4123
14107TIP3    H263813   0.954   6.335   5.503  1.2669 -0.1924  0.3477
14108TIP3   OH263814   4.474   6.476   1.064  0.5681 -0.4095  0.1565
14108TIP3    H163815   4.527   6.475   0.984 -0.2816  0.1387 -0.4253
14108TIP3    H263816   4.503   6.399   1.112  1.5899 -0.3635 -0.3482
14109TIP3   OH263817   0.519   5.261  11.193  0.2305  0.1805  0.3755
14109TIP3    H163818   0.503   5.283  11.285 -0.4042 -0.0055  0.3118
14109TIP3    H263819   0.434   5.271  11.151 -0.0481 -2.1182  0.2841
14110TIP3   OH263820   2.665   0.161  16.513 -0.5610  0.1439  0.2257
14110TIP3    H163821   2.634   0.103  16.582 -0.3416 -0.0349  0.1771
14110TIP3    H263822   2.749   0.194  16.545 -0.9438  0.8827  0.5030
14111TIP3   OH263823   4.390   6.454  13.606  0.2190 -0.3049 -0.3410
14111TIP3    H163824   4.387   6.520  13.537 -1.2189 -0.3837 -0.3972
14111TIP3    H263825   4.374   6.503  13.686  0.7844 -0.3695 -0.1839
14112TIP3   OH263826   6.020   6.074   5.237 -0.4134  0.1831 -0.3257
14112TIP3    H163827   6.094   6.134   5.243  2.1649 -2.7592 -0.0807
14112TIP3    H263828   6.007   6.043   5.327 -0.9018 -0.4825 -0.6144
14113TIP3   OH263829   3.457   0.750   3.003  0.4010 -0.2842 -0.2518
14113TIP3    H163830   3.517   0.806   3.052  0.3889 -0.4386 -0.0569
14113TIP3    H263831   3.374   0.756   3.051 -0.3373  1.5289 -1.6578
14114TIP3   OH263832   4.824   1.431   5.024  0.0059 -0.5309  0.0996
14114TIP3    H163833   4.829   1.372   5.100  1.7634 -0.2950  0.2060
14114TIP3    H263834   4.911   1.427   4.985 -0.5845  0.1262 -1.3345
14115TIP3   OH263835   1.751   0.374  12.010 -0.9752  0.0306 -0.2111
14115TIP3    H163836   1.760   0.465  12.038 -1.8422 -0.2585  1.0816
14115TIP3    H263837   1.660   0.352  12.028 -0.3949 -1.5575  1.0133
14116TIP3   OH263838   2.386   6.819   1.281 -0.5471  0.1519 -0.3644
14116TIP3    H163839   2.363   6.912   1.277 -0.5313  0.1718  0.0045
14116TIP3    H263840   2.306   6.776   1.313 -0.9381 -0.1073 -1.6031
14117TIP3   OH263841   5.591   4.859   3.364 -0.1431  0.7452  0.0224
14117TIP3    H163842   5.530   4.791   3.335  1.5225 -1.2998  1.0668
14117TIP3    H263843   5.564   4.937   3.316 -0.9311 -1.0839 -2.7668
14118TIP3   OH263844   1.897   0.216  15.922 -0.4233  0.5447 -0.0032
14118TIP3    H163845   1.802   0.213  15.914 -0.4101 -0.8601  0.0352
14118TIP3    H263846   1.915   0.172  16.005  0.2310  1.5034  0.3819
14119TIP3   OH263847   2.568   1.227  16.698  0.3131 -0.6589  0.5232
14119TIP3    H163848   2.627   1.177  16.755  1.9155  0.1769 -0.2993
14119TIP3    H263849   2.502   1.164  16.670  1.3720 -1.9200  0.7494
14120TIP3   OH263850   6.802   1.731  11.975 -0.1172  0.1659 -0.3664
14120TIP3    H163851   6.790   1.825  11.980  2.4835  0.5199  0.5107
14120TIP3    H263852   6.775   1.699  12.062 -1.4954 -0.0039 -0.8355
14121TIP3   OH263853   2.117   3.047  10.627  0.4275 -0.3775 -0.2472
14121TIP3    H163854   2.112   3.130  10.580 -1.9613 -0.4044 -0.1692
14121TIP3    H263855   2.192   3.056  10.685  0.3655  1.6286 -0.4134
14122TIP3   OH263856   5.261   5.063  16.986  0.2247 -0.8605  0.0841
14122TIP3    H163857   5.225   4.979  17.015  2.7853 -1.2504  2.6429
14122TIP3    H263858   5.253   5.120  17.062  3.1106 -0.4579  0.2077
14123TIP3   OH263859   1.209   0.883   2.652 -0.0606 -0.7760 -0.0873
14123TIP3    H163860   1.141   0.947   2.673  0.1585 -1.1575  1.9949
14123TIP3    H263861   1.261   0.877   2.732  1.1694 -2.0423 -0.9460
14124TIP3   OH263862   4.455   3.897   5.032  0.0491 -0.1746 -0.3241
14124TIP3    H163863   4.466   3.841   5.109  0.9182  1.7666  1.0327
14124TIP3    H263864   4.367   3.934   5.042  0.4738  0.7128  0.1948
14125TIP3   OH263865   2.633   5.924   2.004 -0.3152  0.6869  0.3874
14125TIP3    H163866   2.562   5.936   2.067 -0.0382 -1.6963  1.2325
14125TIP3    H263867   2.711   5.914   2.058  1.0592  4.5888 -0.5378
14126TIP3   OH263868   0.285   1.311   2.270 -0.0670  0.1927 -0.4763
14126TIP3    H163869   0.346   1.377   2.239 -0.8537  0.6323 -1.1238
14126TIP3    H263870   0.334   1.229   2.267 -0.1712  0.1478 -3.1878
14127TIP3   OH263871   6.228   2.829   5.028  0.3981 -0.9503 -0.3917
14127TIP3    H163872   6.247   2.760   4.964  2.3723 -1.3130  0.4858
14127TIP3    H263873   6.192   2.901   4.976 -0.7932 -2.2648 -1.4645
14128TIP3   OH263874   6.276   5.632   0.728 -0.2897  0.2884  0.4106
14128TIP3    H163875   6.330   5.710   0.718 -1.4607  1.1264  0.3964
14128TIP3    H263876   6.316   5.584   0.801  0.2952  1.0378  0.5935
14129TIP3   OH263877   3.555   3.522  12.907  0.0845  0.2030  0.5882
14129TIP3    H163878   3.627   3.564  12.860 -0.3688  1.4262  0.9523
14129TIP3    H263879   3.597   3.480  12.983  0.5305  0.1013  0.2863
14130TIP3   OH263880   1.070   3.469   5.286 -0.3820 -0.0951 -0.1153
14130TIP3    H163881   1.153   3.478   5.239 -0.1109  2.4116  0.7067
14130TIP3    H263882   1.090   3.498   5.375 -1.3841 -2.6652  1.0456
14131TIP3   OH263883   0.419   6.252   0.218  0.3785  0.3985 -0.0957
14131TIP3    H163884   0.473   6.222   0.291  0.4938 -2.5421 -1.2501
14131TIP3    H263885   0.329   6.236   0.247  0.3842  0.0155 -0.2937
14132TIP3   OH263886   0.568   6.850  16.192 -0.3473 -0.5986  0.6093
14132TIP3    H163887   0.488   6.831  16.242  0.8366 -1.6235  2.2289
14132TIP3    H263888   0.607   6.925  16.237  0.3165 -1.0078  0.7289
14133TIP3   OH263889   3.951   0.472   4.705  0.5835 -0.0193 -0.1173
14133TIP3    H163890   4.014   0.465   4.777 -0.0748 -0.1791  0.4558
14133TIP3    H263891   3.872   0.506   4.745  0.1504 -0.2649 -0.7380
14134TIP3   OH263892   2.600   4.566  11.840 -0.1594  0.2083  0.0682
14134TIP3    H163893   2.657   4.602  11.772  0.7552 -0.6500  0.3594
14134TIP3    H263894   2.517   4.549  11.795 -0.8758  3.1576  0.0369
14135TIP3   OH263895   3.909   6.556   5.866 -0.3032  0.3350 -0.2568
14135TIP3    H163896   3.979   6.577   5.805  0.8672  0.9185  1.2160
14135TIP3    H263897   3.911   6.626   5.931 -0.3701 -1.0989  1.3895
14136TIP3   OH263898   1.664   3.324   0.100  0.4716  0.2557 -0.2073
14136TIP3    H163899   1.631   3.366   0.179  0.3719 -1.2496  0.5984
14136TIP3    H263900   1.725   3.387   0.062 -1.1453  1.9093 -0.1627
14137TIP3   OH263901   6.669   1.878  15.023 -0.0937  0.6041  0.4404
14137TIP3    H163902   6.710   1.793  15.031  2.7973  1.7272 -1.0764
14137TIP3    H263903   6.690   1.908  14.934 -1.3058  2.7672  0.7823
14138TIP3   OH263904   5.932   3.675   6.055 -0.1596 -0.0628 -0.1132
14138TIP3    H163905   5.915   3.594   6.008  0.6285  0.5847 -1.5761
14138TIP3    H263906   5.855   3.729   6.039 -0.8319 -0.5966  1.1294
14139TIP3   OH263907   3.216   2.560   1.184 -0.6736 -0.1335 -0.1084
14139TIP3    H163908   3.231   2.654   1.184 -2.9233  0.2972 -1.7201
14139TIP3    H263909   3.121   2.551   1.175 -0.4340 -2.5523 -0.8440
14140TIP3   OH263910   6.629   5.939   0.118 -0.0853 -0.0109 -0.9008
14140TIP3    H163911   6.659   6.017   0.072 -0.9064  0.2362 -1.0311
14140TIP3    H263912   6.540   5.960   0.146 -0.5655 -1.1430 -1.5112
14141TIP3   OH263913   5.096   4.781   2.181  0.1692  0.6273 -0.2054
14141TIP3    H163914   5.015   4.797   2.134  1.5277  1.9769 -2.2745
14141TIP3    H263915   5.128   4.868   2.204  1.7030  0.2289 -0.6980
14142TIP3   OH263916   2.063   0.565  12.861  0.3133 -0.1938 -0.0748
14142TIP3    H163917   2.027   0.483  12.828  0.0658 -1.3663  2.7939
14142TIP3    H263918   2.040   0.566  12.954  2.1470  2.1163  0.4622
14143TIP3   OH263919   6.598   1.556  15.309 -0.4665  0.3773  0.2991
14143TIP3    H163920   6.635   1.618  15.373 -1.2193  1.1836 -0.0242
14143TIP3    H263921   6.523   1.602  15.272 -1.4357 -0.9857  0.4908
14144TIP3   OH263922   6.631   2.063  15.652 -0.4951  0.0705  0.5789
14144TIP3    H163923   6.666   2.142  15.693 -0.7784  0.4814  0.0506
14144TIP3    H263924   6.658   2.070  15.560 -0.8620 -0.2503  0.4430
14145TIP3   OH263925   3.817   1.143   0.216  0.0630  0.3604  0.8685
14145TIP3    H163926   3.830   1.093   0.135  1.2102 -0.9847  1.8336
14145TIP3    H263927   3.791   1.078   0.280 -0.2888  1.3244  1.7225
14146TIP3   OH263928   5.316   3.599  15.184 -0.2368  0.1886  0.3156
14146TIP3    H163929   5.377   3.601  15.258 -1.3695  0.3452  1.2683
14146TIP3    H263930   5.365   3.556  15.113  1.5426  1.7717  0.5275
14147TIP3   OH263931   1.570   6.116  10.805 -0.1904 -0.1403  0.9214
14147TIP3    H163932   1.661   6.117  10.778  0.4480 -0.7165  2.8693
14147TIP3    H263933   1.538   6.204  10.786  0.7251  0.0134  0.0792
14148TIP3   OH263934   6.656   0.513  12.762  0.4675 -0.6259 -0.2562
14148TIP3    H163935   6.744   0.476  12.759  1.2769  1.2249 -0.7539
14148TIP3    H263936   6.614   0.481  12.682  0.5483 -1.7673  0.1368
14149TIP3   OH263937   1.234   5.851  17.007  0.2123  0.6753  0.3257
14149TIP3    H163938   1.317   5.852  17.056  0.7371  0.1859 -0.5267
14149TIP3    H263939   1.175   5.800  17.063 -0.2957  3.0496  2.1047
14150TIP3   OH263940   2.681   2.790  15.598 -0.4197  0.0490 -0.3051
14150TIP3    H163941   2.604   2.741  15.571 -1.3470  1.3043 -0.0212
14150TIP3    H263942   2.678   2.787  15.694 -1.0926  1.5256 -0.2570
14151TIP3   OH263943   0.581   4.081  13.032  0.0445 -0.3700  0.0870
14151TIP3    H163944   0.594   4.137  12.956  2.5479  0.7865  1.2446
14151TIP3    H263945   0.638   4.006  13.016  2.6187  1.0653  1.8061
14152TIP3   OH263946   5.158   5.859   1.821 -0.7890  0.5650  0.2871
14152TIP3    H163947   5.170   5.874   1.915 -0.7167  1.7659  0.0942
14152TIP3    H263948   5.205   5.930   1.778  1.5354 -1.4650 -0.7741
14153TIP3   OH263949   3.624   3.640  14.428  0.2416  0.4489  0.3191
14153TIP3    H163950   3.640   3.548  14.405  0.0537  0.6687 -0.7396
14153TIP3    H263951   3.629   3.642  14.523 -2.4812 -1.2077  0.5891
14154TIP3   OH263952   1.323   3.158   4.747 -0.1930  0.0510 -0.2419
14154TIP3    H163953   1.259   3.196   4.687  0.1245  2.1269  0.6831
14154TIP3    H263954   1.360   3.232   4.794 -1.1928 -1.4927  3.3434
14155TIP3   OH263955   1.444   6.540   5.392  0.1744 -0.5206 -0.0799
14155TIP3    H163956   1.470   6.482   5.464 -1.6320 -1.1363  0.1182
14155TIP3    H263957   1.399   6.482   5.331 -0.9960  0.5313 -0.2438
14156TIP3   OH263958   0.723   0.565   1.549  0.5032 -0.2792 -0.0182
14156TIP3    H163959   0.760   0.590   1.464  0.8262 -1.3395 -0.2077
14156TIP3    H263960   0.657   0.632   1.567 -0.9185 -1.0179 -2.0066
14157TIP3   OH263961   2.934   1.439   2.244 -0.2466 -0.1252  0.9104
14157TIP3    H163962   3.010   1.448   2.301 -0.7557  1.5701  1.3874
14157TIP3    H263963   2.926   1.524   2.201 -1.1384 -0.6847 -0.0863
14158TIP3   OH263964   5.582   1.597   0.835 -0.9085 -0.0007  0.0342
14158TIP3    H163965   5.553   1.630   0.750 -1.3487 -1.6489 -0.4911
14158TIP3    H263966   5.546   1.509   0.840 -0.9550  0.0901  1.9845
14159TIP3   OH263967   5.885   1.313   1.091  0.0522 -0.4458 -0.1931
14159TIP3    H163968   5.836   1.395   1.080 -1.1875 -0.7993  2.0249
14159TIP3    H263969   5.961   1.338   1.144  1.5926 -0.1634 -2.4253
14160TIP3   OH263970   3.987   2.629   2.138  0.3375  0.5653  0.3707
14160TIP3    H163971   3.980   2.679   2.220  1.2163  0.6368  0.4096
14160TIP3    H263972   3.961   2.540   2.162  0.1839  0.6801  0.6334
14161TIP3   OH263973   4.074   1.170  16.154  0.2489 -0.3523  0.9391
14161TIP3    H163974   4.057   1.144  16.245 -2.2170 -3.4006 -0.2152
14161TIP3    H263975   4.143   1.109  16.125  0.7758  0.3819  0.6331
14162TIP3   OH263976   4.870   2.839   0.669  0.5839  0.5166  0.8067
14162TIP3    H163977   4.933   2.877   0.730 -0.1332  0.8751  1.3307
14162TIP3    H263978   4.870   2.898   0.594  1.0298  0.3928  0.7041
14163TIP3   OH263979   1.109   4.386   4.171  1.0308  0.0686  0.3216
14163TIP3    H163980   1.081   4.381   4.079  0.1788 -0.3253  0.5885
14163TIP3    H263981   1.191   4.338   4.174  1.7991  1.2808 -0.4999
14164TIP3   OH263982   6.228   5.931  14.590  0.0428  0.4460 -0.4712
14164TIP3    H163983   6.195   6.020  14.607 -2.7491 -0.7308  0.9252
14164TIP3    H263984   6.281   5.910  14.667 -0.8102  0.3007  0.1000
14165TIP3   OH263985   5.669   4.405  11.006  0.2390 -0.3837  0.4155
14165TIP3    H163986   5.665   4.458  11.085 -0.7162  0.6953 -0.3183
14165TIP3    H263987   5.671   4.315  11.037 -2.6609 -0.1213  1.6953
14166TIP3   OH263988   2.017   5.625  15.555  0.4544  0.7238  0.2533
14166TIP3    H163989   1.992   5.626  15.463  2.9444 -1.8673 -0.6002
14166TIP3    H263990   2.027   5.717  15.579 -3.2680  1.6422 -1.0337
14167TIP3   OH263991   3.286   4.576  13.228  0.6093 -0.5653  0.0037
14167TIP3    H163992   3.300   4.635  13.154 -0.4719  3.7512  2.8637
14167TIP3    H263993   3.368   4.581  13.278 -0.2629  0.3705  1.3949
14168TIP3   OH263994   4.585   0.659   1.030  0.5793  0.1898  0.1142
14168TIP3    H163995   4.595   0.578   1.080 -1.1854 -0.8024 -0.9959
14168TIP3    H263996   4.667   0.669   0.983  1.0589 -0.5996  0.7674
14169TIP3   OH263997   2.723   2.029  11.218 -0.1761 -0.4955  0.4802
14169TIP3    H163998   2.683   2.035  11.305  2.7884  0.9700  1.9323
14169TIP3    H263999   2.665   2.080  11.162 -1.1728  0.2115  2.0584
14170TIP3   OH264000   6.714   3.672  12.599 -0.0289 -0.4577 -0.3301
14170TIP3    H164001   6.693   3.757  12.562 -1.0707 -0.7301 -0.4044
14170TIP3    H264002   6.798   3.684  12.644  1.6766 -0.2459 -3.2840
14171TIP3   OH264003   1.190   4.299   5.252  0.2149  0.0151  0.6891
14171TIP3    H164004   1.227   4.304   5.340 -1.0037  1.8170  1.1569
14171TIP3    H264005   1.110   4.351   5.257 -1.5144 -2.2999 -0.7119
14172TIP3   OH264006   6.748   0.620   0.052  0.2784 -0.5792 -0.3595
14172TIP3    H164007   6.792   0.672   0.120  0.7147  0.0396 -1.1008
14172TIP3    H264008   6.721   0.684  -0.014  0.1148 -1.1994 -0.9099
14173TIP3   OH264009   6.390   0.837  11.297 -0.7280 -0.0886  0.0502
14173TIP3    H164010   6.383   0.858  11.390 -2.4248 -2.1817  0.4778
14173TIP3    H264011   6.455   0.767  11.293  0.7005  1.2105 -0.6334
14174TIP3   OH264012   0.418   1.091   2.288 -0.0549  0.0189  0.3518
14174TIP3    H164013   0.499   1.107   2.239  0.6605  0.6365  1.6621
14174TIP3    H264014   0.385   1.008   2.254  2.5147 -1.6018  1.5259
14175TIP3   OH264015   5.472   1.183  10.382 -0.6979 -0.5846  0.0891
14175TIP3    H164016   5.415   1.154  10.453  0.8681  0.6070  1.9311
14175TIP3    H264017   5.411   1.207  10.311 -2.3881 -0.7840  1.4036
14176TIP3   OH264018   4.342   3.896   2.370 -0.0065  0.0744  0.2966
14176TIP3    H164019   4.379   3.943   2.295  0.8000 -0.0386  0.6176
14176TIP3    H264020   4.263   3.854   2.335  1.2416 -1.3867 -0.9641
14177TIP3   OH264021   5.949   4.441  16.589  0.1859  0.9575  0.4423
14177TIP3    H164022   5.861   4.479  16.589 -0.2113  0.0857 -0.9258
14177TIP3    H264023   5.934   4.347  16.591  1.0806  0.7922 -0.1731
14178TIP3   OH264024   5.794   1.332   3.597 -0.5327  0.2517  0.3905
14178TIP3    H164025   5.777   1.238   3.589 -2.8200  0.6429 -0.0663
14178TIP3    H264026   5.839   1.341   3.681  3.2694 -1.5773 -1.2107
14179TIP3   OH264027   4.090   4.423  15.236 -0.1900  0.0678  0.6413
14179TIP3    H164028   4.144   4.499  15.256  1.3887 -1.5226  2.8678
14179TIP3    H264029   4.151   4.356  15.206 -1.0889 -1.3017  1.7435
14180TIP3   OH264030   5.068   6.218   2.222 -0.5737  0.3662  0.2209
14180TIP3    H164031   5.111   6.303   2.222 -1.1613  0.6749  0.4393
14180TIP3    H264032   4.979   6.237   2.252 -0.6396 -0.3628  0.5052
14181TIP3   OH264033   5.214   5.155  12.372 -0.3980  0.7298  0.1150
14181TIP3    H164034   5.306   5.153  12.400  0.1124 -1.3560 -1.4909
14181TIP3    H264035   5.216   5.132  12.280 -2.7107 -2.1299  0.6347
14182TIP3   OH264036   0.711   1.149  15.305  0.0780  0.2765 -0.0411
14182TIP3    H164037   0.756   1.090  15.365 -1.7014 -1.1284 -0.0033
14182TIP3    H264038   0.676   1.218  15.362  0.3371  0.2065  0.2072
14183TIP3   OH264039   4.980   6.391  13.668  0.3164  0.8161  0.1851
14183TIP3    H164040   5.023   6.381  13.583 -0.1627  1.3768 -0.1234
14183TIP3    H264041   4.915   6.321  13.669 -0.5776  1.6102 -0.4739
14184TIP3   OH264042   2.318   2.566  14.268  0.4402  0.1259 -0.1633
14184TIP3    H164043   2.342   2.475  14.250  0.3691  0.4668 -2.2336
14184TIP3    H264044   2.236   2.560  14.317  0.6195 -0.9245  0.0318
14185TIP3   OH264045   4.466   2.126  14.386  0.0417  0.1110  0.2723
14185TIP3    H164046   4.489   2.212  14.421 -2.3262  0.3749  1.4231
14185TIP3    H264047   4.414   2.145  14.308 -2.2471 -0.0870  1.6439
14186TIP3   OH264048   5.939   1.460  16.867 -0.2033  0.0931 -0.2643
14186TIP3    H164049   5.859   1.504  16.838 -0.6316  1.7682  2.9799
14186TIP3    H264050   5.911   1.371  16.890 -0.8078  0.2384 -0.4332
14187TIP3   OH264051   4.059   1.170   1.765 -0.2285 -0.0111  0.0629
14187TIP3    H164052   4.140   1.119   1.768 -1.5534 -2.2952 -0.3135
14187TIP3    H264053   3.990   1.106   1.784 -2.0666  1.5264 -1.0744
14188TIP3   OH264054   1.108   3.855   0.829 -0.1879  0.1512 -0.0561
14188TIP3    H164055   1.130   3.943   0.797 -0.1862  1.2423  2.6496
14188TIP3    H264056   1.014   3.846   0.810 -0.1907  0.7400 -0.3505
14189TIP3   OH264057   5.632   1.042  13.555 -0.2531  0.7556 -0.1994
14189TIP3    H164058   5.559   0.983  13.535 -0.0036 -0.2888  1.7328
14189TIP3    H264059   5.668   1.009  13.637  0.5204  3.0436  0.4666
14190TIP3   OH264060   4.129   6.566  10.350  0.0113 -0.7451  0.4837
14190TIP3    H164061   4.086   6.481  10.339 -1.5856  0.0963 -0.1587
14190TIP3    H264062   4.073   6.627  10.302  1.4167  0.5911  0.4824
14191TIP3   OH264063   3.090   4.361   4.803  0.2528 -0.8832  0.5342
14191TIP3    H164064   3.058   4.435   4.751  0.0754 -1.0186  0.4486
14191TIP3    H264065   3.011   4.313   4.827  0.2981 -0.5758  1.3110
14192TIP3   OH264066   3.711   3.538  15.306 -0.1253 -0.8658  0.6902
14192TIP3    H164067   3.733   3.619  15.260 -0.8262 -0.6659  0.6947
14192TIP3    H264068   3.617   3.527  15.291 -0.2729 -1.0407  1.6921
14193TIP3   OH264069   5.968   5.447   2.648  0.3343  0.3397  0.0762
14193TIP3    H164070   5.981   5.414   2.559  1.4646  0.5734  0.1426
14193TIP3    H264071   5.930   5.373   2.696 -0.5504  0.3026 -0.6596
14194TIP3   OH264072   6.122   6.211  14.693  0.1763  0.0664 -0.3078
14194TIP3    H164073   6.125   6.302  14.721  0.3453  0.4842 -1.6180
14194TIP3    H264074   6.089   6.163  14.769  0.4951  1.1555  0.5331
14195TIP3   OH264075   0.772   3.387   4.324  0.0835 -0.1892  0.0313
14195TIP3    H164076   0.821   3.403   4.244 -0.5103 -1.2461 -0.5563
14195TIP3    H264077   0.819   3.437   4.391  1.3160 -0.3003 -0.7250
14196TIP3   OH264078   6.073   5.428  15.863 -0.2459 -0.1360 -0.1463
14196TIP3    H164079   6.046   5.338  15.879  0.8736 -0.7127 -1.3147
14196TIP3    H264080   6.063   5.440  15.768  0.6464  0.6083 -0.1574
14197TIP3   OH264081   1.143   6.774   1.573 -0.5377  0.6396  0.0154
14197TIP3    H164082   1.068   6.831   1.554 -0.6333  0.3596 -0.4734
14197TIP3    H264083   1.186   6.763   1.488 -0.0566  0.6316  0.2548
14198TIP3   OH264084   1.703   0.640  13.104  0.2633  0.3267 -0.3145
14198TIP3    H164085   1.610   0.641  13.080 -0.3053  1.8251  1.7348
14198TIP3    H264086   1.727   0.732  13.109  1.5415 -0.0309  0.3925
14199TIP3   OH264087   3.402   6.440  16.752 -0.3952  0.2460  0.4807
14199TIP3    H164088   3.466   6.443  16.680 -0.1946  0.4351  0.6652
14199TIP3    H264089   3.335   6.379  16.721  0.3855 -0.7437  0.6979
14200TIP3   OH264090   6.379   4.600   5.476 -0.2705 -0.4521 -0.3694
14200TIP3    H164091   6.385   4.673   5.414 -1.0770  0.2356  0.3335
14200TIP3    H264092   6.322   4.632   5.546  1.8498 -0.6050  1.5593
14201TIP3   OH264093   0.352   2.228  15.480 -0.3268  0.1428  0.3630
14201TIP3    H164094   0.422   2.163  15.466 -1.1907 -0.6768 -0.2615
14201TIP3    H264095   0.371   2.265  15.567 -0.6476 -2.0296  1.4332
14202TIP3   OH264096   1.886   4.172   4.708 -0.2324  0.0627  0.1557
14202TIP3    H164097   1.809   4.229   4.719 -0.3111  0.0392 -0.2634
14202TIP3    H264098   1.920   4.195   4.621 -1.5096 -2.0230 -0.9848
14203TIP3   OH264099   1.769   0.744   0.166  0.1143  0.0953 -0.6611
14203TIP3    H164100   1.802   0.657   0.185  1.8123  0.4275 -1.8467
14203TIP3    H264101   1.690   0.729   0.113  0.2374 -0.7272 -0.6251
14204TIP3   OH264102   4.265   2.447   6.648  0.4760 -0.0959 -0.4340
14204TIP3    H164103   4.192   2.474   6.705  0.7513  0.6373 -0.4230
14204TIP3    H264104   4.300   2.528   6.613 -0.1199 -0.5691 -2.2250
14205TIP3   OH264105   5.938   5.443   3.128  0.2117  0.1818  0.5326
14205TIP3    H164106   5.999   5.484   3.066  0.1787 -2.2353 -1.2468
14205TIP3    H264107   5.881   5.389   3.074 -0.5727 -1.1891  2.5926
14206TIP3   OH264108   4.555   6.690   4.558  0.8893  0.2871  0.4081
14206TIP3    H164109   4.581   6.747   4.631  0.7052 -1.9575  2.3134
14206TIP3    H264110   4.637   6.653   4.526  0.7166 -2.6111  2.8930
14207TIP3   OH264111   2.986   2.150   5.523  0.0977  0.2407 -0.2027
14207TIP3    H164112   3.042   2.200   5.583 -1.6142  1.7506  0.2248
14207TIP3    H264113   3.045   2.086   5.483  1.4975 -0.2445  2.4118
14208TIP3   OH264114   4.135   2.169   2.206  0.0719  0.2774 -0.5903
14208TIP3    H164115   4.223   2.132   2.203  0.0534  0.2258 -0.4879
14208TIP3    H264116   4.077   2.095   2.190  0.0430  0.2930 -0.5566
14209TIP3   OH264117   6.849   0.647   4.528 -0.3041 -0.0669  0.2457
14209TIP3    H164118   6.849   0.732   4.484  0.4723 -0.4818 -0.6053
14209TIP3    H264119   6.761   0.638   4.563 -0.4070  1.0685  0.3091
14210TIP3   OH264120   2.078   1.859   3.590 -0.3209  0.1786  0.3107
14210TIP3    H164121   2.025   1.789   3.629 -0.0035 -0.6094 -0.6466
14210TIP3    H264122   2.149   1.873   3.653  0.0357 -0.8889  0.1656
14211TIP3   OH264123   5.144   0.313   0.717 -0.3862 -0.0228 -0.5987
14211TIP3    H164124   5.119   0.354   0.635 -0.2833  0.2221 -0.5060
14211TIP3    H264125   5.131   0.219   0.701  1.0983 -0.1154 -1.4007
14212TIP3   OH264126   1.203   3.731  15.585  0.0209 -0.2712  0.1586
14212TIP3    H164127   1.166   3.808  15.542 -1.3189 -0.8991  0.1070
14212TIP3    H264128   1.290   3.757  15.612  0.2696  0.6859 -1.4491
14213TIP3   OH264129   3.387   1.296   4.539  0.3932  0.5535 -0.7812
14213TIP3    H164130   3.368   1.310   4.446 -2.3152 -0.0431 -0.4190
14213TIP3    H264131   3.375   1.202   4.552 -0.0293  0.7379  0.2991
14214TIP3   OH264132   2.122   0.417  17.069  0.2636  0.0771  0.2724
14214TIP3    H164133   2.190   0.377  17.123  1.3692  1.6885  0.1399
14214TIP3    H264134   2.047   0.427  17.128 -0.5303 -3.2236  0.0001
14215TIP3   OH264135   4.606   3.981   0.754  0.4038  0.5309 -0.5676
14215TIP3    H164136   4.653   3.937   0.825  1.0945  0.8813 -0.8031
14215TIP3    H264137   4.649   3.951   0.674 -1.1526 -0.8298 -0.9502
14216TIP3   OH264138   0.960   0.408   4.947  0.5695  0.2574 -0.3512
14216TIP3    H164139   0.873   0.384   4.913  0.3397  1.2656 -0.5224
14216TIP3    H264140   0.971   0.499   4.919  1.4439  0.3121  0.1655
14217TIP3   OH264141   4.748   0.423  16.256  0.1938  0.0141  0.1700
14217TIP3    H164142   4.805   0.395  16.185  0.3600  0.4840  0.1144
14217TIP3    H264143   4.661   0.392  16.231  0.6806 -2.3476  1.1374
14218TIP3   OH264144   1.701   2.843  16.982 -0.5247 -0.0907  0.4162
14218TIP3    H164145   1.668   2.908  17.044 -0.3042  1.0724 -0.6410
14218TIP3    H264146   1.673   2.876  16.896 -0.3341 -1.3577 -0.1513
14219TIP3   OH264147   3.973   0.039   5.122  0.2753 -0.1626 -0.4020
14219TIP3    H164148   3.925   0.070   5.199 -1.8074 -1.6243 -1.0242
14219TIP3    H264149   3.998   0.119   5.076  0.5508  0.7088  1.1943
14220TIP3   OH264150   6.612   0.911   1.403  0.0232 -0.1077 -0.0063
14220TIP3    H164151   6.678   0.974   1.373  0.4818 -0.2426  0.6967
14220TIP3    H264152   6.663   0.839   1.440 -0.5122 -0.5868 -0.1862
14221TIP3   OH264153   3.649   4.745   0.233 -0.3308  0.0401  0.1898
14221TIP3    H164154   3.693   4.768   0.315  0.1654 -0.1798 -0.0077
14221TIP3    H264155   3.556   4.747   0.254 -0.2047 -0.1091  0.7821
14222TIP3   OH264156   4.152   1.573  15.977  0.1281 -0.5856  0.4867
14222TIP3    H164157   4.105   1.637  15.922  0.8421 -1.1705 -0.8606
14222TIP3    H264158   4.131   1.488  15.937  1.5453 -0.9285  0.4408
14223TIP3   OH264159   1.428   0.765  12.159 -0.2710  0.6504  0.1055
14223TIP3    H164160   1.465   0.701  12.097 -1.8660 -0.6351  0.3847
14223TIP3    H264161   1.406   0.713  12.236  0.4642  1.9951  1.2506
14224TIP3   OH264162   1.707   5.053   2.856 -0.7952 -0.1269  0.0505
14224TIP3    H164163   1.762   5.043   2.934 -0.2708  1.2280 -0.1292
14224TIP3    H264164   1.703   5.147   2.841 -1.7749 -0.3079 -0.9454
14225TIP3   OH264165   2.097   6.294  15.291  0.1240  0.0743  0.5211
14225TIP3    H164166   2.165   6.242  15.250 -0.2734 -0.1449  0.1265
14225TIP3    H264167   2.116   6.290  15.385  0.1896 -0.6469  0.4835
14226TIP3   OH264168   1.204   5.751  16.213 -0.2913  0.3341 -0.2486
14226TIP3    H164169   1.271   5.783  16.274 -0.9237  0.6741  0.2692
14226TIP3    H264170   1.231   5.661  16.194  0.5398  0.5927 -0.3676
14227TIP3   OH264171   5.095   1.087  14.641  0.2907 -0.6367  0.2354
14227TIP3    H164172   5.044   1.007  14.627  2.0580 -2.1902  2.0461
14227TIP3    H264173   5.092   1.101  14.735 -0.7727  2.0874 -0.1078
14228TIP3   OH264174   4.559   0.037   5.004  0.0250  0.4986 -0.0395
14228TIP3    H164175   4.522   0.085   4.929  1.1683  2.3036  0.4892
14228TIP3    H264176   4.496  -0.034   5.020 -0.7606  0.6535 -2.0632
14229TIP3   OH264177   2.362   1.965   5.552  0.5324 -0.0310 -0.2688
14229TIP3    H164178   2.323   1.894   5.500  1.1572  0.2755 -1.1809
14229TIP3    H264179   2.415   1.920   5.618 -2.5839 -0.5242  2.1163
14230TIP3   OH264180   1.356   5.116   0.278 -0.4691 -0.3430  0.0649
14230TIP3    H164181   1.323   5.113   0.188 -0.4925 -0.5129  0.0793
14230TIP3    H264182   1.430   5.177   0.274 -0.3711 -0.4752 -0.1022
14231TIP3   OH264183   0.714   1.766  16.747  0.2283  0.3914 -0.1713
14231TIP3    H164184   0.778   1.831  16.719  0.7252 -0.5999 -1.3878
14231TIP3    H264185   0.688   1.720  16.667 -1.5480  0.3493  0.3829
14232TIP3   OH264186   4.883   2.014  16.073  0.7963 -0.1061 -0.8980
14232TIP3    H164187   4.845   2.055  15.995 -4.5766 -0.9574  0.8935
14232TIP3    H264188   4.881   2.083  16.139 -0.2741 -0.9159 -0.0612
14233TIP3   OH264189   6.565   6.350  11.976  0.1039 -0.8214 -0.1699
14233TIP3    H164190   6.645   6.297  11.971  1.5761  0.9344  2.2902
14233TIP3    H264191   6.547   6.358  12.070 -0.4551  2.3104 -0.4268
14234TIP3   OH264192   1.689   1.547  10.895  0.4057  0.0926  0.2608
14234TIP3    H164193   1.634   1.622  10.875 -1.5152 -1.3445 -0.1403
14234TIP3    H264194   1.741   1.533  10.816 -1.3692 -0.7265 -0.8191
14235TIP3   OH264195   2.138   5.047  14.892 -0.3331 -0.3019 -0.5005
14235TIP3    H164196   2.149   4.987  14.819 -0.5043 -0.4841 -0.3755
14235TIP3    H264197   2.116   4.991  14.966  2.3689 -0.4244  0.3265
14236TIP3   OH264198   3.194   3.405  15.085  0.4775 -0.4299  0.4495
14236TIP3    H164199   3.231   3.321  15.057  0.9790 -0.6170  1.6210
14236TIP3    H264200   3.146   3.384  15.165  1.2992  0.5342  1.2158
14237TIP3   OH264201   4.381   1.559  12.475 -0.2781  0.3684 -0.0110
14237TIP3    H164202   4.320   1.618  12.519  0.0142  1.9221 -1.5885
14237TIP3    H264203   4.330   1.517  12.406  0.1086  0.7144 -0.5189
14238TIP3   OH264204   3.553   3.497  15.663  0.1804  0.4220 -0.4230
14238TIP3    H164205   3.590   3.459  15.743  1.0610  0.4125 -0.8190
14238TIP3    H264206   3.591   3.444  15.592 -3.0677 -1.6911 -0.7608
14239TIP3   OH264207   2.474   0.345   2.266  0.7163 -0.7662  0.2231
14239TIP3    H164208   2.506   0.418   2.320  0.1664 -1.2117  1.1714
14239TIP3    H264209   2.514   0.267   2.305  0.5431 -1.0704 -0.1985
14240TIP3   OH264210   2.632   2.066  14.101 -0.2196 -0.5900 -0.0692
14240TIP3    H164211   2.649   2.041  14.192  2.4089 -2.9530 -1.0650
14240TIP3    H264212   2.537   2.065  14.094 -0.4787 -2.1149  2.2353
14241TIP3   OH264213   2.236   6.277  13.809  0.2187  0.3018 -0.4310
14241TIP3    H164214   2.297   6.268  13.882 -1.3835  0.7785  1.0341
14241TIP3    H264215   2.173   6.343  13.839 -0.5629  0.3958 -2.1963
14242TIP3   OH264216   4.315   6.717  10.516 -0.1423 -0.3043 -0.3182
14242TIP3    H164217   4.244   6.682  10.462 -1.5673  1.3529  0.3837
14242TIP3    H264218   4.287   6.806  10.537  1.0571 -0.4009  1.9456
14243TIP3   OH264219   1.920   1.694   3.748  0.3257  0.2456  0.1502
14243TIP3    H164220   1.855   1.671   3.682  0.0998  0.3579  0.3320
14243TIP3    H264221   1.878   1.674   3.831  0.1083  1.3394  0.3177
14244TIP3   OH264222   6.589   6.016  13.638  0.1985 -0.5231 -0.0783
14244TIP3    H164223   6.665   6.069  13.612 -0.0018  0.1060  0.5953
14244TIP3    H264224   6.568   6.046  13.726 -1.9735  0.6011 -0.9179
14245TIP3   OH264225   3.338   3.949   5.811  1.0695 -0.2017 -0.4672
14245TIP3    H164226   3.293   3.892   5.748  1.7031 -1.6059  0.3205
14245TIP3    H264227   3.307   3.919   5.896  2.4641 -0.3078  0.0270
14246TIP3   OH264228   1.478   3.892   1.570  0.4918 -0.2820  0.4449
14246TIP3    H164229   1.547   3.836   1.536  1.1256 -0.0199  1.2736
14246TIP3    H264230   1.460   3.859   1.658 -1.1345 -0.9599 -0.0945
14247TIP3   OH264231   1.055   3.533  11.679  0.0759 -0.2468 -0.2236
14247TIP3    H164232   0.970   3.492  11.695  0.2236  0.0040  1.3190
14247TIP3    H264233   1.047   3.571  11.591 -0.5435 -2.3380 -1.1430
14248TIP3   OH264234   2.073   2.279  12.671  0.0172  0.4153  0.3819
14248TIP3    H164235   2.135   2.222  12.716 -0.5481  0.3584  1.1184
14248TIP3    H264236   2.065   2.242  12.583  0.9821  0.4040  0.2932
14249TIP3   OH264237   2.951   0.993   1.620 -0.2142  0.4093  0.1580
14249TIP3    H164238   2.893   0.990   1.544  0.4504 -0.1470 -0.3466
14249TIP3    H264239   3.035   0.961   1.587 -0.1565 -0.7951  1.3531
14250TIP3   OH264240   1.544   2.991   4.795 -0.0258 -0.4060 -0.3718
14250TIP3    H164241   1.591   3.039   4.863 -1.2930  0.2662  0.0604
14250TIP3    H264242   1.461   3.038   4.785 -0.5029 -1.3946 -1.3042
14251TIP3   OH264243   3.880   1.973   0.158 -0.4443  0.5895 -0.6072
14251TIP3    H164244   3.883   2.033   0.084  0.4314 -1.4282 -2.2938
14251TIP3    H264245   3.949   2.003   0.217  1.1666  0.2880 -2.2532
14252TIP3   OH264246   5.161   2.143   0.961 -0.0460  0.5781  0.3150
14252TIP3    H164247   5.217   2.206   1.007  0.4803 -1.2509  2.3716
14252TIP3    H264248   5.123   2.090   1.032 -1.6647 -0.4447 -1.2453
14253TIP3   OH264249   2.420   4.008  15.063  0.1376 -0.3834 -1.0732
14253TIP3    H164250   2.325   4.012  15.047  0.3238 -0.6264 -2.3415
14253TIP3    H264251   2.443   3.916  15.048  0.0565 -1.1505  2.6379
14254TIP3   OH264252   3.842   0.985  17.096  0.0432 -0.4328 -0.0322
14254TIP3    H164253   3.820   0.909  17.150  2.3870 -1.4107 -0.3132
14254TIP3    H264254   3.789   0.973  17.017 -0.8372 -0.8666  0.6049
14255TIP3   OH264255   2.472   6.388   3.094 -0.1712 -0.3885  0.3130
14255TIP3    H164256   2.409   6.317   3.103 -1.0052  0.3287  0.1690
14255TIP3    H264257   2.431   6.463   3.137 -0.3338  0.6525 -1.5599
14256TIP3   OH264258   3.042   4.635   1.245 -0.2144 -0.1290  0.5050
14256TIP3    H164259   3.120   4.681   1.213  0.2036 -0.2179  1.3531
14256TIP3    H264260   3.032   4.561   1.186 -0.5547  0.7218 -0.5343
14257TIP3   OH264261   5.065   4.212  11.277  0.2740 -0.4773 -0.4783
14257TIP3    H164262   5.087   4.145  11.213 -1.6601 -1.7136  0.0687
14257TIP3    H264263   4.970   4.221  11.271  0.4377  1.9942 -0.2847
14258TIP3   OH264264   4.938   0.141   3.394 -0.5902 -0.0042  0.4478
14258TIP3    H164265   5.006   0.204   3.369  0.3073 -1.7148 -1.8253
14258TIP3    H264266   4.986   0.070   3.436 -1.4578  0.2812  1.9901
14259TIP3   OH264267   2.941   5.728   4.784  0.1221  0.1008  0.0015
14259TIP3    H164268   2.873   5.675   4.825 -0.7911 -0.0263 -1.5755
14259TIP3    H264269   2.893   5.800   4.742  0.8908 -0.2674 -1.5749
14260TIP3   OH264270   2.290   3.528  11.243  0.2354 -0.0615 -0.3627
14260TIP3    H164271   2.257   3.593  11.306  0.6968  2.2072 -2.2989
14260TIP3    H264272   2.215   3.513  11.184  1.0634  1.3624 -1.8775
14261TIP3   OH264273   0.699   3.144  14.121  0.1953 -0.3301  0.2681
14261TIP3    H164274   0.604   3.139  14.111  0.3322 -0.0961 -1.3614
14261TIP3    H264275   0.732   3.073  14.066  0.9475 -0.9897  1.5296
14262TIP3   OH264276   1.943   1.611  16.762 -0.4452  0.0574 -0.1369
14262TIP3    H164277   1.999   1.688  16.769 -0.1998 -0.0865 -0.5056
14262TIP3    H264278   2.000   1.537  16.781 -0.5408 -0.0782 -0.3640
14263TIP3   OH264279   4.704   1.535  14.506  0.0051 -0.3578 -0.3293
14263TIP3    H164280   4.622   1.556  14.551 -0.2289  0.9129 -1.2847
14263TIP3    H264281   4.679   1.525  14.414  0.9846  0.6561 -0.7314
14264TIP3   OH264282   6.839   3.730   4.786  0.0634 -0.2563 -0.4583
14264TIP3    H164283   6.851   3.663   4.853  0.8240 -0.1279 -0.4502
14264TIP3    H264284   6.829   3.811   4.834  0.2724 -0.2114 -0.4883
14265TIP3   OH264285   5.036   2.915   2.286  0.1653 -0.4029 -0.4864
14265TIP3    H164286   4.970   2.886   2.223 -1.5038 -0.9555  1.4232
14265TIP3    H264287   4.985   2.957   2.356  2.0299  1.2281 -0.0141
14266TIP3   OH264288   5.484   1.458  10.851  0.1771  0.0615 -0.4865
14266TIP3    H164289   5.459   1.378  10.899 -0.6298  1.1095  0.9469
14266TIP3    H264290   5.437   1.452  10.768 -0.7951 -0.4534  0.0745
14267TIP3   OH264291   4.069   0.609  13.975  0.5569  0.0648  0.3636
14267TIP3    H164292   4.112   0.682  13.930 -2.9680  2.4944  0.4754
14267TIP3    H264293   4.003   0.578  13.912 -1.5176  0.5938  2.1532
14268TIP3   OH264294   1.879   4.187   0.976  0.8527 -0.3432  0.0560
14268TIP3    H164295   1.832   4.255   0.928 -2.0012 -0.9945  1.6900
14268TIP3    H264296   1.954   4.166   0.920  0.3528  2.2038 -1.7706
14269TIP3   OH264297   3.969   2.469  13.748 -0.3011 -0.1170  0.2233
14269TIP3    H164298   3.942   2.553  13.711  0.9706 -0.0090 -0.4960
14269TIP3    H264299   3.990   2.415  13.672 -0.3203 -0.8225  0.7092
14270TIP3   OH264300   5.129   5.387  13.203  0.1495  0.2091  0.3204
14270TIP3    H164301   5.185   5.363  13.276  0.1251 -3.4782 -0.6524
14270TIP3    H264302   5.185   5.440  13.146  1.4417 -0.2335  1.1257
14271TIP3   OH264303   4.968   6.664   2.781 -0.0151 -0.3673 -0.5354
14271TIP3    H164304   5.031   6.608   2.737 -2.0795 -1.5410 -2.1724
14271TIP3    H264305   4.967   6.744   2.728  0.9378  0.1476  0.2003
14272TIP3   OH264306   0.000   3.610   5.295 -0.4057 -0.3373  0.0274
14272TIP3    H164307  -0.005   3.694   5.342  0.2413  0.3066 -0.9883
14272TIP3    H264308  -0.023   3.544   5.360 -1.1117  0.6469  0.8055
14273TIP3   OH264309   1.598   5.870  15.453  0.3734 -0.3467  0.1323
14273TIP3    H164310   1.659   5.858  15.525  0.1454  2.4296  0.9212
14273TIP3    H264311   1.538   5.796  15.459  1.3169 -1.0287  1.7910
14274TIP3   OH264312   5.687   2.240   4.203  0.6528 -0.8323 -0.7895
14274TIP3    H164313   5.755   2.202   4.258 -1.6161 -3.2121  0.5804
14274TIP3    H264314   5.688   2.188   4.123 -0.6920 -2.0928 -0.0179
14275TIP3   OH264315   3.805   4.374   4.826  0.8137  0.0754  0.0329
14275TIP3    H164316   3.714   4.403   4.815  0.2047 -1.4042  0.9185
14275TIP3    H264317   3.818   4.309   4.756  1.4055  0.7209 -0.4728
14276TIP3   OH264318   1.912   4.547  16.275 -0.4661  0.2698  0.6122
14276TIP3    H164319   1.819   4.569  16.283 -0.9782 -1.0113 -1.2096
14276TIP3    H264320   1.939   4.528  16.365 -2.0628  0.3016  1.1359
14277TIP3   OH264321   0.811   5.405  11.409 -0.2882  0.3574  0.2241
14277TIP3    H164322   0.853   5.483  11.373 -0.5417 -0.0871 -1.0965
14277TIP3    H264323   0.810   5.343  11.337  2.0212 -1.7674  1.8817
14278TIP3   OH264324   4.286   3.021   2.477 -0.5924  0.1759  0.2336
14278TIP3    H164325   4.332   3.049   2.398  0.4758  0.1105  0.8078
14278TIP3    H264326   4.295   2.926   2.477 -2.0003  0.0156 -0.3877
14279TIP3   OH264327   5.238   5.539   0.540  0.7996  0.1760  0.3692
14279TIP3    H164328   5.224   5.612   0.480 -3.7093 -2.2105 -2.0210
14279TIP3    H264329   5.165   5.545   0.602 -0.4476 -2.6744 -0.6270
14280TIP3   OH264330   3.287   0.266   3.345 -0.4673  0.1928  0.1068
14280TIP3    H164331   3.341   0.287   3.421 -2.2675 -0.1234  1.5391
14280TIP3    H264332   3.248   0.181   3.365 -1.5275  0.4308 -0.8171
14281TIP3   OH264333   5.726   4.016  15.365  0.2131 -0.2139  0.5485
14281TIP3    H164334   5.642   3.984  15.330  0.7076 -2.2727  1.1196
14281TIP3    H264335   5.714   4.015  15.460  0.0052  2.1482  0.6089
14282TIP3   OH264336   0.915   4.328  16.937  0.2101 -0.6343  0.4239
14282TIP3    H164337   0.857   4.273  16.884 -0.6625 -0.1050  0.8197
14282TIP3    H264338   0.943   4.398  16.878 -0.7339 -0.0634  0.6507
14283TIP3   OH264339   3.845   2.394   6.255 -0.7835  0.0783  0.3144
14283TIP3    H164340   3.889   2.311   6.274  1.9881  0.8845 -1.7552
14283TIP3    H264341   3.807   2.422   6.338  1.7718 -1.3237  2.0930
14284TIP3   OH264342   2.807   6.189   2.620  0.0590  0.2844 -0.0146
14284TIP3    H164343   2.838   6.122   2.681 -0.9755  0.6638  0.9574
14284TIP3    H264344   2.881   6.204   2.561  0.5379 -1.2197  0.1726
14285TIP3   OH264345   0.237   2.035   3.719 -0.2113 -0.2689 -0.4265
14285TIP3    H164346   0.269   2.053   3.630 -2.7423  1.3906 -1.0964
14285TIP3    H264347   0.316   2.035   3.773  1.1302  1.8620 -2.2003
14286TIP3   OH264348   0.275   5.311   1.600 -0.5361 -0.3482  0.3713
14286TIP3    H164349   0.343   5.245   1.616  1.0384  0.4139 -2.5749
14286TIP3    H264350   0.213   5.267   1.542 -1.0305 -0.0936  0.6972
14287TIP3   OH264351   6.271   2.212   2.221  0.4514  0.4177  0.8027
14287TIP3    H164352   6.311   2.126   2.238  1.2758 -0.0892 -2.8581
14287TIP3    H264353   6.177   2.194   2.218  0.4831  0.0181  1.7012
14288TIP3   OH264354   6.258   5.335  15.291  0.0403  0.3585  0.0178
14288TIP3    H164355   6.225   5.254  15.331 -0.4685 -0.6101 -2.2568
14288TIP3    H264356   6.180   5.379  15.257  0.4603  1.1997  0.1045
14289TIP3   OH264357   2.799   0.669   1.644 -0.2351  0.3719  0.0099
14289TIP3    H164358   2.748   0.744   1.676 -0.5188  0.0617  0.2805
14289TIP3    H264359   2.887   0.684   1.681 -0.3755  0.3964  0.3393
14290TIP3   OH264360   5.975   4.314  11.598 -0.3274  0.0911  0.0155
14290TIP3    H164361   5.989   4.352  11.685  0.4498 -1.2762  0.5202
14290TIP3    H264362   5.882   4.292  11.597 -0.5568  0.9996  0.1104
14291TIP3   OH264363   1.596   2.023  13.459 -0.7798 -0.4476  0.6446
14291TIP3    H164364   1.564   2.072  13.534  0.8674  0.0636  1.0691
14291TIP3    H264365   1.611   2.089  13.391  0.8676 -0.3753  1.0149
14292TIP3   OH264366   2.724   2.699   3.536 -0.6013 -0.6105  0.0043
14292TIP3    H164367   2.802   2.704   3.480 -0.9773 -2.2457 -0.7292
14292TIP3    H264368   2.687   2.613   3.517 -2.3066 -0.0716  0.7247
14293TIP3   OH264369   6.559   5.987  14.493  0.2772 -0.5007  0.0008
14293TIP3    H164370   6.594   6.062  14.540  1.1508 -1.3800  0.7967
14293TIP3    H264371   6.488   5.954  14.548  0.0825 -0.4392 -0.2092
14294TIP3   OH264372   2.862   3.762   1.398  0.5276 -0.0247  0.3913
14294TIP3    H164373   2.832   3.682   1.356 -1.5170  0.2108  1.2810
14294TIP3    H264374   2.897   3.733   1.483  0.3205 -0.0265  0.4753
14295TIP3   OH264375   4.477   3.452  14.864  0.2642  0.2234 -0.2111
14295TIP3    H164376   4.560   3.500  14.874  0.5577 -0.5583  1.6452
14295TIP3    H264377   4.479   3.419  14.775  2.4428 -0.6094  0.0705
14296TIP3   OH264378   4.473   3.275   4.994 -0.7943 -0.5681 -0.4479
14296TIP3    H164379   4.467   3.279   4.899 -1.7214  0.1600 -0.3743
14296TIP3    H264380   4.474   3.182   5.015  0.3960 -0.7556 -1.2086
14297TIP3   OH264381   4.235   4.853  15.217  0.0577  0.2832  0.0273
14297TIP3    H164382   4.197   4.856  15.304  0.3050  1.3842  0.1089
14297TIP3    H264383   4.329   4.845  15.232  0.0458 -0.2460 -0.1525
14298TIP3   OH264384   1.441   5.249   3.465 -0.1255 -0.3222  0.7515
14298TIP3    H164385   1.534   5.230   3.464  0.0785  0.6320  0.3211
14298TIP3    H264386   1.400   5.168   3.494  0.8224 -0.8035  0.7797
14299TIP3   OH264387   0.200   6.373  15.407 -0.3443 -0.1963  0.4902
14299TIP3    H164388   0.289   6.345  15.428 -0.3283  0.7635  1.8196
14299TIP3    H264389   0.210   6.433  15.333 -0.0937 -1.4532 -0.5268
14300TIP3   OH264390   3.559   2.682   2.332  0.2183  0.0767  0.1484
14300TIP3    H164391   3.594   2.594   2.323  1.7414  0.6912 -0.3636
14300TIP3    H264392   3.589   2.728   2.253  0.2085  1.2747  0.8040
14301TIP3   OH264393   3.891   3.118   0.882  0.4122  0.4948  0.4109
14301TIP3    H164394   3.985   3.134   0.875  0.3968  0.2622 -0.3876
14301TIP3    H264395   3.884   3.037   0.933  0.6159  0.8420  1.0077
14302TIP3   OH264396   6.117   0.790  11.327 -0.2094  0.3663  0.2179
14302TIP3    H164397   6.100   0.883  11.310  0.5504  0.4587 -0.1092
14302TIP3    H264398   6.191   0.769  11.269 -0.5701 -0.5211  0.0683
14303TIP3   OH264399   2.862   0.009  14.434  0.2931  0.2016  0.0133
14303TIP3    H164400   2.832   0.081  14.489  0.2414 -1.2980  2.0691
14303TIP3    H264401   2.786  -0.014  14.379 -0.1289  0.7919  0.3447
14304TIP3   OH264402   6.083   3.616   2.588  0.1706  0.0198 -0.3280
14304TIP3    H164403   6.077   3.709   2.613  0.1713 -0.4083  1.4437
14304TIP3    H264404   6.011   3.603   2.527 -1.0261  0.7788  0.8699
14305TIP3   OH264405   1.396   6.827  11.819 -0.0696 -0.6834 -0.0532
14305TIP3    H164406   1.309   6.844  11.855  0.4408 -0.0150  0.9067
14305TIP3    H264407   1.433   6.761  11.876 -0.9560 -3.1163 -2.1051
14306TIP3   OH264408   2.281   3.967   4.241 -0.6967 -0.1745  0.5000
14306TIP3    H164409   2.296   3.893   4.183 -0.5488  0.3888 -0.1832
14306TIP3    H264410   2.351   3.961   4.307 -0.4270 -0.3905  0.1930
14307TIP3   OH264411   3.599   4.526   4.908 -0.4976 -0.0147  0.4422
14307TIP3    H164412   3.574   4.613   4.939  0.6945  1.4815 -2.5175
14307TIP3    H264413   3.532   4.503   4.844  1.8045  1.1168 -2.6027
14308TIP3   OH264414   4.268   0.893   5.600 -0.1215  0.2793 -0.9031
14308TIP3    H164415   4.212   0.841   5.542 -1.0883 -0.2914  0.4770
14308TIP3    H264416   4.214   0.970   5.622 -0.4843 -0.3655  0.5910
14309TIP3   OH264417   6.174   4.172   5.597 -0.4076  0.3516 -0.0360
14309TIP3    H164418   6.231   4.203   5.527 -0.6470  0.6372 -0.1036
14309TIP3    H264419   6.112   4.114   5.554 -0.2572  0.1486  0.0170
14310TIP3   OH264420   2.388   4.882  13.739 -0.6589 -0.1671 -0.1360
14310TIP3    H164421   2.415   4.969  13.769  0.2390 -0.0706 -1.1724
14310TIP3    H264422   2.342   4.899  13.657 -0.7729 -0.6486 -0.1702
14311TIP3   OH264423   1.313   6.565   2.792 -0.6000 -0.4653 -0.1202
14311TIP3    H164424   1.259   6.638   2.763 -1.0127 -0.9573 -0.6294
14311TIP3    H264425   1.387   6.605   2.837  0.0142  0.3340 -1.7707
14312TIP3   OH264426   2.825   5.563  14.871 -0.4340 -0.3161  0.7118
14312TIP3    H164427   2.776   5.494  14.826 -1.0047  0.2115  0.5112
14312TIP3    H264428   2.777   5.577  14.952 -0.5549  0.1414  0.5584
14313TIP3   OH264429   1.136   1.881  12.457 -0.4701 -0.0093  0.3844
14313TIP3    H164430   1.049   1.858  12.488 -1.0939 -1.0914 -1.9506
14313TIP3    H264431   1.185   1.799  12.458 -0.7387 -0.2637 -1.9879
14314TIP3   OH264432   5.227   6.769  16.085 -0.0196 -0.2378 -0.9105
14314TIP3    H164433   5.228   6.757  16.180 -0.5183  0.2869 -0.8306
14314TIP3    H264434   5.304   6.824  16.068 -0.5792  0.6645 -0.6494
14315TIP3   OH264435   1.319   2.899  11.468  0.5472  0.5861 -0.6034
14315TIP3    H164436   1.306   2.987  11.432 -1.3214  0.7279  0.2703
14315TIP3    H264437   1.261   2.843  11.417  1.6949 -0.1562 -1.1265
14316TIP3   OH264438   6.643   2.548   4.620  0.4201 -0.4956 -0.4411
14316TIP3    H164439   6.632   2.511   4.707  1.1072 -1.9281 -0.9289
14316TIP3    H264440   6.738   2.561   4.611  0.2795  0.4114 -0.6710
14317TIP3   OH264441   0.966   4.916   3.507  0.2609 -0.1819 -0.3185
14317TIP3    H164442   0.997   4.975   3.576  1.2733  0.2745 -1.1553
14317TIP3    H264443   0.935   4.839   3.555  2.1156 -0.4080  0.6046
14318TIP3   OH264444   2.386   1.480   5.116 -0.2528 -0.2720  0.5220
14318TIP3    H164445   2.456   1.545   5.124  0.0992 -0.7637  1.7265
14318TIP3    H264446   2.310   1.531   5.089 -0.0630  0.7155  1.7470
14319TIP3   OH264447   6.342   0.305   3.430  0.4090 -0.1377 -0.1989
14319TIP3    H164448   6.345   0.211   3.413 -1.8588  0.1103 -2.6147
14319TIP3    H264449   6.423   0.338   3.391  0.0829 -0.8417 -1.5361
14320TIP3   OH264450   5.932   2.584   1.509 -0.1016  0.2466 -0.1196
14320TIP3    H164451   5.916   2.595   1.602  1.4465  1.7947  0.0178
14320TIP3    H264452   6.018   2.544   1.503 -0.3036 -0.1022 -0.8942
14321TIP3   OH264453   2.600   3.771  16.412 -0.1554  0.0019 -0.3199
14321TIP3    H164454   2.618   3.845  16.470 -2.3234 -0.5130  1.1433
14321TIP3    H264455   2.643   3.696  16.454 -1.2618 -0.2637  0.4021
14322TIP3   OH264456   6.126   2.109  11.677  0.1777 -0.1327 -0.9138
14322TIP3    H164457   6.157   2.068  11.597  4.3140  0.8500 -0.0697
14322TIP3    H264458   6.160   2.199  11.673 -1.5099  0.6684  0.8998
14323TIP3   OH264459   4.366   3.993   2.628  0.5762  0.2079 -0.2030
14323TIP3    H164460   4.310   3.945   2.688 -0.8682  1.2495 -0.6661
14323TIP3    H264461   4.349   3.955   2.542  0.9189  0.2473 -0.2922
14324TIP3   OH264462   4.331   3.952  14.593 -0.2067  0.2347 -0.4781
14324TIP3    H164463   4.298   4.037  14.622 -0.4380 -0.1573  0.4534
14324TIP3    H264464   4.395   3.927  14.660 -0.1094 -0.3028 -0.7680
14325TIP3   OH264465   3.314   6.840   2.096  0.4210 -0.4719  0.0121
14325TIP3    H164466   3.320   6.830   2.001 -0.4521 -0.9836 -0.0111
14325TIP3    H264467   3.221   6.855   2.112  0.7214  0.7317  0.7001
14326TIP3   OH264468   5.684   6.472   1.442  0.2755 -0.0641  0.1861
14326TIP3    H164469   5.593   6.475   1.411 -0.4480 -1.8133  1.9318
14326TIP3    H264470   5.711   6.381   1.428  2.4073  0.7981 -1.8615
14327TIP3   OH264471   0.818   4.261   2.753  0.1451  0.5016  0.2010
14327TIP3    H164472   0.831   4.280   2.846  0.1538 -1.1610  0.5804
14327TIP3    H264473   0.795   4.168   2.751  2.4688 -0.1356 -1.6502
14328TIP3   OH264474   3.458   5.326  17.025  0.0185  0.6130  0.5670
14328TIP3    H164475   3.374   5.362  17.051 -1.2709 -1.8769  0.1674
14328TIP3    H264476   3.457   5.326  16.930 -0.6606 -1.6729  0.5175
14329TIP3   OH264477   1.421   4.618   4.987  0.1953  0.5470  0.3388
14329TIP3    H164478   1.436   4.583   4.899  4.3967  0.9763  0.6753
14329TIP3    H264479   1.423   4.713   4.977 -0.4374  0.6143  0.7739
14330TIP3   OH264480   1.034   6.437  16.452 -0.2951 -0.3657 -0.1239
14330TIP3    H164481   1.090   6.423  16.528 -1.0344  0.9339  0.7142
14330TIP3    H264482   0.985   6.356  16.442 -0.1767 -0.5533  0.7860
14331TIP3   OH264483   3.205   1.886   0.290  0.0519 -0.2995  0.0870
14331TIP3    H164484   3.115   1.855   0.304  0.6022 -1.5614  1.0160
14331TIP3    H264485   3.195   1.979   0.271 -1.4167 -0.2912  0.7423
14332TIP3   OH264486   3.141   0.146  11.079  0.4464 -0.2463 -0.0249
14332TIP3    H164487   3.162   0.131  11.171 -0.3554  0.1424  0.2341
14332TIP3    H264488   3.062   0.094  11.063  1.7650 -2.0372 -1.0999
14333TIP3   OH264489   3.802   1.019   2.164  0.6806 -0.0710 -0.0992
14333TIP3    H164490   3.846   1.023   2.249  0.3232 -0.5466  0.1192
14333TIP3    H264491   3.772   0.928   2.158 -1.2602  0.5043  0.2797
14334TIP3   OH264492   4.090   2.504  12.505 -0.2459  0.3625  0.3989
14334TIP3    H164493   4.129   2.544  12.583 -0.0859  1.1489 -0.0747
14334TIP3    H264494   4.069   2.578  12.448  0.3531 -0.2470 -0.6405
14335TIP3   OH264495   5.310   0.361   5.543  0.7076  0.0227 -0.2771
14335TIP3    H164496   5.276   0.365   5.454  1.9334  0.6015 -0.7364
14335TIP3    H264497   5.263   0.288   5.583  0.3980 -0.4759 -1.5039
14336TIP3   OH264498   2.684   1.219   3.689 -0.0890  0.0919  0.0614
14336TIP3    H164499   2.716   1.224   3.780 -0.2838  0.1915  0.1241
14336TIP3    H264500   2.630   1.140   3.688  0.5722 -0.3693 -0.1755
14337TIP3   OH264501   3.150   6.793  16.707 -0.4674  0.1141  0.8522
14337TIP3    H164502   3.166   6.763  16.797 -0.8448 -0.2436  0.8033
14337TIP3    H264503   3.205   6.871  16.698  2.5147 -1.8788  0.1887
14338TIP3   OH264504   0.615   5.619   5.617  0.5089 -0.2108 -0.3214
14338TIP3    H164505   0.671   5.543   5.633 -0.6768 -1.1847 -0.6488
14338TIP3    H264506   0.621   5.671   5.697  1.5722 -0.4956 -0.2060
14339TIP3   OH264507   2.436   4.108   1.538  0.5533 -0.1396  0.6315
14339TIP3    H164508   2.373   4.054   1.491  1.7150 -0.1274 -1.0210
14339TIP3    H264509   2.496   4.044   1.578  0.3774 -0.1203  0.9280
14340TIP3   OH264510   4.878   2.270  16.182 -0.3695 -0.5459  0.2218
14340TIP3    H164511   4.949   2.329  16.205 -0.3260 -0.8055  0.7751
14340TIP3    H264512   4.822   2.321  16.124 -1.0493  0.5180  1.7485
14341TIP3   OH264513   2.647   5.989   2.868 -0.0690 -0.7946 -0.1277
14341TIP3    H164514   2.738   5.983   2.839  0.5337  1.4360  1.0456
14341TIP3    H264515   2.596   5.958   2.794  1.5814 -0.2564 -1.5606
14342TIP3   OH264516   2.224   3.183  16.739 -0.0485 -0.6713 -0.3152
14342TIP3    H164517   2.286   3.118  16.704  0.9729 -1.0917  2.0677
14342TIP3    H264518   2.280   3.250  16.778 -1.1179  0.8889 -1.3711
14343TIP3   OH264519   6.319   0.382  14.888  0.7948 -0.2295 -0.1391
14343TIP3    H164520   6.383   0.311  14.901 -0.4488 -1.8445 -2.2397
14343TIP3    H264521   6.308   0.387  14.793 -0.5122  1.5849  0.0635
14344TIP3   OH264522   2.933   3.287   0.378  0.5124  0.0095 -0.2172
14344TIP3    H164523   2.849   3.296   0.423  0.6264 -1.0832  0.2534
14344TIP3    H264524   2.989   3.353   0.420  0.4401 -0.5861  0.8542
14345TIP3   OH264525   2.511   4.121  13.946 -0.2814 -0.0439  0.2290
14345TIP3    H164526   2.459   4.043  13.962 -2.0177  0.7049 -1.3788
14345TIP3    H264527   2.509   4.169  14.028 -0.4186 -0.9836  0.7872
14346TIP3   OH264528   2.921   4.927   2.965 -0.2211  0.2811  0.5321
14346TIP3    H164529   2.836   4.968   2.946 -1.6505 -0.3328  4.5500
14346TIP3    H264530   2.963   4.988   3.025  2.3643  0.6129 -1.4710
14347TIP3   OH264531   1.167   3.756   4.187 -0.3534  0.1632 -0.5770
14347TIP3    H164532   1.176   3.692   4.116  0.4198  0.8255 -1.0797
14347TIP3    H264533   1.112   3.825   4.150  0.5749  0.8183 -0.7559
14348TIP3   OH264534   4.196   2.593   3.684  0.1222 -0.2274  0.0807
14348TIP3    H164535   4.164   2.551   3.763 -3.2224  0.4169 -0.7663
14348TIP3    H264536   4.235   2.675   3.714 -0.2148 -0.4447  1.1450
14349TIP3   OH264537   4.960   5.071   3.456 -0.7467 -0.4577  0.0380
14349TIP3    H164538   4.935   5.160   3.432 -1.2337 -0.6414 -0.1572
14349TIP3    H264539   4.877   5.028   3.477 -0.2994 -0.0607  3.0040
14350TIP3   OH264540   1.636   6.519   2.013  0.6238  0.0899  0.0520
14350TIP3    H164541   1.678   6.604   2.005  0.5492  0.0109 -1.3838
14350TIP3    H264542   1.684   6.474   2.082  1.9027  0.5785 -0.5034
14351TIP3   OH264543   3.992   5.908  16.805 -0.0592  0.3526 -0.2199
14351TIP3    H164544   4.016   5.999  16.821  0.6066  0.4178 -1.5349
14351TIP3    H264545   4.074   5.860  16.810 -0.4155 -0.2040  0.5367
14352TIP3   OH264546   1.058   0.439   2.602  0.1300 -0.2152 -0.0011
14352TIP3    H164547   1.136   0.487   2.631 -0.9316  1.2243  0.6141
14352TIP3    H264548   1.069   0.351   2.638  1.8596 -0.3113 -0.6558
14353TIP3   OH264549   1.706   2.312   5.947  0.1539 -0.1385 -0.2013
14353TIP3    H164550   1.754   2.284   6.025 -0.9758 -1.1030  0.1799
14353TIP3    H264551   1.626   2.259   5.948  0.3683 -0.5798 -2.3235
14354TIP3   OH264552   2.460   1.569  13.437 -0.5468  0.2979  0.2824
14354TIP3    H164553   2.438   1.476  13.429 -0.4151  0.3711 -1.3652
14354TIP3    H264554   2.554   1.570  13.452 -0.4844  0.1577 -0.0734
14355TIP3   OH264555   4.853   1.681   5.092 -0.0463 -0.4123 -0.1217
14355TIP3    H164556   4.833   1.588   5.102  0.7076 -0.6163 -0.5131
14355TIP3    H264557   4.809   1.706   5.011  1.0906 -0.8133 -0.8740
14356TIP3   OH264558   4.458   6.704  14.170  0.1026  0.0401  0.1347
14356TIP3    H164559   4.417   6.656  14.098  1.2110  0.4731 -0.8319
14356TIP3    H264560   4.447   6.647  14.246 -1.1066 -0.4270 -0.3643
14357TIP3   OH264561   5.707   2.531   4.206  0.2953  0.0823 -0.4033
14357TIP3    H164562   5.780   2.552   4.148  0.1063 -0.6563 -0.9253
14357TIP3    H264563   5.701   2.436   4.203  0.5985 -0.0192  1.2281
14358TIP3   OH264564   5.220   4.361   4.736  0.3572  0.2537  0.2702
14358TIP3    H164565   5.217   4.441   4.789  0.2527 -0.0742  0.7720
14358TIP3    H264566   5.231   4.291   4.800  0.1462 -0.1586 -0.1395
14359TIP3   OH264567   4.462   6.342   4.202 -0.2685 -0.5000 -0.1862
14359TIP3    H164568   4.368   6.325   4.197 -0.1199 -1.0458 -1.8950
14359TIP3    H264569   4.501   6.255   4.214  0.0804 -0.4290 -0.8015
14360TIP3   OH264570   2.708   2.543   4.510 -0.4909  0.1141  0.0412
14360TIP3    H164571   2.699   2.453   4.480  1.1357 -0.1432  0.2373
14360TIP3    H264572   2.677   2.596   4.436 -1.3381 -0.5834 -0.1242
14361TIP3   OH264573   2.058   5.435   5.447  1.0592 -0.5321  0.4446
14361TIP3    H164574   2.117   5.432   5.522 -1.4932  1.2213  2.7394
14361TIP3    H264575   1.989   5.495   5.474  0.0526  0.3175 -3.4459
14362TIP3   OH264576   2.614   4.428  12.754 -0.1637 -0.1507  0.3553
14362TIP3    H164577   2.671   4.505  12.758 -0.3192 -0.0723  1.3363
14362TIP3    H264578   2.588   4.422  12.662 -0.1611  0.9732  0.2654
14363TIP3   OH264579   0.946   2.587   5.529  0.3843 -0.7547  0.0718
14363TIP3    H164580   0.996   2.534   5.591 -0.5432 -1.1150  0.5322
14363TIP3    H264581   0.910   2.524   5.467  1.0508 -0.4247 -0.6660
14364TIP3   OH264582   0.579   3.252  11.747 -0.2310  0.1059  0.2726
14364TIP3    H164583   0.602   3.209  11.665 -0.4226 -0.2881  0.4215
14364TIP3    H264584   0.659   3.299  11.773  1.1411 -2.7612  1.7367
14365TIP3   OH264585   2.492   4.343  12.342 -0.0048 -0.4399 -0.5351
14365TIP3    H164586   2.441   4.273  12.382 -0.3513  0.9563  1.6067
14365TIP3    H264587   2.583   4.313  12.349 -0.1551 -0.7192  0.2892
14366TIP3   OH264588   5.637   2.896   4.544  0.2177  0.2509  0.0280
14366TIP3    H164589   5.728   2.879   4.520  0.1557 -0.0626  0.0087
14366TIP3    H264590   5.632   2.870   4.636  0.5557  1.8233  0.5210
14367TIP3   OH264591   2.647   6.160  13.854  0.3429  0.2965  0.7404
14367TIP3    H164592   2.581   6.097  13.883 -0.1097  0.2040 -0.4251
14367TIP3    H264593   2.652   6.147  13.759  2.0243  0.3185  0.7900
14368TIP3   OH264594   1.038   1.129  14.168 -0.1849  0.5736 -0.0522
14368TIP3    H164595   0.944   1.142  14.182 -0.1565 -0.0457  0.7810
14368TIP3    H264596   1.060   1.189  14.096 -1.5166 -0.3432 -1.2852
14369TIP3   OH264597   5.806   1.416  16.210 -0.5609 -0.0551  0.1241
14369TIP3    H164598   5.873   1.365  16.256 -1.8767 -1.5359  0.4895
14369TIP3    H264599   5.826   1.405  16.117  0.5075  0.6950  0.2453
14370TIP3   OH264600   5.498   4.666  12.535  0.1254 -0.4903  0.8208
14370TIP3    H164601   5.491   4.723  12.458  0.8843 -1.4114  0.0462
14370TIP3    H264602   5.480   4.724  12.609 -0.5554  0.4362 -0.0358
14371TIP3   OH264603   5.389   5.265  15.856  0.8080 -0.1949  0.2663
14371TIP3    H164604   5.454   5.312  15.908  3.0598  0.5455 -2.8570
14371TIP3    H264605   5.328   5.333  15.827 -0.4017 -0.5933  1.7525
14372TIP3   OH264606   1.858   5.052   2.483  0.0477  0.0050 -0.1184
14372TIP3    H164607   1.920   4.980   2.495 -0.9859 -1.1713 -1.4895
14372TIP3    H264608   1.772   5.014   2.505 -0.5765  0.6474 -1.3440
14373TIP3   OH264609   2.797   6.294   0.184 -0.3941  0.1149 -0.5535
14373TIP3    H164610   2.736   6.260   0.119  0.9988 -2.1757 -0.7557
14373TIP3    H264611   2.821   6.218   0.237  2.2398  0.9003 -0.4759
14374TIP3   OH264612   6.111   6.099  16.204  0.0211 -0.2457 -0.2832
14374TIP3    H164613   6.202   6.121  16.223 -0.4186 -0.0351  1.8959
14374TIP3    H264614   6.115   6.014  16.161  1.3191  0.6758 -2.1229
14375TIP3   OH264615   1.401   3.855   3.931 -0.4687 -0.0553  0.3492
14375TIP3    H164616   1.428   3.776   3.977 -4.0439 -2.5187 -1.2654
14375TIP3    H264617   1.306   3.846   3.921 -0.3508  1.0236 -5.7038
14376TIP3   OH264618   4.115   6.579   3.679  0.1338 -0.6802 -0.2048
14376TIP3    H164619   4.033   6.589   3.726  0.3135 -0.2233  0.0224
14376TIP3    H264620   4.092   6.530   3.600 -0.3530 -0.5603 -0.1402
14377TIP3   OH264621   4.934   5.364  12.008  0.2042 -0.0349  0.0800
14377TIP3    H164622   4.848   5.330  11.982  0.5061 -0.1275 -0.8592
14377TIP3    H264623   4.983   5.286  12.036  0.7052 -0.3392 -1.5253
14378TIP3   OH264624   1.021   0.455   5.831  0.6183 -0.2520 -0.1608
14378TIP3    H164625   0.983   0.476   5.746  1.5733 -1.7603 -0.9868
14378TIP3    H264626   1.111   0.487   5.826  0.7258 -0.4833  0.2468
14379TIP3   OH264627   0.352   6.699  14.235 -0.3682 -0.4921  0.0232
14379TIP3    H164628   0.315   6.649  14.307 -1.1333  0.4162  0.2764
14379TIP3    H264629   0.446   6.679  14.237 -0.4842 -0.9731  0.8586
14380TIP3   OH264630   3.769   4.350  15.963  0.1766  0.6521  0.1185
14380TIP3    H164631   3.805   4.296  16.033  0.3884 -0.1838 -0.6249
14380TIP3    H264632   3.709   4.293  15.915  1.8315  0.4319 -1.8453
14381TIP3   OH264633   0.675   1.935   3.031  0.3002 -0.0799 -0.6857
14381TIP3    H164634   0.756   1.887   3.013  0.4332 -0.1626  0.0765
14381TIP3    H264635   0.606   1.869   3.022  0.4658 -0.3870  0.1736
14382TIP3   OH264636   6.175   2.969   5.831 -0.5209  0.3148  0.0746
14382TIP3    H164637   6.101   3.029   5.844  0.7670  1.7886  0.9679
14382TIP3    H264638   6.185   2.964   5.736 -1.2465  0.7511 -0.0398
14383TIP3   OH264639   3.964   4.873  15.057 -0.1299  0.2491 -0.1040
14383TIP3    H164640   4.057   4.866  15.081  0.4530  1.3264 -1.8955
14383TIP3    H264641   3.957   4.826  14.974 -0.9437  1.1100 -0.5372
14384TIP3   OH264642   6.813   2.226  13.356  0.6256 -0.0978 -0.2105
14384TIP3    H164643   6.736   2.185  13.317  0.2240  0.4243  0.0156
14384TIP3    H264644   6.827   2.305  13.304  1.2090 -0.3639 -0.4567
14385TIP3   OH264645   2.404   5.156   3.178  0.2635  0.0276 -0.7038
14385TIP3    H164646   2.460   5.222   3.220  0.2816 -1.0231  1.0564
14385TIP3    H264647   2.388   5.190   3.090  0.0122  2.5391  0.2136
14386TIP3   OH264648   6.114   2.746   3.451  0.5550 -0.0012 -0.0332
14386TIP3    H164649   6.185   2.730   3.388  0.4013 -1.0994  0.0526
14386TIP3    H264650   6.053   2.674   3.437  0.2115  0.0847  0.9455
14387TIP3   OH264651   6.090   5.448   5.618 -0.4761 -1.0944  0.2120
14387TIP3    H164652   6.129   5.467   5.533  1.0602 -0.0887  1.0912
14387TIP3    H264653   6.145   5.495   5.681 -1.6740 -1.6575  1.7535
14388TIP3   OH264654   0.141   5.299   5.633 -0.0941  0.6584  0.3250
14388TIP3    H164655   0.131   5.297   5.538 -0.2090  0.6237  0.3381
14388TIP3    H264656   0.061   5.340   5.665 -0.0748  0.6298  0.4106
14389TIP3   OH264657   1.385   1.021   1.630 -0.0144  0.0760  1.0941
14389TIP3    H164658   1.385   0.944   1.573 -1.0699  0.6356  0.3246
14389TIP3    H264659   1.303   1.065   1.612 -0.2213  0.4727  2.8028
14390TIP3   OH264660   6.173   1.908   1.084  0.0474 -0.3756 -0.7126
14390TIP3    H164661   6.092   1.921   1.134  1.0693  1.2766  0.6111
14390TIP3    H264662   6.225   1.849   1.138  1.5653  2.1932  0.7982
14391TIP3   OH264663   3.212   2.590  11.969 -0.2255  0.2005 -0.0280
14391TIP3    H164664   3.261   2.566  11.890  1.2441  0.2220  0.8370
14391TIP3    H264665   3.279   2.602  12.036 -1.4282  0.3225  1.2009
14392TIP3   OH264666   5.014   3.646  11.287  0.5184  0.6938  0.0125
14392TIP3    H164667   5.064   3.728  11.290 -0.5876  1.3627  0.9065
14392TIP3    H264668   5.076   3.582  11.252  1.2742  1.9868 -1.1028
14393TIP3   OH264669   0.479   1.915   5.204  0.1065  0.3224 -0.3619
14393TIP3    H164670   0.419   1.841   5.216 -0.2435  1.0200  3.0490
14393TIP3    H264671   0.563   1.884   5.239  0.4954  0.9335 -0.7246
14394TIP3   OH264672   3.078   6.537   6.611  0.1892  0.4221  0.1120
14394TIP3    H164673   3.081   6.445   6.640  0.1239  0.5717  0.6023
14394TIP3    H264674   3.160   6.574   6.643  0.4410  0.4174 -0.5099
14395TIP3   OH264675   2.628   4.737  12.713 -0.1202 -0.2767  0.5591
14395TIP3    H164676   2.535   4.717  12.701 -0.2532  0.5930  0.0848
14395TIP3    H264677   2.629   4.811  12.774  0.2988 -0.7840  1.1755
14396TIP3   OH264678   0.933   0.858   0.888 -0.2591  0.2014 -0.6720
14396TIP3    H164679   0.935   0.855   0.984 -1.5555 -0.7696 -0.6565
14396TIP3    H264680   1.003   0.919   0.865 -0.0563  0.6070  0.8995
14397TIP3   OH264681   3.300   0.368   5.579  0.5263 -0.6981  0.1186
14397TIP3    H164682   3.212   0.362   5.614  0.9102 -0.4414  1.1754
14397TIP3    H264683   3.350   0.303   5.628  1.6235  1.3460  1.8851
14398TIP3   OH264684   5.511   6.429  11.306  0.1440 -0.2060 -0.0905
14398TIP3    H164685   5.470   6.494  11.363 -0.1938 -0.0705 -0.4852
14398TIP3    H264686   5.539   6.360  11.366 -0.5281 -0.2331  0.1991
14399TIP3   OH264687   6.002   2.425  13.370 -0.3150  0.4660 -0.2730
14399TIP3    H164688   6.086   2.388  13.343 -0.5680  0.0888 -0.5544
14399TIP3    H264689   5.940   2.393  13.304 -0.9992 -0.7054  0.8873
14400TIP3   OH264690   2.924   0.624   3.961 -0.5421  0.2440 -0.0386
14400TIP3    H164691   2.834   0.596   3.979 -0.1043 -0.8810  0.5218
14400TIP3    H264692   2.952   0.669   4.041 -0.7273  0.9178 -0.3521
14401TIP3   OH264693   2.700   0.178   0.965 -1.0937 -0.6391 -0.4426
14401TIP3    H164694   2.688   0.119   1.040  0.9698  0.3289  0.7140
14401TIP3    H264695   2.753   0.128   0.903 -0.3716 -0.4507  0.0123
14402TIP3   OH264696   4.652   6.567   3.629  0.7348  0.2804  0.0277
14402TIP3    H164697   4.565   6.532   3.610  0.6776 -0.2014  1.1079
14402TIP3    H264698   4.684   6.513   3.701  1.5615  1.0375  0.2417
14403TIP3   OH264699   3.772   1.908  13.790 -0.2742 -0.5086  0.5573
14403TIP3    H164700   3.743   1.819  13.770 -1.3070 -0.4375  1.6025
14403TIP3    H264701   3.846   1.895  13.850 -2.0549 -0.7284  2.8699
14404TIP3   OH264702   0.427   2.345  10.872  0.8327  0.2949  0.6452
14404TIP3    H164703   0.385   2.424  10.837  0.2069 -0.0197  0.6759
14404TIP3    H264704   0.467   2.304  10.795  0.0961 -0.0057  0.4129
14405TIP3   OH264705   1.746   4.523   3.920  0.3153  0.2665  0.2356
14405TIP3    H164706   1.743   4.486   4.008  1.7632  0.3576  0.3605
14405TIP3    H264707   1.804   4.464   3.872  2.5081  2.1439  0.3882
14406TIP3   OH264708   0.931   6.625   3.527 -0.2280  0.3384  0.0983
14406TIP3    H164709   0.849   6.576   3.534 -0.0236 -0.0942 -0.4936
14406TIP3    H264710   0.998   6.557   3.519  0.1093  0.7083 -0.2167
14407TIP3   OH264711   5.894   2.650  13.470 -0.7884  0.7864  0.6666
14407TIP3    H164712   5.933   2.571  13.434  0.3565  1.9804 -0.8711
14407TIP3    H264713   5.943   2.667  13.550  0.9820  1.4795 -0.5025
14408TIP3   OH264714   1.667   5.972   0.306  0.4693  0.1184 -0.3799
14408TIP3    H164715   1.653   6.047   0.364  0.5246  1.6875 -2.2786
14408TIP3    H264716   1.681   5.898   0.365  0.3291  1.5728  1.5805
14409TIP3   OH264717   1.214   3.938  14.817  0.2998 -0.1324  0.5225
14409TIP3    H164718   1.218   3.859  14.764  0.6104  0.3854 -0.2408
14409TIP3    H264719   1.137   3.985  14.785  1.2235  0.8164 -0.4220
14410TIP3   OH264720   5.618   6.330   2.414 -0.1612  0.1717  0.5646
14410TIP3    H164721   5.663   6.408   2.381  1.7939 -1.8659 -2.1873
14410TIP3    H264722   5.689   6.275   2.449 -0.9597 -1.5716 -0.3990
14411TIP3   OH264723   4.136   5.241  13.271 -0.0931  0.3876  0.1124
14411TIP3    H164724   4.185   5.286  13.340 -0.7639  0.8724  0.2861
14411TIP3    H264725   4.146   5.298  13.194 -0.1883  0.3757  0.0903
14412TIP3   OH264726   1.819   1.374   4.330 -0.2993 -0.5390  0.6998
14412TIP3    H164727   1.801   1.308   4.263 -0.0140  0.2241 -0.1598
14412TIP3    H264728   1.913   1.368   4.345 -0.1425  0.1237  0.0897
14413TIP3   OH264729   0.188   5.971  12.537  0.7347  0.3408 -0.1460
14413TIP3    H164730   0.265   5.917  12.520 -0.8083 -1.1106 -3.3555
14413TIP3    H264731   0.178   5.969  12.633  5.6632  2.2431  0.6823
14414TIP3   OH264732   1.598   4.797   5.435 -0.0348 -0.6859  0.1674
14414TIP3    H164733   1.518   4.744   5.434 -0.2523 -0.3647  0.1942
14414TIP3    H264734   1.612   4.821   5.343 -1.8646  2.0308  0.4705
14415TIP3   OH264735   2.691   4.137  13.756 -0.4330 -0.3705 -0.4151
14415TIP3    H164736   2.664   4.150  13.666 -1.3393 -0.3274 -0.1514
14415TIP3    H264737   2.609   4.124  13.804 -0.0661  1.0160  0.6401
14416TIP3   OH264738   4.636   6.000   2.597  0.2419  0.9806 -0.2819
14416TIP3    H164739   4.694   5.965   2.664 -1.2645 -0.4273  0.3630
14416TIP3    H264740   4.610   6.086   2.631 -1.5074 -0.2324  1.6643
14417TIP3   OH264741   5.294   2.720  14.252  0.1534  0.1234 -0.0419
14417TIP3    H164742   5.329   2.709  14.340  0.4378  0.4137 -0.1171
14417TIP3    H264743   5.370   2.742  14.198  0.0760 -0.6506 -0.4769
14418TIP3   OH264744   1.673   5.623   1.367  0.2688 -0.1253 -0.0877
14418TIP3    H164745   1.707   5.542   1.329 -3.1230 -1.4753 -0.6800
14418TIP3    H264746   1.612   5.592   1.435  0.1452  2.0130  0.8322
14419TIP3   OH264747   0.529   1.603   3.633 -0.3872  0.1406  0.3037
14419TIP3    H164748   0.490   1.641   3.554  0.9416  2.2491  0.5933
14419TIP3    H264749   0.472   1.633   3.705 -1.9419 -2.2633  0.1841
14420TIP3   OH264750   5.247   0.799   4.920 -0.8579  0.6233 -0.0845
14420TIP3    H164751   5.302   0.828   4.992  0.4570  1.9003 -1.5344
14420TIP3    H264752   5.267   0.706   4.910  1.5793  1.1877 -0.9854
14421TIP3   OH264753   3.826   3.061   4.090 -0.1018  0.7786  0.0179
14421TIP3    H164754   3.828   3.140   4.036 -0.0132  0.0807 -1.0459
14421TIP3    H264755   3.788   2.994   4.033  0.2989 -0.0714  0.7181
14422TIP3   OH264756   1.163   3.779   2.647  0.1174  0.3447  0.6431
14422TIP3    H164757   1.127   3.867   2.647  0.6544  0.5734 -0.5661
14422TIP3    H264758   1.093   3.725   2.684 -0.9165  1.0008 -0.3151
14423TIP3   OH264759   2.729   6.114   1.025 -0.6008  0.2527  0.3605
14423TIP3    H164760   2.815   6.077   1.048 -0.9441  0.3051  1.8304
14423TIP3    H264761   2.678   6.039   0.995 -0.2336  0.1289  0.0269
14424TIP3   OH264762   2.621   2.821  17.027 -0.3578  0.1165  0.2196
14424TIP3    H164763   2.548   2.860  17.074  0.0751  1.7380 -0.3679
14424TIP3    H264764   2.684   2.796  17.095 -0.5315  0.7257  0.6029
14425TIP3   OH264765   6.647   2.405  14.361 -0.3113  0.1950  0.3964
14425TIP3    H164766   6.639   2.495  14.391  1.6453  0.8428 -0.8544
14425TIP3    H264767   6.718   2.407  14.297 -1.2094 -1.9677 -0.7761
14426TIP3   OH264768   3.507   3.288   2.793 -0.1712  0.4074 -0.1920
14426TIP3    H164769   3.582   3.268   2.737 -1.3540  0.7130 -1.9847
14426TIP3    H264770   3.431   3.285   2.733 -1.7484 -1.0325  1.7536
14427TIP3   OH264771   4.788   3.754  15.446  0.1624 -0.7852 -0.3195
14427TIP3    H164772   4.763   3.784  15.533 -0.7175 -0.0565 -0.8122
14427TIP3    H264773   4.769   3.660  15.447  0.8912 -0.9375  0.5143
14428TIP3   OH264774   1.534   4.428   1.039 -0.6559  0.0831 -0.5838
14428TIP3    H164775   1.560   4.388   1.122  0.0202  0.7866 -0.4413
14428TIP3    H264776   1.481   4.504   1.064 -0.6038  0.1930 -0.8022
14429TIP3   OH264777   5.151   3.702  15.965  0.2505  0.1624 -0.6534
14429TIP3    H164778   5.224   3.641  15.949  0.0316 -0.3130  0.1069
14429TIP3    H264779   5.110   3.670  16.045  1.0520  2.2107  0.6462
14430TIP3   OH264780   4.087   4.941  14.134 -0.0450 -0.2731 -0.3647
14430TIP3    H164781   4.138   5.021  14.147 -0.2897 -0.2274  0.3697
14430TIP3    H264782   4.115   4.909  14.048 -0.7584  1.1953 -1.1852
14431TIP3   OH264783   0.486   3.035   0.346  0.5091 -0.5491 -0.3324
14431TIP3    H164784   0.551   3.068   0.283  1.3248 -0.2399  0.6552
14431TIP3    H264785   0.522   3.055   0.432 -0.2804 -1.5627  0.2670
14432TIP3   OH264786   1.670   0.576  16.679 -0.1873 -0.2366  0.2002
14432TIP3    H164787   1.696   0.543  16.766  0.1053 -0.3550  0.0712
14432TIP3    H264788   1.640   0.665  16.695 -0.3362 -0.3296  0.4549
14433TIP3   OH264789   1.979   3.865  11.424  0.1619  0.3007  0.0099
14433TIP3    H164790   2.003   3.957  11.417 -1.1810  0.6986  0.2846
14433TIP3    H264791   2.060   3.817  11.407  0.9083  1.5306  0.0094
14434TIP3   OH264792   4.043   5.319   0.782 -0.0775 -0.6987 -0.0693
14434TIP3    H164793   3.979   5.278   0.840 -0.9140  0.1430 -0.3736
14434TIP3    H264794   4.126   5.309   0.828 -0.3583 -2.0870  0.1891
14435TIP3   OH264795   6.635   6.524   4.515  0.2591  0.1547 -0.3597
14435TIP3    H164796   6.636   6.465   4.590  1.3839 -1.6873 -1.7158
14435TIP3    H264797   6.713   6.579   4.525 -0.1384  0.6074  0.3010
14436TIP3   OH264798   6.010   0.207  15.991 -0.2730 -0.8425  0.2067
14436TIP3    H164799   6.075   0.170  15.931 -0.5189 -1.5705  0.3845
14436TIP3    H264800   6.030   0.169  16.076  0.4771  0.6808  0.7467
14437TIP3   OH264801   2.362   1.808   3.264  0.1480 -0.0405  0.1651
14437TIP3    H164802   2.273   1.806   3.228 -0.3512  0.6894  1.3223
14437TIP3    H264803   2.383   1.716   3.281  0.0877 -0.3294 -1.2038
14438TIP3   OH264804   0.295   5.042   1.309  0.3677  0.2681  0.0401
14438TIP3    H164805   0.284   5.049   1.403  1.1011  1.1485  0.0841
14438TIP3    H264806   0.223   5.092   1.272  0.4886  0.5346  0.1603
14439TIP3   OH264807   4.415   3.818  15.075 -0.0937  0.3284 -0.0773
14439TIP3    H164808   4.490   3.758  15.068 -0.1697  0.2538 -0.2398
14439TIP3    H264809   4.417   3.846  15.167  0.1941  0.4025 -0.1026
14440TIP3   OH264810   6.509   2.932  16.382 -0.0146  0.2979 -0.2328
14440TIP3    H164811   6.597   2.899  16.399  0.5028  1.9571  0.4786
14440TIP3    H264812   6.476   2.959  16.467 -1.8168 -1.6001 -0.2476
14441TIP3   OH264813   3.236   4.044   3.617  0.4856 -1.0756 -0.0631
14441TIP3    H164814   3.220   4.132   3.653 -1.5765 -2.0035  1.4835
14441TIP3    H264815   3.187   3.986   3.674  1.1634 -3.1892 -1.5267
14442TIP3   OH264816   3.706   1.050  16.716  0.0047 -0.6944 -0.1267
14442TIP3    H164817   3.613   1.054  16.694  0.1023 -1.9235 -0.8281
14442TIP3    H264818   3.724   1.135  16.757 -2.0830 -1.4017  2.6073
14443TIP3   OH264819   3.667   6.193   1.207  0.4438 -0.1300  0.1528
14443TIP3    H164820   3.685   6.190   1.113  0.7570  1.3337  0.1442
14443TIP3    H264821   3.650   6.102   1.231  2.6818 -0.8942 -0.8750
14444TIP3   OH264822   0.527   0.088  11.233 -0.0062  0.1769  0.0781
14444TIP3    H164823   0.557   0.174  11.262  0.1019 -0.3522  1.6331
14444TIP3    H264824   0.593   0.059  11.170  1.0756  0.3575  1.1080
14445TIP3   OH264825   1.855   6.306  12.699 -0.0680  0.4611  0.4343
14445TIP3    H164826   1.910   6.335  12.627  1.6505 -1.0707  1.0513
14445TIP3    H264827   1.842   6.384  12.753 -0.6646  1.4146 -1.0359
14446TIP3   OH264828   2.390   2.196  11.949 -0.9602 -0.1835 -0.2274
14446TIP3    H164829   2.360   2.142  12.022  0.1972  0.9074  1.1037
14446TIP3    H264830   2.328   2.268  11.945  0.3842  1.1252  1.3827
14447TIP3   OH264831   1.095   6.423   0.071 -0.0607  0.0196 -0.0394
14447TIP3    H164832   1.007   6.416   0.108 -0.9756 -0.5038 -2.1402
14447TIP3    H264833   1.123   6.332   0.058  0.9858  0.1689  0.9341
14448TIP3   OH264834   2.285   0.861  16.825  0.2770 -0.2086  0.2340
14448TIP3    H164835   2.241   0.895  16.903 -0.1012 -0.0410 -0.0471
14448TIP3    H264836   2.270   0.767  16.827  1.7391 -0.4526  1.2746
14449TIP3   OH264837   3.338   3.229   5.699  0.2297  0.0272 -0.6314
14449TIP3    H164838   3.295   3.195   5.621 -1.1506 -0.3225  0.2542
14449TIP3    H264839   3.339   3.324   5.687  2.1458 -0.1211 -2.1118
14450TIP3   OH264840   4.868   0.038  14.115 -0.0737 -0.2679  0.3798
14450TIP3    H164841   4.838  -0.052  14.130 -2.2360  0.0466 -1.4121
14450TIP3    H264842   4.917   0.033  14.033  1.8146 -0.1447  1.4552
14451TIP3   OH264843   2.642   0.296   4.945  0.7856 -0.1501  0.4080
14451TIP3    H164844   2.596   0.376   4.918  0.3377 -0.7117 -0.5277
14451TIP3    H264845   2.653   0.306   5.040  2.0977  1.7156  0.1121
14452TIP3   OH264846   0.489   6.779   6.084  0.1969  0.1681  0.0370
14452TIP3    H164847   0.478   6.820   5.998 -1.6155  0.3994  0.3436
14452TIP3    H264848   0.428   6.705   6.084 -0.3002  0.5412  1.3339
14453TIP3   OH264849   5.287   6.102   1.668 -0.0922  0.6367 -0.0114
14453TIP3    H164850   5.317   6.174   1.724  0.3939  1.3651 -1.1696
14453TIP3    H264851   5.193   6.117   1.658 -0.1955  0.4543  0.6661
14454TIP3   OH264852   6.664   5.303   0.239  0.2343  0.4627 -0.2274
14454TIP3    H164853   6.583   5.252   0.247  0.4903  0.1893  0.7643
14454TIP3    H264854   6.698   5.280   0.152 -0.5682  0.3175 -0.5110
14455TIP3   OH264855   6.827   1.643  13.120  0.4914  0.3852 -0.4174
14455TIP3    H164856   6.830   1.734  13.091  0.1649  1.3937  2.4197
14455TIP3    H264857   6.911   1.628  13.163 -0.3381  0.1752  1.2269
14456TIP3   OH264858   0.082   6.116   0.971  0.2274  0.1443  0.4350
14456TIP3    H164859   0.078   6.114   0.876 -0.8608 -1.8697  0.4765
14456TIP3    H264860   0.116   6.203   0.992 -1.2115  1.3152 -1.7356
14457TIP3   OH264861   1.617   0.000  16.699 -0.5952 -0.4976  0.4741
14457TIP3    H164862   1.526   0.030  16.690 -0.6729 -0.9789 -0.4040
14457TIP3    H264863   1.664   0.076  16.733 -1.2572 -0.1297  0.5820
14458TIP3   OH264864   4.307   3.375   0.836 -0.0603  0.3194  0.5286
14458TIP3    H164865   4.279   3.438   0.902 -0.1246 -0.0527  0.8570
14458TIP3    H264866   4.396   3.402   0.813  0.4505 -0.2921  1.6880
14459TIP3   OH264867   3.314   2.115  10.979 -0.1679  0.0664 -0.6089
14459TIP3    H164868   3.268   2.199  10.978 -0.4835 -0.0939  0.1881
14459TIP3    H264869   3.406   2.139  10.991 -0.3658  0.2742  0.6885
14460TIP3   OH264870   2.959   4.905   4.150  0.4450  0.4332  0.3644
14460TIP3    H164871   2.880   4.851   4.160  0.9473 -0.4017  0.0086
14460TIP3    H264872   2.931   4.980   4.097  0.1996 -0.6416 -1.1031
14461TIP3   OH264873   5.082   6.041   5.542  0.5618  0.2963  0.0683
14461TIP3    H164874   5.086   6.070   5.451 -0.7224 -0.3168 -0.2031
14461TIP3    H264875   5.097   5.947   5.538 -1.0964  0.0031  0.2995
14462TIP3   OH264876   1.170   6.429  13.292 -0.1054  0.0155 -0.8045
14462TIP3    H164877   1.155   6.348  13.340 -0.3917  0.4499 -0.1443
14462TIP3    H264878   1.265   6.438  13.288 -0.0574 -0.6705 -1.4387
14463TIP3   OH264879   3.222   3.436  13.482 -0.2215 -0.1031  0.2729
14463TIP3    H164880   3.213   3.372  13.553  0.6173 -0.3693  0.1582
14463TIP3    H264881   3.196   3.519  13.521  0.6296 -0.1706  1.0345
14464TIP3   OH264882   3.974   0.329  15.379  0.3117 -0.1836  0.6525
14464TIP3    H164883   4.055   0.370  15.350 -0.2432  1.1283  0.8983
14464TIP3    H264884   4.001   0.243  15.413  1.6790  0.4750  1.2979
14465TIP3   OH264885   2.208   1.490   0.228 -1.2814 -0.1267  0.3360
14465TIP3    H164886   2.291   1.489   0.180 -0.8863  0.1029  0.9940
14465TIP3    H264887   2.147   1.444   0.172 -0.7198 -0.2462 -0.1891
14466TIP3   OH264888   2.294   3.435   3.790  0.4658 -1.1777 -0.3556
14466TIP3    H164889   2.333   3.347   3.786 -0.4520 -1.6231  0.2052
14466TIP3    H264890   2.365   3.492   3.819  1.1983 -1.6488 -1.1775
14467TIP3   OH264891   1.561   1.578   2.235 -0.1461  0.0910 -0.6609
14467TIP3    H164892   1.601   1.644   2.292 -0.6750 -0.7233  0.7061
14467TIP3    H264893   1.522   1.515   2.295 -0.8024 -0.7733 -1.9433
14468TIP3   OH264894   3.886   1.626   2.096  0.1498 -0.7235 -0.2643
14468TIP3    H164895   3.869   1.538   2.062 -0.5779 -1.2545  1.3860
14468TIP3    H264896   3.962   1.616   2.152  1.3247  0.1438 -1.6281
14469TIP3   OH264897   4.412   0.400   4.435 -0.0072 -0.5443 -0.3753
14469TIP3    H164898   4.348   0.410   4.365 -2.0628  1.0534  1.5506
14469TIP3    H264899   4.400   0.310   4.466  1.8831 -1.7447 -2.7911
14470TIP3   OH264900   6.132   4.555   1.832  0.5485 -0.8439 -0.0515
14470TIP3    H164901   6.144   4.631   1.775  0.2398  0.0279  1.0056
14470TIP3    H264902   6.220   4.532   1.860  0.6938 -1.2274 -0.8004
14471TIP3   OH264903   2.114   1.114   0.208 -0.5723 -0.2236  0.0664
14471TIP3    H164904   2.151   1.140   0.293  0.7199 -2.0696  0.1311
14471TIP3    H264905   2.190   1.083   0.158 -1.4098  0.2757 -1.5613
14472TIP3   OH264906   4.549   5.397  15.889 -0.0870 -0.5249  0.0003
14472TIP3    H164907   4.536   5.396  15.794  0.6901 -2.4789 -0.1238
14472TIP3    H264908   4.608   5.471  15.904  1.6705 -1.5963 -1.3431
14473TIP3   OH264909   1.718   3.296  11.989 -0.5129 -0.7442 -0.5192
14473TIP3    H164910   1.681   3.382  12.005  0.3223 -0.1540 -1.5966
14473TIP3    H264911   1.812   3.306  12.006 -0.5144 -1.6536  0.1202
14474TIP3   OH264912   1.146   5.954   2.427  0.1947  0.1203 -0.6506
14474TIP3    H164913   1.206   5.954   2.353 -0.7129 -0.2531 -1.4066
14474TIP3    H264914   1.077   5.892   2.403 -0.4373  0.4460  0.2375
14475TIP3   OH264915   3.709   4.323   1.213  0.0620  0.1869  0.3738
14475TIP3    H164916   3.799   4.341   1.186 -0.3345  2.6142  0.4683
14475TIP3    H264917   3.710   4.335   1.308 -0.8231  2.8963  0.1307
14476TIP3   OH264918   4.851   1.708  15.934  0.1767  0.3036  0.1922
14476TIP3    H164919   4.814   1.745  15.854 -2.1986  0.0324  1.0683
14476TIP3    H264920   4.912   1.641  15.904 -1.2585 -0.3519 -1.4307
14477TIP3   OH264921   0.858   4.882   2.821  0.1725 -0.5050  0.4368
14477TIP3    H164922   0.775   4.836   2.816 -0.2573  0.3090 -0.2975
14477TIP3    H264923   0.844   4.951   2.886 -0.1852  0.4768 -0.6456
14478TIP3   OH264924   2.736   2.017   5.553 -0.1759  0.4111 -0.1469
14478TIP3    H164925   2.822   2.053   5.531  0.7988 -2.3342 -1.3173
14478TIP3    H264926   2.685   2.026   5.473 -0.2843  0.1972 -0.1023
14479TIP3   OH264927   1.570   2.211   5.321  0.2321 -0.1867 -0.5024
14479TIP3    H164928   1.662   2.183   5.325  0.5753  0.9940  0.3445
14479TIP3    H264929   1.570   2.281   5.255 -0.1755 -0.5521 -0.8976
14480TIP3   OH264930   6.657   1.190   6.131 -0.7445  0.3344 -0.3324
14480TIP3    H164931   6.691   1.251   6.197  0.3947  1.3266 -1.7637
14480TIP3    H264932   6.615   1.245   6.066 -2.2089 -0.6581 -0.2812
14481TIP3   OH264933   5.487   6.240  15.010 -0.5695  0.6722 -0.3044
14481TIP3    H164934   5.476   6.183  14.934 -3.2909  1.1915 -0.3967
14481TIP3    H264935   5.484   6.328  14.974  2.2323  0.9835  0.0039
14482TIP3   OH264936   4.601   6.607   1.874 -0.0796 -0.1419  0.5752
14482TIP3    H164937   4.688   6.619   1.910 -0.0070 -0.3443  0.4664
14482TIP3    H264938   4.544   6.659   1.931  0.3677  1.6399 -0.5374
14483TIP3   OH264939   0.268   5.059  12.199 -0.5290 -0.0836  0.0402
14483TIP3    H164940   0.204   5.097  12.260 -1.3615 -0.4895 -0.5641
14483TIP3    H264941   0.324   5.133  12.174 -0.2563  0.1164  1.1709
14484TIP3   OH264942   1.797   2.567   2.386  0.0495  0.0701 -0.4221
14484TIP3    H164943   1.804   2.625   2.462  0.2294 -1.4432  0.7791
14484TIP3    H264944   1.852   2.607   2.319  0.2908  1.1851  0.4148
14485TIP3   OH264945   3.693   0.254   0.645  0.2799 -0.0560 -0.5288
14485TIP3    H164946   3.764   0.214   0.595  0.6114 -1.6708  1.1104
14485TIP3    H264947   3.613   0.220   0.604  0.4072  1.1334 -1.8696
14486TIP3   OH264948   5.715   4.822   0.688  0.1877 -0.6246  0.2719
14486TIP3    H164949   5.746   4.894   0.743  0.9647 -0.4828 -0.3376
14486TIP3    H264950   5.714   4.857   0.599 -0.8747 -0.9104  0.1538
14487TIP3   OH264951   3.093   6.461   3.549 -0.3349 -0.5090 -0.5452
14487TIP3    H164952   3.101   6.366   3.558  0.9535 -0.3832 -0.1274
14487TIP3    H264953   3.148   6.483   3.473 -0.6640 -0.1047 -0.6725
14488TIP3   OH264954   2.994   2.945   2.470 -0.1883 -0.2005 -0.2957
14488TIP3    H164955   3.010   2.872   2.530 -0.3043 -0.1294 -0.1761
14488TIP3    H264956   2.924   2.914   2.413 -0.5509 -0.0211  0.0435
14489TIP3   OH264957   3.281   2.279   4.999 -0.1206  0.3274  0.1559
14489TIP3    H164958   3.257   2.194   4.962 -0.7748  0.7285 -0.3572
14489TIP3    H264959   3.264   2.342   4.929 -0.7099  1.0166  0.8918
14490TIP3   OH264960   5.328   1.707  15.036  0.2722  0.0033  0.3179
14490TIP3    H164961   5.361   1.644  14.973  0.3835 -0.6994  1.0571
14490TIP3    H264962   5.373   1.685  15.118 -0.8453  0.0149  0.9655
14491TIP3   OH264963   0.397   6.764  11.392 -0.2803  0.4012  0.3788
14491TIP3    H164964   0.306   6.788  11.404 -0.2328  1.1112 -0.5503
14491TIP3    H264965   0.432   6.831  11.334  0.4945 -0.5878 -0.3320
14492TIP3   OH264966   3.539   6.019  10.888 -0.6655 -0.3121  0.3208
14492TIP3    H164967   3.498   5.954  10.945 -0.0840 -0.5412  0.4762
14492TIP3    H264968   3.490   6.013  10.806 -2.2857  0.8302  1.1475
14493TIP3   OH264969   0.481   3.311   4.878  0.0581 -0.1437 -0.4993
14493TIP3    H164970   0.487   3.358   4.961 -0.4106 -0.4761 -0.2729
14493TIP3    H264971   0.542   3.357   4.820  1.5812 -0.8332  0.4774
14494TIP3   OH264972   5.059   2.330  14.207 -0.1089  0.4493 -0.2040
14494TIP3    H164973   5.080   2.414  14.249  0.1241  0.5390 -0.4947
14494TIP3    H264974   5.137   2.277  14.218 -0.3119  0.2111  0.1146
14495TIP3   OH264975   1.005   5.904  16.857  0.0196 -0.7092  1.0239
14495TIP3    H164976   1.095   5.878  16.875  0.3795 -2.1088 -2.1215
14495TIP3    H264977   0.968   5.830  16.807 -1.6870  1.2759 -0.8818
14496TIP3   OH264978   6.042   5.328   3.349 -0.1622  0.1348  0.3374
14496TIP3    H164979   6.041   5.245   3.300 -0.2272  0.1409  0.3291
14496TIP3    H264980   6.030   5.395   3.282 -1.7898  0.0685  0.5335
14497TIP3   OH264981   5.047   2.556   5.250  0.1007 -0.2107 -0.7496
14497TIP3    H164982   5.092   2.484   5.294 -0.1620  0.0766  0.0011
14497TIP3    H264983   4.956   2.545   5.275  0.2538  1.1863  0.5222
14498TIP3   OH264984   0.070   3.654   1.922  0.0032 -0.5972  0.0277
14498TIP3    H164985   0.112   3.663   1.837  0.4641  0.7190  0.3717
14498TIP3    H264986  -0.022   3.639   1.903 -0.0459  0.5443 -0.7078
14499TIP3   OH264987   2.126   5.981   0.939  0.1688 -0.0516  0.0714
14499TIP3    H164988   2.128   5.912   0.872  0.0641  0.1936 -0.1859
14499TIP3    H264989   2.049   6.033   0.917  0.3263  0.2297  0.1885
14500TIP3   OH264990   4.132   0.444  13.588  0.6491 -0.6112  0.0157
14500TIP3    H164991   4.159   0.409  13.673 -0.5950 -0.5192  0.4564
14500TIP3    H264992   4.109   0.367  13.536 -0.1518 -0.5839  0.3154
14501TIP3   OH264993   1.992   6.003  15.357  0.4673  0.2671 -0.3429
14501TIP3    H164994   2.063   6.033  15.299  1.0534  0.5781  0.5174
14501TIP3    H264995   1.934   5.953  15.299  0.4707  1.4566 -1.4233
14502TIP3   OH264996   3.033   5.427  13.219  0.3548 -0.2111  0.3527
14502TIP3    H164997   3.097   5.375  13.269  0.5554  1.3796  1.8625
14502TIP3    H264998   3.062   5.518  13.231 -2.6292  0.6838  1.8292
14503TIP3   OH264999   6.615   2.727  12.563  0.3725 -0.4717  0.2525
14503TIP3    H165000   6.608   2.642  12.607 -0.1703 -0.0289  1.0352
14503TIP3    H265001   6.546   2.725  12.497 -0.1513 -0.3351  0.7928
14504TIP3   OH265002   0.037   6.135  15.128  0.3864  0.5690 -0.3925
14504TIP3    H165003   0.105   6.105  15.068  0.0341  1.7125 -1.4114
14504TIP3    H265004   0.003   6.055  15.168  1.0112 -0.1847 -1.3116
14505TIP3   OH265005   4.171   5.267   5.948 -0.2972 -0.7930  0.6749
14505TIP3    H165006   4.230   5.228   5.884  0.5562  0.6472  0.5367
14505TIP3    H265007   4.194   5.227   6.031  1.0508 -0.0953  0.6572
14506TIP3   OH265008   3.597   1.550   1.661 -0.3495  0.2976 -0.3105
14506TIP3    H165009   3.635   1.465   1.640 -0.8677 -0.2114  0.7687
14506TIP3    H265010   3.670   1.602   1.696  0.3680  0.9187 -2.5467
14507TIP3   OH265011   2.330   1.164  14.445 -0.0776  0.8038  0.1509
14507TIP3    H165012   2.256   1.104  14.455 -1.3505  2.3872  0.7153
14507TIP3    H265013   2.337   1.178  14.351  0.0844 -0.0190  0.0334
14508TIP3   OH265014   1.512   4.233  14.155 -0.2218  0.6110  0.1004
14508TIP3    H165015   1.549   4.163  14.101  0.2020  0.4792  0.5597
14508TIP3    H265016   1.439   4.268  14.103  0.9592  1.3297 -1.1186
14509TIP3   OH265017   0.889   5.402  13.671  0.1766  0.4463  0.6110
14509TIP3    H165018   0.797   5.376  13.677  0.3530  0.1083  2.6179
14509TIP3    H265019   0.909   5.439  13.756  1.7743  1.0025  0.0347
14510TIP3   OH265020   2.664   0.528   3.376  0.8231 -0.3171 -0.0127
14510TIP3    H165021   2.591   0.577   3.414  0.9201 -0.1552 -0.0334
14510TIP3    H265022   2.717   0.503   3.451  1.0242  0.0179 -0.0393
14511TIP3   OH265023   4.326   5.395  10.708  0.5189  0.1336 -0.0688
14511TIP3    H165024   4.404   5.344  10.683  1.6150  2.1013 -0.8703
14511TIP3    H265025   4.287   5.422  10.625  1.1505  2.2699  0.2612
14512TIP3   OH265026   5.617   6.059   1.849 -0.1599 -0.4902  0.4319
14512TIP3    H165027   5.629   6.129   1.785 -1.8667 -0.4039  0.1645
14512TIP3    H265028   5.700   6.057   1.898  1.0553 -0.3501 -1.5344
14513TIP3   OH265029   4.093   2.687  12.965  0.0122  0.1475  0.9632
14513TIP3    H165030   4.177   2.724  12.990 -0.8363  1.8054  1.5436
14513TIP3    H265031   4.044   2.678  13.047 -0.4539 -0.5883  0.6159
14514TIP3   OH265032   2.348   1.701  11.220 -0.3939 -0.1716  0.8378
14514TIP3    H165033   2.316   1.615  11.248 -1.3098  0.5009  1.9812
14514TIP3    H265034   2.286   1.729  11.154  1.6613 -1.6747 -1.9382
14515TIP3   OH265035   4.479   2.028   3.512  0.1598 -0.0999  0.1658
14515TIP3    H165036   4.387   2.041   3.535  0.1655  0.4328 -0.0969
14515TIP3    H265037   4.525   2.104   3.549  0.1463  0.8510 -1.6628
14516TIP3   OH265038   3.016   4.659   0.705  0.5072 -0.0545 -0.2277
14516TIP3    H165039   3.043   4.690   0.619 -0.6781  0.4571 -0.4359
14516TIP3    H265040   2.990   4.568   0.690  1.1076 -0.2340 -0.2251
14517TIP3   OH265041   5.656   3.498  13.984 -0.1317 -0.3980  0.1835
14517TIP3    H165042   5.610   3.550  13.919 -0.1910  0.3523  0.8184
14517TIP3    H265043   5.593   3.429  14.008 -0.0909 -0.7048 -0.5789
14518TIP3   OH265044   3.652   6.491  15.290 -0.0948  0.2906 -0.1660
14518TIP3    H165045   3.609   6.569  15.256 -0.2907  0.2275 -0.0649
14518TIP3    H265046   3.604   6.418  15.252 -0.0755  0.2202 -0.0582
14519TIP3   OH265047   1.382   4.276   4.235 -0.5168  0.4002  0.4623
14519TIP3    H165048   1.443   4.311   4.170 -1.5813  0.2991 -0.6178
14519TIP3    H265049   1.412   4.314   4.318  2.0085 -0.9291  0.2683
14520TIP3   OH265050   5.057   2.395  10.421 -0.2316  0.1504  0.3139
14520TIP3    H165051   5.110   2.320  10.449  1.4826  0.8342 -0.9176
14520TIP3    H265052   5.116   2.470  10.430 -1.2353  1.0589 -0.4587
14521TIP3   OH265053   6.463   5.031   4.087  0.0745 -0.5992  0.1744
14521TIP3    H165054   6.483   5.045   4.179 -2.3990  1.2101  0.5150
14521TIP3    H265055   6.372   5.003   4.085  0.2498 -1.2468 -1.7205
14522TIP3   OH265056   4.516   6.603  10.670  0.1059  0.2146  0.0132
14522TIP3    H165057   4.454   6.618  10.599 -3.1043  0.4160  2.6088
14522TIP3    H265058   4.525   6.688  10.712  0.8784 -0.1718  0.6627
14523TIP3   OH265059   0.254   6.350   0.514  0.0257 -0.1240  0.5050
14523TIP3    H165060   0.221   6.408   0.582 -3.0009  0.0689 -0.9497
14523TIP3    H265061   0.244   6.400   0.433  4.0123 -0.1469 -0.1716
14524TIP3   OH265062   5.381   3.865   0.461 -0.2027  0.4138 -0.1418
14524TIP3    H165063   5.388   3.934   0.527 -0.4465 -0.8215  1.2116
14524TIP3    H265064   5.436   3.794   0.495  0.3929  0.0748 -1.7206
14525TIP3   OH265065   4.869   2.107   4.077  0.2754  0.4067  0.7089
14525TIP3    H165066   4.957   2.079   4.102  1.1689  1.1940 -1.2951
14525TIP3    H265067   4.880   2.197   4.047 -1.3361  0.7160  0.9594
14526TIP3   OH265068   2.007   2.339  12.262  0.3501 -0.3693 -0.1667
14526TIP3    H165069   1.932   2.343  12.320  0.3194  0.4091 -0.2449
14526TIP3    H265070   2.074   2.391  12.306  0.4324 -0.0377 -0.6667
14527TIP3   OH265071   3.986   4.501   5.821  0.2126 -0.3103 -0.2382
14527TIP3    H165072   3.935   4.474   5.897 -0.8047  1.8846 -0.0805
14527TIP3    H265073   3.927   4.488   5.747 -0.8476  2.5381 -0.0227
14528TIP3   OH265074   3.912   2.940  13.052 -0.2941 -0.0609  0.0802
14528TIP3    H165075   3.831   2.987  13.073  0.0814  0.8925 -0.5493
14528TIP3    H265076   3.883   2.853  13.025 -0.9553 -0.5239  2.0790
14529TIP3   OH265077   2.750   0.347  12.214 -0.1434 -0.0943 -0.4764
14529TIP3    H165078   2.743   0.440  12.235 -2.1256 -0.2449 -0.2380
14529TIP3    H265079   2.697   0.336  12.135 -0.6278 -1.1428 -0.0299
14530TIP3   OH265080   5.374   5.647  13.449  0.5159 -0.3884 -0.1247
14530TIP3    H165081   5.284   5.653  13.416  0.4777 -0.0332  0.0444
14530TIP3    H265082   5.381   5.718  13.512  0.7862 -0.6751  0.1735
14531TIP3   OH265083   1.244   0.620  12.595 -0.2734 -0.3089  0.2661
14531TIP3    H165084   1.265   0.578  12.512  1.2984 -0.6103  0.7794
14531TIP3    H265085   1.329   0.651  12.627 -1.1314  1.6925  0.7499
14532TIP3   OH265086   2.961   0.539   5.986 -0.3907 -0.8303  0.0434
14532TIP3    H165087   2.971   0.622   5.941 -1.9259 -0.0786  0.9753
14532TIP3    H265088   2.930   0.563   6.074 -1.8400 -2.3988  0.0172
14533TIP3   OH265089   4.100   0.237   2.540 -0.1855 -0.2080  0.1700
14533TIP3    H165090   4.115   0.167   2.476 -1.5291 -0.1727 -0.2099
14533TIP3    H265091   4.023   0.208   2.589 -3.5725  2.8609 -2.8060
14534TIP3   OH265092   0.493   5.047  14.978 -0.5963  0.0438  0.3963
14534TIP3    H165093   0.417   5.022  14.926 -1.1056 -0.6059  1.4091
14534TIP3    H265094   0.461   5.050  15.068  0.1660  1.5127  0.6558
14535TIP3   OH265095   2.582   0.231  13.602 -0.9684 -0.1454 -0.1447
14535TIP3    H165096   2.591   0.324  13.625 -2.2754 -0.2399  0.8545
14535TIP3    H265097   2.560   0.233  13.508  1.4612  0.3896 -0.7784
14536TIP3   OH265098   6.287   1.147   0.647  0.1887  0.4235 -0.6162
14536TIP3    H165099   6.210   1.182   0.603  0.9138  0.7035 -1.7257
14536TIP3    H265100   6.281   1.052   0.633  0.6833  0.5468 -1.8495
14537TIP3   OH265101   4.841   4.091   1.745 -0.3058  0.7437  0.0422
14537TIP3    H165102   4.848   4.000   1.716  3.5880  0.6933  0.5754
14537TIP3    H265103   4.854   4.143   1.665  0.5810  0.7546  0.1857
14538TIP3   OH265104   0.339   5.905   6.392 -0.1578 -0.2549 -0.6803
14538TIP3    H165105   0.425   5.891   6.352  0.0802  2.8216 -1.5135
14538TIP3    H265106   0.298   5.819   6.392  1.9154 -1.3423 -2.6428
14539TIP3   OH265107   0.394   3.825  14.945 -0.6251  0.9330 -0.0703
14539TIP3    H165108   0.473   3.878  14.955  0.0947 -0.2432  0.7710
14539TIP3    H265109   0.355   3.855  14.864  1.2008  0.8904 -1.0176
14540TIP3   OH265110   2.374   2.053   6.166 -0.1713 -0.3891 -0.3424
14540TIP3    H165111   2.435   2.118   6.202  1.5637 -0.8108 -2.3505
14540TIP3    H265112   2.338   2.010   6.243  2.4761 -0.4708  0.9798
14541TIP3   OH265113   1.191   6.408  14.132  0.3352 -0.0989 -0.3707
14541TIP3    H165114   1.274   6.381  14.092  1.5019  0.3388  1.6233
14541TIP3    H265115   1.151   6.326  14.160  0.4785 -0.2577 -0.6198
14542TIP3   OH265116   4.613   4.848  13.764 -0.3551 -0.6923 -0.1656
14542TIP3    H165117   4.549   4.812  13.702  0.2836 -0.3466 -1.0607
14542TIP3    H265118   4.631   4.936  13.731  1.4654 -1.1979 -0.6619
14543TIP3   OH265119   5.672   3.137  17.036 -0.7747  0.0740 -0.3869
14543TIP3    H165120   5.597   3.175  17.081  1.3828  0.8934  2.9002
14543TIP3    H265121   5.731   3.211  17.021  0.9983 -1.0431  0.7061
14544TIP3   OH265122   6.553   1.602   3.017 -0.7332  0.0883  0.6298
14544TIP3    H165123   6.483   1.659   2.985 -1.3805 -0.1550  1.5581
14544TIP3    H265124   6.589   1.562   2.938 -1.9811 -0.1596  0.1528
14545TIP3   OH265125   5.581   0.680  14.028  0.0542  0.2501 -0.3862
14545TIP3    H165126   5.633   0.654  13.952  0.7708 -0.6489  0.3758
14545TIP3    H265127   5.630   0.646  14.103 -1.7046 -0.7245  0.3690
14546TIP3   OH265128   3.236   3.592   4.853  0.6256  0.5241  1.2067
14546TIP3    H165129   3.326   3.616   4.876  0.6387  0.4204  1.2632
14546TIP3    H265130   3.229   3.610   4.760  1.6340 -2.3381  0.4945
14547TIP3   OH265131   6.583   6.090  11.255  0.1468  0.0459 -0.2935
14547TIP3    H165132   6.658   6.080  11.315  1.2329  0.1432 -1.5866
14547TIP3    H265133   6.591   6.180  11.223 -0.7095  0.1482 -0.2218
14548TIP3   OH265134   2.797   6.575   2.047  0.0734  0.0286 -1.0869
14548TIP3    H165135   2.733   6.533   1.990  0.4276 -0.6684 -0.9849
14548TIP3    H265136   2.880   6.565   2.001  0.3677 -0.5684 -0.4436
14549TIP3   OH265137   1.254   1.085  13.411 -0.0387  0.1055 -0.2667
14549TIP3    H165138   1.190   1.101  13.479  1.9142  1.8679  1.2904
14549TIP3    H265139   1.222   1.008  13.365 -3.2105  0.8952  0.4055
14550TIP3   OH265140   2.823   0.762  15.444  0.2563 -0.0620 -0.1677
14550TIP3    H165141   2.852   0.819  15.373 -0.3946  0.2527 -0.1875
14550TIP3    H265142   2.893   0.769  15.510  0.7645 -0.2017 -0.6856
14551TIP3   OH265143   4.871   3.858  14.357  0.1254 -0.2106 -0.2435
14551TIP3    H165144   4.780   3.844  14.331 -0.1078  1.8825 -0.7201
14551TIP3    H265145   4.875   3.949  14.383  2.1981 -0.1185 -0.6780
14552TIP3   OH265146   5.061   0.213  15.728  0.1505  0.2941 -0.5975
14552TIP3    H165147   4.967   0.195  15.734 -0.0923  1.8937  1.9402
14552TIP3    H265148   5.096   0.185  15.813  1.1455  3.6439  0.2436
14553TIP3   OH265149   0.193   1.363   3.227 -0.2019  0.0233  0.1499
14553TIP3    H165150   0.213   1.434   3.288  0.9749 -0.4880  0.3912
14553TIP3    H265151   0.158   1.293   3.281 -1.0389  0.2898 -0.0408
14554TIP3   OH265152   5.099   5.567  14.215 -0.0851  0.2587 -0.2509
14554TIP3    H165153   5.150   5.630  14.163  0.4072  0.2936  0.2675
14554TIP3    H265154   5.103   5.486  14.164 -0.7152  0.6316 -0.9196
14555TIP3   OH265155   5.680   2.979   0.179  0.5691  0.4676 -0.0387
14555TIP3    H165156   5.666   2.994   0.085  1.8560 -0.2478 -0.3743
14555TIP3    H265157   5.749   3.040   0.203  1.2739 -0.3494  0.0777
14556TIP3   OH265158   5.201   6.392  11.988 -0.2956 -0.6445 -0.2284
14556TIP3    H165159   5.269   6.458  11.996  1.1432 -2.1527  0.7533
14556TIP3    H265160   5.241   6.312  12.025 -1.4718 -2.3926 -2.4648
14557TIP3   OH265161   2.401   5.123   5.465  0.5554 -0.0260 -0.3179
14557TIP3    H165162   2.376   5.045   5.416 -0.4524  1.5797 -2.5551
14557TIP3    H265163   2.342   5.124   5.540  0.6452 -1.4288 -0.2095
14558TIP3   OH265164   4.647   1.646  12.399 -0.2454 -0.0380  0.4101
14558TIP3    H165165   4.552   1.633  12.404 -0.2879 -1.3072 -1.9175
14558TIP3    H265166   4.658   1.722  12.343  0.1413  0.6833  1.4344
14559TIP3   OH265167   5.048   6.070  14.239  0.5550  0.5048  0.1619
14559TIP3    H165168   4.986   6.079  14.311  1.7204  0.1355  1.2594
14559TIP3    H265169   4.994   6.068  14.161 -0.8656 -0.5867  1.1158
14560TIP3   OH265170   4.904   3.373  14.784 -0.0159  0.1269 -0.2228
14560TIP3    H165171   4.937   3.287  14.757  1.0976  0.8173 -1.1678
14560TIP3    H265172   4.893   3.421  14.702 -2.2064  0.3825  0.1518
14561TIP3   OH265173   3.984   6.651  12.854  0.2639 -0.5556 -0.1435
14561TIP3    H165174   3.955   6.709  12.925 -1.5942  0.5567 -1.7117
14561TIP3    H265175   4.043   6.704  12.801  1.3246 -1.2519  0.3028
14562TIP3   OH265176   1.516   5.587  16.303 -0.1264  0.6897  0.6541
14562TIP3    H165177   1.551   5.672  16.275 -1.7585  1.5564  1.1417
14562TIP3    H265178   1.489   5.601  16.394 -1.2454 -0.0765  0.4577
14563TIP3   OH265179   5.434   4.072   6.752  0.1356 -0.1708 -0.2730
14563TIP3    H165180   5.402   3.982   6.748  0.8657 -0.5379  1.2343
14563TIP3    H265181   5.373   4.117   6.811 -1.0904  0.7574 -2.1525
14564TIP3   OH265182   4.334   3.271  13.632  0.2194  1.0172  0.4209
14564TIP3    H165183   4.245   3.292  13.661 -0.6650  0.2060 -1.5001
14564TIP3    H265184   4.366   3.353  13.593 -0.6854  0.6779 -1.1220
14565TIP3   OH265185   3.989   6.568  14.777 -0.5524 -0.1330 -0.6850
14565TIP3    H165186   3.997   6.658  14.809  0.6386 -0.3065 -0.4499
14565TIP3    H265187   4.055   6.519  14.827  0.9163 -0.5524 -2.9192
14566TIP3   OH265188   2.525   4.067   2.003 -0.3185  0.1881 -0.8570
14566TIP3    H165189   2.592   4.135   2.000 -1.5817  1.5139 -0.2740
14566TIP3    H265190   2.553   4.002   1.939  2.5531 -0.3023  0.7440
14567TIP3   OH265191   6.632   3.554   0.567  0.0751  0.3474 -0.0783
14567TIP3    H165192   6.710   3.595   0.532 -0.0367 -1.0889 -2.1384
14567TIP3    H265193   6.564   3.622   0.561  0.4938  0.6899 -0.9690
14568TIP3   OH265194   5.203   4.723   1.252 -0.1520 -0.2625  0.4932
14568TIP3    H165195   5.249   4.779   1.314  0.0223  2.8182 -2.1406
14568TIP3    H265196   5.273   4.674   1.208  0.3794  1.5741 -0.8571
14569TIP3   OH265197   6.231   1.330  14.379  0.0445  0.5354 -0.0921
14569TIP3    H165198   6.249   1.372  14.295  1.0593  0.8200  0.2529
14569TIP3    H265199   6.315   1.334  14.426  0.1586 -1.7236  0.0201
14570TIP3   OH265200   2.604   1.667   4.543 -0.6762  0.2888  0.1326
14570TIP3    H165201   2.558   1.677   4.627 -0.8151 -1.8147  0.3595
14570TIP3    H265202   2.693   1.697   4.561 -0.6516 -0.3088  1.1129
14571TIP3   OH265203   0.786   4.236  14.816  0.0803  0.4795  0.3630
14571TIP3    H165204   0.729   4.207  14.886 -0.7530  0.5895 -0.2497
14571TIP3    H265205   0.839   4.306  14.855  0.0941  0.0907  1.0515
14572TIP3   OH265206   2.237   0.524  16.348 -0.9067 -0.0279  0.0823
14572TIP3    H165207   2.288   0.455  16.391  0.7166  1.5580  0.8380
14572TIP3    H265208   2.251   0.509  16.255  1.0783  0.3762  0.2565
14573TIP3   OH265209   6.408   4.385  12.036  0.4008  0.2647 -0.7714
14573TIP3    H165210   6.479   4.415  12.092 -0.7247  1.5066  0.0577
14573TIP3    H265211   6.389   4.296  12.066  1.3468  0.0636 -0.7588
14574TIP3   OH265212   6.683   4.177   3.936 -0.0090 -0.1008  0.8912
14574TIP3    H165213   6.687   4.270   3.912  0.3232 -0.7451 -1.8504
14574TIP3    H265214   6.614   4.141   3.880  1.1102 -1.8620  0.5718
14575TIP3   OH265215   6.019   5.912   0.164 -0.7825  0.7170 -0.8454
14575TIP3    H165216   5.979   5.877   0.244 -0.5216 -0.7583 -1.3467
14575TIP3    H265217   6.052   5.998   0.190  1.6957 -0.7880  1.3823
14576TIP3   OH265218   1.145   3.991  12.215  0.3058 -1.0792 -0.0305
14576TIP3    H165219   1.074   4.054  12.199 -0.2719 -1.8097 -0.4253
14576TIP3    H265220   1.139   3.971  12.308  0.4407 -0.6201  0.0812
14577TIP3   OH265221   5.354   1.756   0.480 -0.2043  0.0704  0.4795
14577TIP3    H165222   5.412   1.684   0.504  2.4732 -0.3941 -5.5287
14577TIP3    H265223   5.394   1.834   0.519  2.4084 -0.7340 -0.3996
14578TIP3   OH265224   4.840   2.650   4.603 -0.1551 -0.6346 -0.4254
14578TIP3    H165225   4.926   2.690   4.586 -0.4470  0.1020 -0.2339
14578TIP3    H265226   4.811   2.691   4.685  0.0204 -2.0866  0.4009
14579TIP3   OH265227   5.348   2.123  16.575  0.3027  0.1183 -0.1346
14579TIP3    H165228   5.309   2.198  16.530 -0.3951  1.1470  2.0467
14579TIP3    H265229   5.442   2.140  16.572  0.1407  1.1753  0.4702
14580TIP3   OH265230   1.828   2.360   2.944  0.6181  0.4387 -0.3784
14580TIP3    H165231   1.819   2.444   2.900  0.0242 -0.4045 -1.9382
14580TIP3    H265232   1.755   2.358   3.006  0.3846  0.8884 -0.6321
14581TIP3   OH265233   0.396   6.609  12.280  0.2637 -0.7202  0.0211
14581TIP3    H165234   0.414   6.699  12.254  1.5956 -0.0334  2.9691
14581TIP3    H265235   0.478   6.563  12.265  0.4991 -0.7172  1.1961
14582TIP3   OH265236   0.748   4.472   2.153 -0.1934 -0.4035  0.1300
14582TIP3    H165237   0.802   4.398   2.181  0.6273  0.4953  1.0234
14582TIP3    H265238   0.811   4.543   2.136 -1.0331  0.5666  0.8738
14583TIP3   OH265239   4.021   3.190  14.392  0.1718  0.2618  0.5324
14583TIP3    H165240   4.018   3.123  14.324  1.5558  0.7956 -0.0850
14583TIP3    H265241   4.105   3.177  14.435  0.5150  1.6744  0.3194
14584TIP3   OH265242   4.099   0.307  16.690  0.2991  0.5379 -0.0405
14584TIP3    H165243   4.136   0.377  16.637 -0.0271  1.4628  0.9353
14584TIP3    H265244   4.057   0.351  16.764 -0.6294 -0.6287  0.1648
14585TIP3   OH265245   0.013   4.680   6.449 -0.5374  0.8364 -0.3705
14585TIP3    H165246   0.019   4.662   6.355  1.2435 -1.1738  0.0595
14585TIP3    H265247   0.085   4.740   6.466 -2.2552  3.1188 -0.5876
14586TIP3   OH265248   6.409   3.290  16.388 -0.1309 -0.0845  0.5390
14586TIP3    H165249   6.499   3.257  16.393  1.1507  3.0908  1.2363
14586TIP3    H265250   6.415   3.380  16.420 -3.2751  0.8633 -1.1124
14587TIP3   OH265251   6.211   1.451  12.673 -0.5781  0.0671 -0.2773
14587TIP3    H165252   6.245   1.390  12.607 -0.4650 -1.7618  1.3908
14587TIP3    H265253   6.117   1.456  12.654 -0.8200 -1.6487  0.2911
14588TIP3   OH265254   0.807   3.363   5.312 -0.2926  0.1672  0.9316
14588TIP3    H165255   0.866   3.436   5.289 -0.2635 -0.3869 -0.9454
14588TIP3    H265256   0.865   3.297   5.349 -0.0699  0.4855  1.1589
14589TIP3   OH265257   0.380   5.023  11.678 -0.1627  0.5135 -0.2319
14589TIP3    H165258   0.456   4.999  11.627  0.4714  1.8854  0.0016
14589TIP3    H265259   0.341   4.940  11.705  0.6045 -0.2100 -1.2835
14590TIP3   OH265260   6.651   1.992  11.975  0.0170  0.2883 -0.3887
14590TIP3    H165261   6.690   2.028  11.895 -1.6993  0.9901 -0.9456
14590TIP3    H265262   6.654   2.063  12.038  2.0452 -0.4858  0.4739
14591TIP3   OH265263   6.348   5.354   2.403  0.1094 -0.6444 -0.2649
14591TIP3    H165264   6.393   5.422   2.454 -0.9303 -1.2628  1.5593
14591TIP3    H265265   6.265   5.395   2.376 -0.0992 -0.8841  0.0144
14592TIP3   OH265266   3.565   6.520  10.780 -0.0603  0.5394  0.2315
14592TIP3    H165267   3.486   6.574  10.788  0.2757  0.9127  1.3083
14592TIP3    H265268   3.637   6.581  10.796  0.6244  0.6386 -2.6109
14593TIP3   OH265269   3.625   5.195  15.365  0.0919  0.4139 -0.0568
14593TIP3    H165270   3.604   5.251  15.291 -1.4165  0.9703  0.7359
14593TIP3    H265271   3.592   5.244  15.441  2.1286  0.1457  1.0587
14594TIP3   OH265272   5.460   3.650   3.232  0.2765  0.4144 -0.2456
14594TIP3    H165273   5.533   3.666   3.172 -0.4477  2.3922 -0.6575
14594TIP3    H265274   5.412   3.577   3.193  3.3250 -2.7684  1.3294
14595TIP3   OH265275   5.888   1.776   1.891  0.3250 -0.7436  0.1853
14595TIP3    H165276   5.943   1.829   1.949 -1.3047  0.3103  0.8602
14595TIP3    H265277   5.897   1.817   1.805  1.0899 -0.9895  0.1407
14596TIP3   OH265278   2.353   0.669  13.597  0.6414 -0.2470  0.3683
14596TIP3    H165279   2.383   0.747  13.644  1.3309 -0.0145 -0.4468
14596TIP3    H265280   2.369   0.597  13.658  0.5676  0.1704  0.8866
14597TIP3   OH265281   0.081   5.415  15.241 -0.0273 -0.1391 -0.4917
14597TIP3    H165282   0.114   5.385  15.325 -1.1406 -0.1417 -0.0468
14597TIP3    H265283  -0.009   5.441  15.258 -0.5251 -0.8849 -1.8391
14598TIP3   OH265284   2.254   5.826   0.508 -0.1658  0.0357  0.1081
14598TIP3    H165285   2.344   5.855   0.493  0.1758 -1.7039 -1.4678
14598TIP3    H265286   2.236   5.764   0.437 -2.8140  0.7599  0.0367
14599TIP3   OH265287   3.284   5.362  14.140 -0.1161  0.0031  0.0049
14599TIP3    H165288   3.337   5.409  14.205 -2.0006  0.9965  0.8832
14599TIP3    H265289   3.343   5.350  14.066  1.6827  0.0566  1.3572
14600TIP3   OH265290   4.822   5.163   5.796 -0.4794  0.8561  0.1378
14600TIP3    H165291   4.846   5.186   5.886 -0.2660  1.3409 -0.0401
14600TIP3    H265292   4.738   5.118   5.804  0.2056 -0.3526  0.7190
14601TIP3   OH265293   1.000   0.026   1.073 -0.3645  0.0616  0.1121
14601TIP3    H165294   0.988   0.016   0.978  0.9653  1.3828 -0.2367
14601TIP3    H265295   1.076  -0.030   1.093 -0.1053  0.4586  0.2369
14602TIP3   OH265296   0.076   0.231   1.099  0.0010  0.0082 -0.1257
14602TIP3    H165297   0.158   0.190   1.071 -0.9708 -1.4821 -0.8954
14602TIP3    H265298   0.018   0.220   1.024 -1.6000 -0.9385  1.2061
14603TIP3   OH265299   2.299   1.439  13.756  0.0480 -0.0142  0.3692
14603TIP3    H165300   2.369   1.502  13.735 -1.1799  1.2169 -0.1972
14603TIP3    H265301   2.286   1.389  13.675 -0.1821  0.2189  0.2606
14604TIP3   OH265302   1.086   3.838  16.473 -0.5796  0.0073 -0.0921
14604TIP3    H165303   1.016   3.866  16.533 -1.3057 -2.0936  0.1217
14604TIP3    H265304   1.078   3.743  16.470  1.2006 -0.1454 -1.4306
14605TIP3   OH265305   1.420   3.512   2.832 -0.1124 -0.2358  0.3466
14605TIP3    H165306   1.437   3.419   2.848  0.1354 -0.3502 -0.5499
14605TIP3    H265307   1.447   3.526   2.742  1.5422  1.1109  0.9979
14606TIP3   OH265308   6.499   1.133   1.565 -0.1850  0.3046  0.3576
14606TIP3    H165309   6.569   1.190   1.533 -0.4384 -0.9101 -2.8073
14606TIP3    H265310   6.534   1.045   1.554 -1.3219 -0.2566  1.0962
14607TIP3   OH265311   0.260   0.372   2.780 -0.4829 -1.1305  0.2712
14607TIP3    H165312   0.213   0.307   2.728  1.4246 -0.0220 -3.1640
14607TIP3    H265313   0.228   0.456   2.748  0.2240 -0.3724  1.4910
14608TIP3   OH265314   5.310   2.960  13.429  0.2794 -0.4509 -0.3832
14608TIP3    H165315   5.347   2.873  13.416 -1.3183 -1.2647  0.2282
14608TIP3    H265316   5.220   2.954  13.397 -0.1295  0.7159  0.4491
14609TIP3   OH265317   4.261   1.323  14.782 -0.5708  0.1090  0.1528
14609TIP3    H165318   4.187   1.329  14.842 -1.1964 -2.0158 -0.3228
14609TIP3    H265319   4.224   1.290  14.700  0.6068  0.8655 -0.7292
14610TIP3   OH265320   6.158   0.293  15.322 -0.6700  0.0597  0.7013
14610TIP3    H165321   6.098   0.235  15.275 -0.9020  0.2582  0.7510
14610TIP3    H265322   6.244   0.273  15.286 -0.5450 -1.2832  1.6585
14611TIP3   OH265323   0.352   3.991  14.560 -0.6135 -0.1442 -0.6169
14611TIP3    H165324   0.362   3.910  14.510 -0.7212 -1.0194  0.7184
14611TIP3    H265325   0.441   4.024  14.572 -0.5526 -0.1701 -0.9934
14612TIP3   OH265326   0.832   2.403  12.066 -0.1543 -0.2252  0.2059
14612TIP3    H165327   0.865   2.336  12.126 -2.6676 -0.7514  1.1501
14612TIP3    H265328   0.820   2.356  11.983 -2.8446 -1.3804  1.1174
14613TIP3   OH265329   3.044   0.425  12.039 -0.1155  0.3308 -0.0412
14613TIP3    H165330   3.080   0.410  11.952 -0.1089  1.1376 -0.1820
14613TIP3    H265331   3.121   0.429  12.096 -0.0597  0.7598 -0.1449
14614TIP3   OH265332   6.669   4.723   2.246  0.2808 -0.2955  0.1333
14614TIP3    H165333   6.738   4.789   2.248 -0.1522  0.1452  0.8042
14614TIP3    H265334   6.706   4.651   2.195  1.0025  0.1879 -0.0350
14615TIP3   OH265335   5.958   5.386   4.785 -0.2128  0.4148 -0.1503
14615TIP3    H165336   5.901   5.430   4.849 -0.4751  0.1422 -0.1952
14615TIP3    H265337   5.922   5.412   4.700 -0.8941 -0.5563 -0.1748
14616TIP3   OH265338   4.036   2.353   5.668  0.1645  0.3563 -0.1447
14616TIP3    H165339   4.096   2.343   5.742 -1.3199 -1.3777  0.8865
14616TIP3    H265340   3.992   2.437   5.685 -0.3355 -0.1274  1.1258
14617TIP3   OH265341   6.668   2.837  14.347  0.1261  0.1177  0.0907
14617TIP3    H165342   6.756   2.869  14.332  0.1540  1.2766  2.2914
14617TIP3    H265343   6.679   2.744  14.365  0.8696  0.2133  0.1521
14618TIP3   OH265344   1.894   1.994  12.002  0.3085 -0.3455  0.0335
14618TIP3    H165345   1.944   1.939  12.062 -0.9458 -1.5645  0.0245
14618TIP3    H265346   1.876   2.074  12.052 -2.2968 -2.0481  2.0971
14619TIP3   OH265347   3.725   1.459  11.734  0.1140  0.3138  0.3926
14619TIP3    H165348   3.815   1.461  11.765  0.2680  1.0339 -0.0758
14619TIP3    H265349   3.720   1.379  11.681  0.6396  0.5599 -0.0412
14620TIP3   OH265350   0.577   0.348   4.256  0.0556  0.2684 -0.0483
14620TIP3    H165351   0.552   0.438   4.278 -2.2942 -0.6771  1.5977
14620TIP3    H265352   0.532   0.330   4.174  0.0045  0.3973 -0.0488
14621TIP3   OH265353   1.584   4.358  17.088 -0.2181 -0.3773  0.0280
14621TIP3    H165354   1.560   4.315  17.006  0.1086 -0.7759  0.1384
14621TIP3    H265355   1.652   4.302  17.126 -1.1129 -0.7812  1.0874
14622TIP3   OH265356   0.969   3.998  11.194  0.4651  0.2980 -0.1661
14622TIP3    H165357   0.999   4.054  11.122  1.1202  0.7365  0.4375
14622TIP3    H265358   1.031   3.924  11.194 -0.7398 -0.7653 -1.3340
14623TIP3   OH265359   1.964   5.736  13.701  0.3786 -0.2468  0.1207
14623TIP3    H165360   1.912   5.809  13.669  0.5646  0.0156  0.4163
14623TIP3    H265361   1.900   5.681  13.748  0.5869  0.8018  1.7364
14624TIP3   OH265362   6.151   3.842   2.824  0.9032  0.2721 -0.5909
14624TIP3    H165363   6.191   3.910   2.879 -1.3922  0.4241  1.0221
14624TIP3    H265364   6.071   3.882   2.790  0.0284 -1.2923 -0.4574
14625TIP3   OH265365   0.330   4.002   5.874  0.0050  0.0521 -0.2401
14625TIP3    H165366   0.261   3.939   5.853  0.8455 -0.7104 -0.7627
14625TIP3    H265367   0.303   4.039   5.958  0.0099 -1.7669  0.6020
14626TIP3   OH265368   6.095   1.577  10.829  0.2027 -0.7009  0.9497
14626TIP3    H165369   6.050   1.608  10.750  1.4353 -1.1084  0.0420
14626TIP3    H265370   6.032   1.589  10.899 -0.4688  0.9352  0.1271
14627TIP3   OH265371   6.779   5.282  16.674 -0.0240 -0.5524  0.3329
14627TIP3    H165372   6.780   5.378  16.683 -2.2507 -0.3037 -1.3583
14627TIP3    H265373   6.773   5.267  16.580 -0.2324 -2.3674  0.6076
14628TIP3   OH265374   0.788   3.562  13.203  0.5070  0.1043 -0.4190
14628TIP3    H165375   0.700   3.597  13.183 -1.1803 -2.6147  1.5523
14628TIP3    H265376   0.813   3.606  13.284  0.6146  0.2961 -0.5550
14629TIP3   OH265377   5.794   0.987   6.486  0.0228  0.3189  0.7693
14629TIP3    H165378   5.856   1.052   6.519 -0.1229  1.0382 -0.3229
14629TIP3    H265379   5.835   0.954   6.406 -0.1876 -0.5063  0.9959
14630TIP3   OH265380   2.532   4.972   0.076 -0.2372 -0.1810  0.2605
14630TIP3    H165381   2.494   4.966   0.164  1.5440 -1.7823  0.9922
14630TIP3    H265382   2.545   4.881   0.049  0.2342  0.2924 -1.2255
14631TIP3   OH265383   2.666   3.322   0.176 -0.0918  0.2249 -0.2519
14631TIP3    H165384   2.690   3.242   0.128  0.3244 -0.3998  0.9402
14631TIP3    H265385   2.666   3.295   0.268 -0.1454  1.5590  0.1602
14632TIP3   OH265386   2.075   4.789   4.947  0.2131  0.4560  0.3957
14632TIP3    H165387   2.069   4.864   5.006 -1.9369  1.0811 -0.5257
14632TIP3    H265388   2.020   4.722   4.987  0.7133 -0.0131  0.3155
14633TIP3   OH265389   0.633   5.764  11.780 -0.2563 -0.5769  0.3839
14633TIP3    H165390   0.718   5.797  11.751 -0.8869  0.3363 -0.4723
14633TIP3    H265391   0.630   5.673  11.749  0.1097 -0.3863 -0.2217
14634TIP3   OH265392   6.419   1.821   6.410  0.4581 -0.1279  0.2169
14634TIP3    H165393   6.368   1.900   6.425 -1.3710 -1.3263  0.6936
14634TIP3    H265394   6.482   1.845   6.343  0.1443  1.7921  0.5658
14635TIP3   OH265395   1.910   4.161  16.055 -0.1875 -0.4200 -0.2395
14635TIP3    H165396   1.826   4.144  16.097 -0.2611  0.4894 -0.0126
14635TIP3    H265397   1.888   4.185  15.965 -0.1427 -0.5876 -0.2946
14636TIP3   OH265398   4.057   0.827   5.231 -0.1389  0.3886  0.8241
14636TIP3    H165399   3.991   0.762   5.255  0.5015 -1.8431 -2.6507
14636TIP3    H265400   4.140   0.790   5.262 -0.1020  1.2806  1.8188
14637TIP3   OH265401   1.942   4.196   1.242 -0.3752 -0.2539 -0.2869
14637TIP3    H165402   1.916   4.219   1.153  0.6747  0.0607 -0.5201
14637TIP3    H265403   1.871   4.230   1.297 -1.9549 -2.0730 -1.1171
14638TIP3   OH265404   0.655   1.350  16.051 -0.4497  0.2059  0.3787
14638TIP3    H165405   0.607   1.312  15.977 -0.6825  0.4821  0.3864
14638TIP3    H265406   0.591   1.407  16.094  0.3713  2.1088 -0.7422
14639TIP3   OH265407   2.553   4.024  16.531  0.0965 -0.3872  0.2067
14639TIP3    H165408   2.458   4.022  16.519  0.1571  0.8224 -0.6359
14639TIP3    H265409   2.565   4.064  16.617 -0.1527 -0.2422  0.1750
14640TIP3   OH265410   5.489   0.117   3.121 -0.1162  0.1394  0.8740
14640TIP3    H165411   5.571   0.149   3.159 -0.1711  0.2018  0.9381
14640TIP3    H265412   5.508   0.109   3.027 -0.0942  0.3332  0.8616
14641TIP3   OH265413   4.217   1.037  13.247  0.2187 -0.4063  0.0648
14641TIP3    H165414   4.287   0.987  13.289  0.0359  0.0009  0.8721
14641TIP3    H265415   4.234   1.028  13.153  1.3503 -0.3275  0.2458
14642TIP3   OH265416   4.683   3.841   6.039  0.2702  0.8988 -0.1762
14642TIP3    H165417   4.684   3.831   6.134 -0.0308  0.3330 -0.2294
14642TIP3    H265418   4.634   3.922   6.024  0.2417  0.9432  0.1437
14643TIP3   OH265419   0.269   4.967   2.171  0.3315  0.0486 -0.6635
14643TIP3    H165420   0.346   5.015   2.200  0.3471 -0.4952  0.2147
14643TIP3    H265421   0.297   4.926   2.089  2.0252 -2.5676  1.0530
14644TIP3   OH265422   5.758   4.938   0.059  0.0426 -0.1972 -0.0163
14644TIP3    H165423   5.764   5.031   0.035 -0.4295 -0.4891 -1.3192
14644TIP3    H265424   5.670   4.912   0.034  0.5328 -1.2787 -0.6970
14645TIP3   OH265425   2.815   1.633   0.357 -0.0674  0.2045 -0.1330
14645TIP3    H165426   2.852   1.716   0.327 -0.9000  0.5343 -0.2620
14645TIP3    H265427   2.855   1.567   0.299 -0.5591  0.6836 -1.0410
14646TIP3   OH265428   0.460   3.685  13.826 -0.3664 -0.0969 -0.6726
14646TIP3    H165429   0.458   3.760  13.767 -1.4816 -0.6855 -1.4120
14646TIP3    H265430   0.387   3.629  13.797  1.1298 -2.0441 -0.8803
14647TIP3   OH265431   5.916   3.873   4.728 -0.0432 -0.5343 -0.0367
14647TIP3    H165432   5.982   3.868   4.797 -0.9178 -1.3318  0.7628
14647TIP3    H265433   5.910   3.784   4.694 -0.3857 -0.3667 -0.4212
14648TIP3   OH265434   6.552   1.801  14.544 -0.6956  0.2873  0.0742
14648TIP3    H165435   6.622   1.857  14.511 -1.7839  0.9798 -1.1523
14648TIP3    H265436   6.475   1.858  14.549 -1.2428 -0.4949  1.2271
14649TIP3   OH265437   4.460   5.320  16.169  0.5872  0.0893  0.2505
14649TIP3    H165438   4.525   5.262  16.130 -0.6910 -1.0043 -0.3478
14649TIP3    H265439   4.424   5.369  16.096 -0.3216 -0.4397  0.3121
14650TIP3   OH265440   4.887   5.133   5.507  0.2066 -0.4288  0.3196
14650TIP3    H165441   4.794   5.154   5.496  0.5150  0.5717 -0.5319
14650TIP3    H265442   4.905   5.154   5.599 -0.5146 -1.0915  0.6176
14651TIP3   OH265443   2.003   1.208  13.126  0.2674 -0.2126 -0.2232
14651TIP3    H165444   1.930   1.267  13.143  0.1248 -0.2914 -0.5605
14651TIP3    H265445   2.024   1.169  13.211  0.2534  0.1991 -0.0339
14652TIP3   OH265446   2.788   6.839   0.031  0.1005  0.2547  0.0174
14652TIP3    H165447   2.852   6.824  -0.038 -0.9849  0.6818 -1.1054
14652TIP3    H265448   2.774   6.934   0.031 -2.3139 -0.0272 -1.4550
14653TIP3   OH265449   0.535   1.346   1.346 -0.0219 -0.2278 -0.2525
14653TIP3    H165450   0.462   1.346   1.408  0.0612  0.0202 -0.1553
14653TIP3    H265451   0.528   1.430   1.300  0.6437  0.1272  0.2807
14654TIP3   OH265452   1.887   3.362  12.885  0.1386  0.6720 -0.0277
14654TIP3    H165453   1.914   3.329  12.971  0.8912 -0.0989 -0.5462
14654TIP3    H265454   1.818   3.301  12.858  1.6056 -0.6004 -1.0359
14655TIP3   OH265455   3.017   5.305   3.480 -0.3589  0.2893  0.0442
14655TIP3    H165456   2.982   5.381   3.526  0.1972  0.8483 -0.4472
14655TIP3    H265457   3.001   5.324   3.387 -1.3569 -0.7640 -0.0285
14656TIP3   OH265458   2.814   4.962  15.720  0.3730  0.2331 -0.6326
14656TIP3    H165459   2.767   5.017  15.783 -1.0223  2.4394 -3.3494
14656TIP3    H265460   2.745   4.926  15.664  1.6242 -0.4078 -1.8147
14657TIP3   OH265461   4.624   3.038   5.215  0.3419 -0.3893  0.4565
14657TIP3    H165462   4.628   3.133   5.221 -0.2280 -0.3358  0.0635
14657TIP3    H265463   4.555   3.020   5.151  1.8900 -1.0185 -1.1523
14658TIP3   OH265464   6.630   1.844  16.349  0.1622  0.0827  0.2812
14658TIP3    H165465   6.705   1.792  16.377  0.5307  1.0527  1.1668
14658TIP3    H265466   6.669   1.921  16.306 -0.2871  0.7278  0.9887
14659TIP3   OH265467   0.348   2.506  12.551 -0.3475 -0.0650 -0.0809
14659TIP3    H165468   0.393   2.427  12.580 -0.6755  0.3803  1.8414
14659TIP3    H265469   0.292   2.478  12.479 -2.7197 -2.2982  2.4057
14660TIP3   OH265470   1.592   0.062   1.984  0.1382 -0.6611 -0.3963
14660TIP3    H165471   1.568   0.036   2.073 -0.4980  0.9315 -0.0782
14660TIP3    H265472   1.652   0.136   1.996 -1.7704  1.1194 -1.2633
14661TIP3   OH265473   5.548   2.014   5.912 -0.1789  0.4068 -0.4266
14661TIP3    H165474   5.454   2.010   5.898 -0.5279  0.6178  1.5405
14661TIP3    H265475   5.559   2.080   5.981  1.4203  0.4631 -0.6939
14662TIP3   OH265476   2.602   6.826  16.324 -0.7561  0.1693  0.0944
14662TIP3    H165477   2.562   6.776  16.395  0.7969 -0.0242  0.8764
14662TIP3    H265478   2.649   6.896  16.369  2.5632 -1.5474 -0.4415
14663TIP3   OH265479   2.122   5.272   4.960 -0.2622  0.1063 -0.4638
14663TIP3    H165480   2.148   5.335   5.027 -2.7133  0.5881  0.1410
14663TIP3    H265481   2.204   5.232   4.932  0.8960 -0.6390  3.3426
14664TIP3   OH265482   1.537   0.278  12.187 -0.9790 -0.1297 -0.0921
14664TIP3    H165483   1.535   0.307  12.278 -0.8145 -0.5513  0.0456
14664TIP3    H265484   1.471   0.333  12.144 -1.3229 -0.1832  0.3556
14665TIP3   OH265485   1.061   5.651  13.611 -0.2686  0.5464  0.6225
14665TIP3    H165486   1.007   5.573  13.626 -0.2098  0.0609 -1.3494
14665TIP3    H265487   1.000   5.715  13.574 -0.1629  1.2012  1.5566
14666TIP3   OH265488   0.089   1.144   0.841  0.1510  0.2824  0.2946
14666TIP3    H165489   0.091   1.154   0.936 -1.2884  1.1036  0.2702
14666TIP3    H265490   0.011   1.192   0.814  0.8535  0.5550 -1.3636
14667TIP3   OH265491   5.729   6.752  16.074  0.1540  0.1531  0.0174
14667TIP3    H165492   5.772   6.688  16.018 -0.0489 -0.5041  0.5923
14667TIP3    H265493   5.724   6.831  16.021  0.9129 -0.1376 -0.5059
14668TIP3   OH265494   4.350   6.775  13.203 -0.5577  0.4184  0.2648
14668TIP3    H165495   4.332   6.800  13.293  0.7255 -0.3509  0.7663
14668TIP3    H265496   4.319   6.685  13.196 -1.2367  0.6836 -0.2621
14669TIP3   OH265497   3.788   6.655  14.370 -0.2748 -0.3116 -0.2544
14669TIP3    H165498   3.695   6.633  14.363  0.0892 -2.1514  0.0671
14669TIP3    H265499   3.829   6.606  14.299  0.6493 -0.9587  0.7114
14670TIP3   OH265500   6.078   5.622   4.462 -0.1793  0.3066  0.6148
14670TIP3    H165501   6.031   5.701   4.489 -3.3074 -0.9321 -0.8068
14670TIP3    H265502   6.026   5.550   4.495  1.4515 -1.2104  0.0521
14671TIP3   OH265503   6.040   1.806  13.700 -0.1434 -0.1388 -0.1760
14671TIP3    H165504   6.000   1.727  13.662 -1.4935  0.9189 -1.0362
14671TIP3    H265505   5.969   1.869  13.706  1.0921  1.3313 -0.3349
14672TIP3   OH265506   0.609   1.289   1.678 -0.6414  0.7337 -0.0985
14672TIP3    H165507   0.627   1.362   1.619 -2.7076  2.0630  0.7790
14672TIP3    H265508   0.558   1.328   1.749 -0.3247 -1.2639  1.3136
14673TIP3   OH265509   5.802   6.223  11.415  0.1255  0.0616  0.3187
14673TIP3    H165510   5.849   6.154  11.369  1.6873  1.4193 -0.2385
14673TIP3    H265511   5.755   6.178  11.485  0.0506 -1.6880 -0.8082
14674TIP3   OH265512   3.547   3.671   2.357  0.0768  0.1976 -0.0647
14674TIP3    H165513   3.510   3.583   2.367  0.1399  0.0259 -1.2228
14674TIP3    H265514   3.515   3.701   2.272  2.1559  0.2551 -0.8884
14675TIP3   OH265515   1.666   5.315  13.448  0.2695  0.3451 -0.1177
14675TIP3    H165516   1.731   5.246  13.461 -0.0850  0.1054  0.3876
14675TIP3    H265517   1.583   5.275  13.471 -0.3619  0.0241 -2.7016
14676TIP3   OH265518   4.854   1.610  12.586 -0.3005  0.2100  0.3332
14676TIP3    H165519   4.894   1.523  12.582  1.2205  0.9221 -1.6686
14676TIP3    H265520   4.800   1.616  12.508 -2.5127  0.1880  1.7719
14677TIP3   OH265521   1.730   5.416   4.780 -0.5530  0.4470 -0.0129
14677TIP3    H165522   1.727   5.340   4.722 -3.1406  1.0585 -0.8054
14677TIP3    H265523   1.662   5.400   4.845 -1.5237  2.2821 -0.5105
14678TIP3   OH265524   0.320   0.674  15.738  0.1809  0.0089 -0.2150
14678TIP3    H165525   0.239   0.684  15.687  0.5609  0.3793 -0.7492
14678TIP3    H265526   0.373   0.612  15.689  1.2212  1.5658 -1.1403
14679TIP3   OH265527   5.939   4.849   2.363 -0.2223  0.3674  0.1248
14679TIP3    H165528   5.998   4.806   2.300 -0.7108  0.1350 -0.1859
14679TIP3    H265529   5.947   4.796   2.443 -0.6578 -0.1930 -0.1888
14680TIP3   OH265530   1.876   6.089  10.091  0.1010  0.2505  0.0701
14680TIP3    H165531   1.829   6.171  10.105  0.1023  0.4409 -0.9428
14680TIP3    H265532   1.912   6.098  10.003  1.1178 -0.3441  0.4109
14681TIP3   OH265533   2.820   0.730   2.300  1.0167 -0.6770  0.1510
14681TIP3    H165534   2.830   0.714   2.206 -0.8713 -0.0115 -0.2095
14681TIP3    H265535   2.861   0.816   2.314 -0.9037  0.4151 -0.6020
14682TIP3   OH265536   6.803   5.174  14.629  0.3306  0.2416 -0.0886
14682TIP3    H165537   6.782   5.222  14.549 -0.1640 -0.8934 -0.6551
14682TIP3    H265538   6.889   5.208  14.655  0.3958  0.7913 -0.9658
14683TIP3   OH265539   0.846   4.643   1.789 -0.7386 -0.3822  0.2142
14683TIP3    H165540   0.750   4.644   1.791 -0.7512  1.0232 -0.0770
14683TIP3    H265541   0.872   4.699   1.862 -0.1559 -0.0957 -0.2022
14684TIP3   OH265542   3.472   2.822   1.076  0.1962 -0.1339 -0.4508
14684TIP3    H165543   3.378   2.837   1.067  0.2500 -0.6614 -2.2347
14684TIP3    H265544   3.479   2.749   1.137 -0.5154  0.2283  0.0792
14685TIP3   OH265545   4.398   4.552  16.460  0.3250 -0.0909  0.5401
14685TIP3    H165546   4.469   4.488  16.460  0.8716  0.3440 -2.6394
14685TIP3    H265547   4.440   4.634  16.488 -0.3390 -0.8714  4.4385
14686TIP3   OH265548   6.444   2.648   2.463  0.2696 -0.7746  0.2319
14686TIP3    H165549   6.446   2.563   2.420 -1.1369 -0.5522 -0.3195
14686TIP3    H265550   6.536   2.671   2.474  0.6799 -1.5627 -1.2276
14687TIP3   OH265551   6.357   1.667   6.165  0.1489  0.0468  0.1935
14687TIP3    H165552   6.358   1.706   6.253  0.5816 -1.3600  0.8491
14687TIP3    H265553   6.319   1.580   6.179 -1.3768  0.4082 -1.3159
14688TIP3   OH265554   3.073   5.275   2.281  0.3570  0.0788 -0.2608
14688TIP3    H165555   3.165   5.300   2.284  0.3710  0.2292 -1.3451
14688TIP3    H265556   3.059   5.251   2.189 -1.0507  1.4733 -0.4445
14689TIP3   OH265557   2.383   5.593  10.985  0.0770 -0.1024 -0.4610
14689TIP3    H165558   2.402   5.613  10.894 -1.9369 -0.2814 -0.9741
14689TIP3    H265559   2.370   5.498  10.986 -2.1207  0.1480 -0.4965
14690TIP3   OH265560   1.112   4.441   5.787 -0.0758  0.0616  0.1028
14690TIP3    H165561   1.086   4.511   5.847 -0.3293  0.4343 -0.4240
14690TIP3    H265562   1.031   4.392   5.770  0.4663 -1.5866  1.9876
14691TIP3   OH265563   6.633   2.202   1.842 -0.2792 -0.4083 -0.4058
14691TIP3    H165564   6.585   2.257   1.904  0.5442  0.0072 -0.1229
14691TIP3    H265565   6.638   2.117   1.885 -3.4782 -1.4277 -1.7713
14692TIP3   OH265566   6.279   1.634  11.743 -0.1737  0.4203 -0.2948
14692TIP3    H165567   6.318   1.721  11.749 -0.2507  0.5244 -1.1537
14692TIP3    H265568   6.236   1.633  11.657  1.1609 -1.0123 -0.9902
14693TIP3   OH265569   5.015   0.792  15.277  0.4290  0.3170 -0.5044
14693TIP3    H165570   5.073   0.787  15.353  0.8652 -0.1407 -0.8629
14693TIP3    H265571   5.041   0.872  15.232 -0.6127  1.2189  0.4513
14694TIP3   OH265572   1.812   4.690   3.051  0.1997  0.0165  0.1179
14694TIP3    H165573   1.871   4.712   3.124  0.3817  2.1128 -0.6145
14694TIP3    H265574   1.728   4.673   3.094  0.5398  0.2394  0.9059
14695TIP3   OH265575   4.337   2.586   3.087 -0.7257  0.0848  0.1351
14695TIP3    H165576   4.265   2.550   3.139 -2.0796  0.6765 -1.2319
14695TIP3    H265577   4.340   2.679   3.111 -1.1633  0.2963 -0.5857
14696TIP3   OH265578   5.532   2.481  17.037 -0.0672  0.6330  0.2130
14696TIP3    H165579   5.577   2.563  17.054 -0.2309  0.7827 -0.0620
14696TIP3    H265580   5.499   2.490  16.947  0.1152  0.1759  0.0958
14697TIP3   OH265581   6.571   2.448   5.862 -0.2055  0.4017 -0.3376
14697TIP3    H165582   6.498   2.501   5.832 -0.4417  0.5618  0.4960
14697TIP3    H265583   6.546   2.421   5.950  0.0830 -0.7687 -0.5948
14698TIP3   OH265584   6.124   4.900  15.800  0.3607 -0.3442  0.7315
14698TIP3    H165585   6.076   4.916  15.718 -1.0678  1.0676  1.7942
14698TIP3    H265586   6.089   4.817  15.832  0.2054 -0.4079  0.4019
14699TIP3   OH265587   2.468   0.245   1.981 -0.3686  0.0280  0.0618
14699TIP3    H165588   2.481   0.151   1.995 -1.8740 -0.0281  1.4288
14699TIP3    H265589   2.490   0.285   2.065 -1.4754  0.6754  0.0649
14700TIP3   OH265590   3.207   5.263  13.392 -0.1417 -0.1160  0.3639
14700TIP3    H165591   3.300   5.281  13.404  0.0143  0.6851 -1.6621
14700TIP3    H265592   3.205   5.187  13.334 -0.7222  0.5062 -0.4560
14701TIP3   OH265593   2.026   2.337   3.118 -0.0975  0.5950 -0.1560
14701TIP3    H165594   2.100   2.392   3.091  0.3615  0.4756  0.8105
14701TIP3    H265595   1.962   2.346   3.047  1.3753 -0.3570 -1.6818
14702TIP3   OH265596   0.975   2.602   5.884  0.4683  0.1394 -0.1289
14702TIP3    H165597   0.904   2.623   5.823  0.7661  0.2667 -0.4413
14702TIP3    H265598   1.044   2.566   5.828  0.6140 -0.0711  0.1831
14703TIP3   OH265599   2.737   5.269   4.205  0.0893  0.1785  0.4204
14703TIP3    H165600   2.684   5.214   4.147  0.5977  0.8275 -0.6806
14703TIP3    H265601   2.673   5.320   4.254 -0.3347  0.1223 -0.0631
14704TIP3   OH265602   1.213   6.307   4.742  0.1400 -0.2513  0.4495
14704TIP3    H165603   1.243   6.308   4.833 -0.1877 -1.5324  0.6012
14704TIP3    H265604   1.132   6.359   4.743 -0.0008 -0.4713  0.9515
14705TIP3   OH265605   5.893   3.555  13.682 -0.0433 -0.2772  0.2540
14705TIP3    H165606   5.906   3.515  13.769  0.6016  1.4461  0.9986
14705TIP3    H265607   5.981   3.565  13.647 -0.2272  0.0064 -0.1372
14706TIP3   OH265608   3.168   0.158  11.594  0.6752 -0.6542  0.2779
14706TIP3    H165609   3.137   0.216  11.665  1.8158  0.9407 -0.4574
14706TIP3    H265610   3.158   0.070  11.630  1.4438  0.0959  2.5606
14707TIP3   OH265611   1.260   4.851   5.652  0.4137 -0.1616  0.3522
14707TIP3    H165612   1.290   4.803   5.574  1.1093  1.9460 -0.7428
14707TIP3    H265613   1.175   4.886   5.627  0.2458 -0.2059  0.8623
14708TIP3   OH265614   4.704   3.060  15.976 -0.0949 -0.1759 -0.0029
14708TIP3    H165615   4.678   3.143  16.014  0.3298 -0.5201  1.0859
14708TIP3    H265616   4.685   3.068  15.883 -0.5691  0.9294  0.1852
14709TIP3   OH265617   3.763   6.767   4.295 -0.3910 -0.3284 -0.1198
14709TIP3    H165618   3.817   6.830   4.342  0.9547 -0.2390 -1.6964
14709TIP3    H265619   3.696   6.820   4.252  0.4639  0.0206 -1.0699
14710TIP3   OH265620   0.045   5.516   3.415  0.0605  0.1687  0.7534
14710TIP3    H165621   0.010   5.512   3.326  1.3091  0.9932  0.1843
14710TIP3    H265622   0.031   5.607   3.442  3.1124  1.0415 -0.1534
14711TIP3   OH265623   5.596   4.273   6.010 -0.3758  0.3444 -0.0836
14711TIP3    H165624   5.506   4.253   6.038 -0.0884  1.3094  1.6999
14711TIP3    H265625   5.642   4.190   6.016 -1.0609 -0.0895 -0.6627
14712TIP3   OH265626   5.155   5.897  12.027 -0.4223  0.0156  0.5257
14712TIP3    H165627   5.060   5.886  12.035 -0.4621 -0.3357 -0.3675
14712TIP3    H265628   5.187   5.812  11.996 -0.0013  0.5656 -0.6023
14713TIP3   OH265629   1.352   0.253   4.284  0.1047  0.3731  0.3492
14713TIP3    H165630   1.325   0.196   4.212  0.4310 -0.7255  1.0678
14713TIP3    H265631   1.272   0.299   4.309  0.3243  2.0978 -1.8136
14714TIP3   OH265632   2.604   0.123  12.347 -0.9094 -0.5029  0.3209
14714TIP3    H165633   2.648   0.189  12.293 -0.9119 -0.2624  0.6154
14714TIP3    H265634   2.664   0.049  12.348 -1.5185 -1.0613 -1.1982
14715TIP3   OH265635   4.102   0.798  11.154 -0.0731 -0.2286  0.2985
14715TIP3    H165636   4.035   0.746  11.111  1.6024 -2.5712  0.3454
14715TIP3    H265637   4.057   0.840  11.227 -1.6745 -0.9392 -0.2477
14716TIP3   OH265638   5.461   3.659   1.278 -0.6344 -0.1673  0.6803
14716TIP3    H165639   5.542   3.705   1.301  1.2059 -2.0066 -1.4827
14716TIP3    H265640   5.396   3.691   1.339  1.2288  2.9409  1.2442
14717TIP3   OH265641   1.813   3.693  14.651  0.1373 -0.0315 -0.1072
14717TIP3    H165642   1.897   3.714  14.610  0.5618 -1.4916 -0.0584
14717TIP3    H265643   1.836   3.663  14.739 -0.1970 -2.2079 -0.6876
14718TIP3   OH265644   0.234   5.185  15.729  0.0217  0.3732  0.1231
14718TIP3    H165645   0.227   5.149  15.817  3.7800 -0.6032  0.1782
14718TIP3    H265646   0.204   5.114  15.672 -1.6435  0.7190  0.5154
14719TIP3   OH265647   4.135   3.953   1.706 -0.5399  0.2260  0.0951
14719TIP3    H165648   4.196   3.962   1.632 -0.6729 -1.6696 -0.2907
14719TIP3    H265649   4.190   3.927   1.780 -0.8444 -1.7694 -0.3211
14720TIP3   OH265650   5.550   3.771   2.812  0.7855  0.3760  0.3875
14720TIP3    H165651   5.612   3.821   2.759 -0.1323  1.2133  0.0734
14720TIP3    H265652   5.579   3.783   2.902  0.1488  2.1440  0.3885
14721TIP3   OH265653   4.182   5.092  15.117 -0.2448  0.4555  0.1080
14721TIP3    H165654   4.196   5.007  15.159 -1.9130  0.2954  0.4479
14721TIP3    H265655   4.133   5.072  15.037 -1.1888  1.1056  0.4918
14722TIP3   OH265656   1.816   1.206  11.146 -0.0623 -0.3296 -0.2019
14722TIP3    H165657   1.737   1.152  11.151 -0.7040  0.5817 -0.2999
14722TIP3    H265658   1.801   1.277  11.207  0.4495  0.1536 -0.6266
14723TIP3   OH265659   2.517   3.168  15.846  0.5846  0.3083  0.4060
14723TIP3    H165660   2.482   3.136  15.762  0.5716 -0.0742  0.5564
14723TIP3    H265661   2.532   3.089  15.897  1.7642  0.4627  0.3171
14724TIP3   OH265662   2.751   1.626   0.625  0.1675 -0.2139 -0.2179
14724TIP3    H165663   2.799   1.660   0.549  0.0942  0.9035  0.2203
14724TIP3    H265664   2.794   1.543   0.645  1.4884  0.4425 -0.2447
14725TIP3   OH265665   4.323   1.425   6.400 -0.4920  0.0510 -0.5138
14725TIP3    H165666   4.275   1.379   6.331 -1.0024  0.5182 -0.4705
14725TIP3    H265667   4.412   1.390   6.393 -0.3397  0.6533 -1.9340
14726TIP3   OH265668   0.820   4.431  16.580 -0.1515 -0.5634  0.6892
14726TIP3    H165669   0.804   4.425  16.486  1.4746 -4.0176  0.4913
14726TIP3    H265670   0.733   4.426  16.620 -0.9110  1.5299 -0.5397
14727TIP3   OH265671   5.580   0.366  16.214 -0.6351 -0.7399 -0.2029
14727TIP3    H165672   5.574   0.439  16.152 -1.9157 -0.1334  0.6155
14727TIP3    H265673   5.674   0.358  16.232 -0.4863  0.8290 -0.1696
14728TIP3   OH265674   0.721   1.513   1.568 -0.2404 -0.0534  0.1516
14728TIP3    H165675   0.660   1.587   1.567 -0.2437  0.0125  2.1556
14728TIP3    H265676   0.768   1.521   1.651  0.5657 -1.6686 -0.1019
14729TIP3   OH265677   2.074   0.824  14.205 -0.4391 -0.6949  0.3018
14729TIP3    H165678   2.147   0.828  14.142 -0.6339 -0.2231  0.1030
14729TIP3    H265679   1.996   0.814  14.150 -0.7677  1.2072  0.3646
14730TIP3   OH265680   2.985   6.632   3.957  0.1134  0.1534  0.3069
14730TIP3    H165681   3.012   6.555   4.007 -0.6029  0.0017  0.4578
14730TIP3    H265682   3.059   6.693   3.966  1.2648 -0.9910 -0.8634
14731TIP3   OH265683   6.004   6.641  16.333 -0.2058 -0.3502  0.2520
14731TIP3    H165684   6.049   6.688  16.403  0.2883  0.9469 -0.9017
14731TIP3    H265685   5.915   6.627  16.367 -0.4035  1.5321  0.6092
14732TIP3   OH265686   0.987   4.651   2.781  0.5937  0.4386  0.5365
14732TIP3    H165687   0.961   4.734   2.823  1.6579 -0.0047  2.1547
14732TIP3    H265688   0.963   4.663   2.689 -3.4395  0.8226  1.4605
14733TIP3   OH265689   0.216   3.431   5.249  0.0764 -0.1607  0.3443
14733TIP3    H165690   0.279   3.479   5.302 -0.1766  0.2667  0.2569
14733TIP3    H265691   0.133   3.475   5.263  0.2846  1.0074 -1.6775
14734TIP3   OH265692   5.668   4.850   1.270  0.2475 -0.1935 -0.1638
14734TIP3    H165693   5.632   4.905   1.339 -1.1837 -0.2143 -0.8471
14734TIP3    H265694   5.744   4.899   1.237  0.8209 -0.0932  1.2487
14735TIP3   OH265695   0.496   2.187   2.976 -0.0233 -0.5318  0.4925
14735TIP3    H165696   0.527   2.253   3.039 -0.0268  0.9061 -0.9506
14735TIP3    H265697   0.563   2.119   2.978  0.8035  0.2618  0.8786
14736TIP3   OH265698   3.732   5.588  13.040 -0.4867 -0.4577  0.0354
14736TIP3    H165699   3.649   5.588  13.087 -1.1792  0.5450 -1.1224
14736TIP3    H265700   3.725   5.661  12.978  1.9844  0.9065  1.1707
14737TIP3   OH265701   1.207   1.222   2.205 -0.2276  0.0919  0.2165
14737TIP3    H165702   1.138   1.198   2.268 -0.9997 -1.0370 -1.0226
14737TIP3    H265703   1.262   1.284   2.253 -0.8713 -0.6273  1.9607
14738TIP3   OH265704   1.164   6.314   1.876 -0.2703 -0.6877 -0.1516
14738TIP3    H165705   1.133   6.321   1.966  0.7797 -2.7392  0.4250
14738TIP3    H265706   1.254   6.348   1.879 -0.3752 -0.3686 -0.5285
14739TIP3   OH265707   3.099   0.364   5.846  0.9141  0.0876 -0.0016
14739TIP3    H165708   3.036   0.396   5.910  0.5609 -0.0819 -0.2633
14739TIP3    H265709   3.116   0.273   5.873  0.3848 -0.1413 -0.4435
14740TIP3   OH265710   1.413   6.611  12.089  0.4589 -0.2308 -0.3355
14740TIP3    H165711   1.402   6.551  12.163 -1.0371 -0.1130 -0.4274
14740TIP3    H265712   1.407   6.698  12.128  0.4476 -0.1609 -0.4943
14741TIP3   OH265713   2.747   3.388   5.292 -0.2369 -0.4114 -0.7620
14741TIP3    H165714   2.747   3.460   5.355  0.3394 -1.2233  0.1967
14741TIP3    H265715   2.834   3.349   5.300 -0.4204 -1.0033 -1.5129
14742TIP3   OH265716   0.190   3.117   3.040  0.6765  0.5177 -0.2936
14742TIP3    H165717   0.236   3.078   3.114  0.7410 -0.3284 -0.7735
14742TIP3    H265718   0.119   3.167   3.080  1.2364  0.7983  0.3837
14743TIP3   OH265719   3.248   6.760   0.721 -0.3040 -0.1197  0.3782
14743TIP3    H165720   3.274   6.731   0.634 -1.6618 -1.3228  0.3281
14743TIP3    H265721   3.308   6.831   0.742  1.0105 -0.8083 -0.9055
14744TIP3   OH265722   3.716   4.998   5.781 -0.5381  0.5932  0.1438
14744TIP3    H165723   3.791   5.003   5.723 -0.7298  1.0504 -0.0659
14744TIP3    H265724   3.642   5.029   5.729 -0.8946  0.0627  0.3178
14745TIP3   OH265725   3.410   6.324   4.541  0.6464 -0.2248 -0.2629
14745TIP3    H165726   3.472   6.251   4.548  1.3861  0.2353 -1.5979
14745TIP3    H265727   3.455   6.397   4.582  1.9229  0.6183 -2.9010
14746TIP3   OH265728   5.762   0.598  14.250 -0.4757  0.0556 -0.6315
14746TIP3    H165729   5.803   0.683  14.233  3.7169 -1.8928 -1.4739
14746TIP3    H265730   5.762   0.590  14.345  1.1150  0.1902 -0.5931
14747TIP3   OH265731   3.772   3.619  14.182  0.5768 -0.0053 -0.3766
14747TIP3    H165732   3.819   3.562  14.242  0.6332  1.2535  0.8485
14747TIP3    H265733   3.683   3.584  14.180  0.9706 -1.0197 -0.8697
14748TIP3   OH265734   6.426   5.358  16.606 -0.0773 -0.8802  0.5083
14748TIP3    H165735   6.430   5.317  16.693  1.4379 -1.4651  0.1884
14748TIP3    H265736   6.353   5.314  16.562  0.1075 -1.6554  0.9604
14749TIP3   OH265737   3.633   6.452   4.280  0.4891 -0.0212 -0.4760
14749TIP3    H165738   3.682   6.460   4.361 -3.4104  2.9889  1.9675
14749TIP3    H265739   3.673   6.515   4.221  0.9315  0.7820  0.6415
14750TIP3   OH265740   4.014   2.210   6.358 -0.3894 -0.1713 -0.1157
14750TIP3    H165741   4.040   2.121   6.332 -0.0435  0.4994 -2.3451
14750TIP3    H265742   4.096   2.258   6.365 -0.6345  0.2614 -0.1475
14751TIP3   OH265743   6.381   5.031  14.760 -0.2760 -0.2180  0.5347
14751TIP3    H165744   6.306   5.074  14.720 -0.0263  0.8234  1.1371
14751TIP3    H265745   6.401   5.085  14.837  2.4136  0.7956 -0.7776
14752TIP3   OH265746   4.095   5.337  11.832  0.0893 -0.5239 -0.5413
14752TIP3    H165747   4.084   5.243  11.842 -0.1214 -0.3244  1.4662
14752TIP3    H265748   4.117   5.368  11.920  1.9831  1.0700 -1.5050
14753TIP3   OH265749   0.331   1.013  15.139 -0.5536 -0.0040 -0.2728
14753TIP3    H165750   0.422   1.017  15.109 -0.7466  1.7302 -0.7357
14753TIP3    H265751   0.309   0.920  15.137  1.5850 -0.6099  1.0061
14754TIP3   OH265752   0.203   1.949   1.324  0.4338  0.3423  0.4029
14754TIP3    H165753   0.217   1.859   1.294  1.2706  0.4618  0.4160
14754TIP3    H265754   0.250   1.953   1.408  0.8613  0.9507  0.1357
14755TIP3   OH265755   5.527   0.962  13.983  0.5550 -0.0791 -0.2025
14755TIP3    H165756   5.540   0.908  14.061 -1.3724 -0.3587 -0.0200
14755TIP3    H265757   5.560   0.908  13.911  3.7649  0.7629  0.4529
14756TIP3   OH265758   3.066   0.375  11.462  0.6554 -0.8523  0.1000
14756TIP3    H165759   2.991   0.335  11.420  1.3300  0.0506 -2.0850
14756TIP3    H265760   3.116   0.302  11.497 -0.5376 -1.5457  0.4193
14757TIP3   OH265761   6.510   0.637   3.955  0.0861  0.6126 -0.5097
14757TIP3    H165762   6.525   0.686   3.874  2.4995  0.0998 -0.4700
14757TIP3    H265763   6.510   0.545   3.928  2.1849  0.3570  0.1208
14758TIP3   OH265764   4.587   6.722  15.538  0.2251  0.0039 -0.9382
14758TIP3    H165765   4.593   6.732  15.443  0.7469  2.1815 -0.7422
14758TIP3    H265766   4.648   6.651  15.559  0.2139 -0.4043 -2.1985
14759TIP3   OH265767   0.132   1.368   5.460  0.3073  0.0574 -0.1282
14759TIP3    H165768   0.111   1.438   5.522 -3.3109 -0.6379 -0.3585
14759TIP3    H265769   0.106   1.404   5.374  0.2535 -0.8443 -0.4967
14760TIP3   OH265770   1.120   5.113   0.801 -0.2813 -0.3361  0.3742
14760TIP3    H165771   1.041   5.155   0.765  1.4096  1.5149 -1.4185
14760TIP3    H265772   1.165   5.078   0.724  1.8704  0.8711  1.0273
14761TIP3   OH265773   5.433   5.365  14.633 -0.3608 -0.1825 -0.3400
14761TIP3    H165774   5.368   5.356  14.563 -0.9061 -0.3718  0.1815
14761TIP3    H265775   5.399   5.437  14.687 -1.2154 -1.5888  1.0735
14762TIP3   OH265776   5.368   4.491   0.349  0.0582  0.0815  0.4770
14762TIP3    H165777   5.337   4.490   0.259  1.1827 -0.9295  0.0717
14762TIP3    H265778   5.297   4.533   0.398 -0.8382  0.0887 -0.7689
14763TIP3   OH265779   1.970   0.511  16.305 -0.0951  0.0891 -0.1406
14763TIP3    H165780   1.958   0.424  16.266  0.6448 -0.8969  1.6861
14763TIP3    H265781   2.065   0.522  16.311 -0.1697  0.3010  1.0671
14764TIP3   OH265782   0.018   5.902  14.195 -0.0235 -0.3227 -0.2733
14764TIP3    H165783   0.080   5.970  14.221 -0.1719 -0.5440  0.7159
14764TIP3    H265784   0.071   5.839  14.146  0.0068  0.7593 -1.7022
14765TIP3   OH265785   3.071   0.135   2.699  0.4195 -0.5228  0.4418
14765TIP3    H165786   2.988   0.171   2.731  1.0733  0.6390  0.8856
14765TIP3    H265787   3.045   0.067   2.637 -0.8671  0.7653 -0.5018
14766TIP3   OH265788   6.534   3.255  15.383  0.3865 -0.0144 -0.2419
14766TIP3    H165789   6.528   3.287  15.473 -0.2229 -0.4843 -0.1077
14766TIP3    H265790   6.584   3.322  15.337 -0.8593  1.1584  0.0185
14767TIP3   OH265791   5.086   1.294   5.701  0.1069 -0.7445 -0.1539
14767TIP3    H165792   5.127   1.208   5.685  0.7582 -0.0694 -2.4262
14767TIP3    H265793   5.021   1.276   5.769  2.3055 -2.4066  1.7295
14768TIP3   OH265794   4.486   2.219   4.962  0.4522 -0.1096 -0.6195
14768TIP3    H165795   4.483   2.194   4.870  1.5376 -0.9183 -0.4473
14768TIP3    H265796   4.447   2.144   5.008 -1.1314  0.7552 -0.4822
14769TIP3   OH265797   1.255   0.079  16.051 -0.5011  0.1878  0.4774
14769TIP3    H165798   1.164   0.071  16.021 -0.6045  1.9571  0.1785
14769TIP3    H265799   1.253   0.053  16.143 -1.8399  2.4044  1.1668
14770TIP3   OH265800   5.975   1.993  14.421  0.5126  0.4896  0.0287
14770TIP3    H165801   5.985   1.942  14.341 -0.0309 -0.6837  0.6790
14770TIP3    H265802   6.055   1.976  14.470  0.7503  1.0355 -0.1639
14771TIP3   OH265803   3.948   2.721  12.363 -0.1934 -0.2069 -0.1812
14771TIP3    H165804   3.885   2.652  12.382  0.6298 -0.8704  0.1825
14771TIP3    H265805   3.932   2.787  12.430  0.4267 -1.0093  0.7889
14772TIP3   OH265806   1.472   0.880  14.935 -0.4221 -0.0064  0.1255
14772TIP3    H165807   1.526   0.940  14.986  1.0892 -1.2727  0.0861
14772TIP3    H265808   1.396   0.932  14.908  1.7813  2.5056 -1.6864
14773TIP3   OH265809   3.687   6.326   0.783  0.1162 -0.3726 -0.3576
14773TIP3    H165810   3.675   6.279   0.700 -1.4109 -0.4441 -0.1300
14773TIP3    H265811   3.704   6.257   0.847 -2.9212 -0.8379  0.1282
14774TIP3   OH265812   3.365   5.051   0.011 -0.3836 -0.1935 -0.2923
14774TIP3    H165813   3.331   5.114   0.074 -0.3115 -1.0841  0.6560
14774TIP3    H265814   3.446   5.018   0.050  0.6785  0.5903 -1.7031
14775TIP3   OH265815   0.534   0.067  14.428  0.3933  0.0110 -0.3553
14775TIP3    H165816   0.442   0.093  14.425  0.4551  0.1682 -0.9721
14775TIP3    H265817   0.543   0.001  14.360  0.6600 -0.2726 -0.0498
14776TIP3   OH265818   5.845   5.243  13.072 -0.1024 -0.0038  0.2646
14776TIP3    H165819   5.879   5.237  12.983  0.8900  1.0421  0.5407
14776TIP3    H265820   5.904   5.304  13.116  0.2372 -1.4973  2.0270
14777TIP3   OH265821   0.191   5.409  12.772 -0.4967  0.0194  0.4354
14777TIP3    H165822   0.153   5.473  12.831 -0.9099  0.9335 -0.7757
14777TIP3    H265823   0.119   5.387  12.712  0.8034  1.8649 -1.9790
14778TIP3   OH265824   3.361   4.562   1.660  1.0607  0.1266  0.1750
14778TIP3    H165825   3.451   4.536   1.680  0.6084  0.5890  3.4260
14778TIP3    H265826   3.307   4.491   1.696  0.0899  0.7882  0.0767
14779TIP3   OH265827   4.741   3.702   3.083  0.1424 -0.3028 -0.1544
14779TIP3    H165828   4.704   3.776   3.131 -1.4802 -0.6696 -0.7779
14779TIP3    H265829   4.811   3.668   3.140 -1.7023 -0.7543  1.9631
14780TIP3   OH265830   4.326   2.202   3.697  0.6489 -0.0523  0.1768
14780TIP3    H165831   4.329   2.168   3.786  0.6415  0.4462  0.3712
14780TIP3    H265832   4.238   2.182   3.666  0.8577 -0.8060  0.0424
14781TIP3   OH265833   0.743   4.213   4.061  0.1095  0.1084  0.2015
14781TIP3    H165834   0.781   4.265   4.131  1.9602 -1.2791  0.3142
14781TIP3    H265835   0.659   4.183   4.096 -0.7360  2.4339  0.3442
14782TIP3   OH265836   3.469   0.321  14.937  0.0305  0.5613 -0.0807
14782TIP3    H165837   3.437   0.230  14.930  0.8395  0.3673 -1.8182
14782TIP3    H265838   3.517   0.323  15.020 -3.4838  0.5937  2.1452
14783TIP3   OH265839   5.810   1.297   5.526 -0.2301 -1.0044  0.6563
14783TIP3    H165840   5.815   1.353   5.449 -0.0901  0.4523  1.6716
14783TIP3    H265841   5.840   1.353   5.598 -1.0274 -2.0830  1.8802
14784TIP3   OH265842   6.711   4.343  12.077  0.3066  0.1064 -0.2732
14784TIP3    H165843   6.748   4.354  11.990  2.6400  2.6602  0.8771
14784TIP3    H265844   6.780   4.298  12.126 -1.2942 -2.0428  0.1280
14785TIP3   OH265845   5.535   4.065   1.095  0.5517  0.3027  0.0316
14785TIP3    H165846   5.573   4.137   1.144 -1.6758  2.2685 -0.8917
14785TIP3    H265847   5.488   4.014   1.160  0.1690  1.1051  0.4009
14786TIP3   OH265848   3.695   4.991  14.029 -0.7531  0.6157 -0.1000
14786TIP3    H165849   3.695   4.897  14.047 -2.2468  0.4892 -0.6348
14786TIP3    H265850   3.763   5.026  14.086  0.7592 -0.9515 -0.8608
14787TIP3   OH265851   5.743   6.503   0.129  0.5128  0.2709  0.3404
14787TIP3    H165852   5.727   6.590   0.167 -1.3429  0.2363 -0.2837
14787TIP3    H265853   5.663   6.482   0.082  2.1201 -0.3416 -2.3453
14788TIP3   OH265854   4.574   5.679  13.499  0.0449  0.4719 -0.4648
14788TIP3    H165855   4.521   5.714  13.570 -0.4126 -0.0712 -0.5352
14788TIP3    H265856   4.608   5.597  13.533 -1.8888 -0.8749 -1.5909
14789TIP3   OH265857   6.069   0.301  15.591  0.3331 -0.3818 -0.0537
14789TIP3    H165858   6.112   0.317  15.507  0.1522 -1.4384 -0.3582
14789TIP3    H265859   5.997   0.242  15.570  0.2129 -0.5575  0.8326
14790TIP3   OH265860   1.651   6.849  15.968  0.8545  0.0467 -0.0830
14790TIP3    H165861   1.598   6.847  15.889  1.2179 -1.9026 -0.3172
14790TIP3    H265862   1.740   6.869  15.938  1.1057 -1.2688 -0.2733
14791TIP3   OH265863   3.190   6.586   2.379 -0.3452 -0.0005  0.0874
14791TIP3    H165864   3.126   6.518   2.358  1.3881 -1.3184 -1.2878
14791TIP3    H265865   3.275   6.542   2.370  0.8383  2.2359 -0.3946
14792TIP3   OH265866   3.792   6.212  16.739  0.1683 -0.2327 -0.1700
14792TIP3    H165867   3.886   6.217  16.757  0.2300 -0.7801 -0.3249
14792TIP3    H265868   3.751   6.226  16.824  0.4169 -0.9673  0.0772
14793TIP3   OH265869   2.183   2.760   4.530  0.0237  0.3489 -0.3953
14793TIP3    H165870   2.199   2.666   4.527 -0.7254  0.1589  0.9621
14793TIP3    H265871   2.232   2.791   4.606 -1.7842  0.5872  0.7515
14794TIP3   OH265872   4.478   3.554   1.629 -0.3695 -0.3096 -0.6830
14794TIP3    H165873   4.393   3.592   1.607 -0.0490  0.0618 -1.3001
14794TIP3    H265874   4.539   3.593   1.567  0.2752 -0.4931 -0.1819
14795TIP3   OH265875   4.843   1.761  14.363  0.0195 -0.1587 -0.1966
14795TIP3    H165876   4.777   1.755  14.294 -0.4822 -0.1641  0.2752
14795TIP3    H265877   4.880   1.673  14.370 -1.5876 -0.7811  1.1354
14796TIP3   OH265878   1.077   1.147  15.640  0.2979  0.4179  0.2432
14796TIP3    H165879   1.007   1.116  15.698 -0.6440  0.7315 -0.6754
14796TIP3    H265880   1.042   1.229  15.603  1.0360  0.4322 -0.4429
14797TIP3   OH265881   4.316   2.381  11.380 -0.2219  0.1710 -0.1076
14797TIP3    H165882   4.357   2.415  11.300  1.3065 -0.2704  0.4468
14797TIP3    H265883   4.334   2.287  11.378 -1.7728 -0.1510 -0.1240
14798TIP3   OH265884   2.119   3.347  14.071  1.0157 -0.2993  0.2710
14798TIP3    H165885   2.059   3.375  14.002  2.7769 -0.2633 -1.3522
14798TIP3    H265886   2.164   3.427  14.097  1.9271 -0.6501 -0.1736
14799TIP3   OH265887   0.731   6.636  13.238  0.1101  0.4955 -0.3400
14799TIP3    H165888   0.657   6.672  13.190  0.8592  0.1394 -1.8159
14799TIP3    H265889   0.808   6.675  13.196  0.8327 -0.6514 -0.1382
14800TIP3   OH265890   0.308   0.730   4.983  0.2790  0.9304  0.1172
14800TIP3    H165891   0.255   0.787   5.038  0.0057  0.4944  0.3072
14800TIP3    H265892   0.285   0.641   5.011 -1.4544  0.5887 -2.1139
14801TIP3   OH265893   5.095   0.481  11.654 -0.5533 -0.1493  0.1351
14801TIP3    H165894   5.046   0.446  11.580 -0.0745 -0.9869  0.1901
14801TIP3    H265895   5.140   0.404  11.691 -0.0113  0.4190  0.6899
14802TIP3   OH265896   1.541   5.432  12.216 -0.4622 -0.0047 -0.0341
14802TIP3    H165897   1.596   5.393  12.284  1.4996 -0.6715 -1.9161
14802TIP3    H265898   1.452   5.427  12.252  0.5364  0.0747  2.6256
14803TIP3   OH265899   0.249   3.932   2.355  0.3289  0.2483 -0.0894
14803TIP3    H165900   0.183   3.901   2.416  0.2960  2.6883  1.2494
14803TIP3    H265901   0.291   3.853   2.322 -3.9477 -1.5749 -1.9554
14804TIP3   OH265902   0.374   6.436  12.518  0.3850  0.1381  0.0782
14804TIP3    H165903   0.417   6.503  12.464 -0.3989  0.5114 -0.0924
14804TIP3    H265904   0.389   6.354  12.470 -0.0497  0.4262 -0.5565
14805TIP3   OH265905   6.178   4.812  13.573 -0.3556 -0.2560 -0.0619
14805TIP3    H165906   6.107   4.768  13.620  1.0341 -1.2018  1.2595
14805TIP3    H265907   6.136   4.852  13.497 -2.4314 -0.0243  1.1439
14806TIP3   OH265908   2.459   4.376   1.532 -0.5620 -0.0737 -0.0447
14806TIP3    H165909   2.417   4.409   1.452 -1.4906 -0.6102  0.2071
14806TIP3    H265910   2.453   4.281   1.525  0.6929 -0.1703 -0.0221
14807TIP3   OH265911   3.426   1.374   3.795 -0.1356  0.2979  0.2321
14807TIP3    H165912   3.413   1.425   3.876 -0.5210  2.5086 -1.1277
14807TIP3    H265913   3.382   1.291   3.812 -0.7408  0.9429  2.0935
14808TIP3   OH265914   0.355   4.153  12.731 -0.0414 -0.1173  0.3327
14808TIP3    H165915   0.393   4.067  12.717 -0.2336 -0.1840  0.2216
14808TIP3    H265916   0.369   4.199  12.648  1.0828  0.3524  0.7606
14809TIP3   OH265917   3.968   5.796   5.820  0.4297  0.1007 -0.3572
14809TIP3    H165918   3.938   5.872   5.870  0.5288  0.4855 -0.8757
14809TIP3    H265919   4.053   5.823   5.784 -0.1361  0.2242 -1.6270
14810TIP3   OH265920   0.538   5.426  14.442 -0.2782 -0.7553 -0.3199
14810TIP3    H165921   0.571   5.479  14.370  1.7524  2.1194  2.4786
14810TIP3    H265922   0.493   5.487  14.499 -1.8649 -2.9311  0.9265
14811TIP3   OH265923   5.804   1.052   3.600  0.2700 -0.0716  0.1392
14811TIP3    H165924   5.726   1.009   3.563 -0.1278  0.5743  0.2123
14811TIP3    H265925   5.783   1.062   3.693  1.0898 -1.3036  0.4789
14812TIP3   OH265926   1.161   6.782   3.841 -0.0705  0.3212 -0.0469
14812TIP3    H165927   1.068   6.785   3.820 -0.0458  1.6544 -0.0287
14812TIP3    H265928   1.205   6.818   3.764  0.3356  0.8607  0.4261
14813TIP3   OH265929   2.350   0.436  12.884  0.2629 -0.0977 -0.6692
14813TIP3    H165930   2.437   0.400  12.868 -0.7488 -2.6817 -0.8255
14813TIP3    H265931   2.308   0.434  12.798 -0.4687 -0.4406 -0.3103
14814TIP3   OH265932   6.502   1.523   6.440  0.5045 -0.4195 -0.5787
14814TIP3    H165933   6.439   1.486   6.379  1.2182 -0.8196 -1.0754
14814TIP3    H265934   6.521   1.452   6.501 -0.7136  0.1704  0.5484
14815TIP3   OH265935   4.787   6.124   5.599  0.0577  0.0568 -0.7092
14815TIP3    H165936   4.807   6.152   5.509 -2.5520  1.3740 -0.9755
14815TIP3    H265937   4.839   6.182   5.654  0.5724  0.2106 -1.3356
14816TIP3   OH265938   6.776   1.120   4.830  0.5094  0.0972 -1.0545
14816TIP3    H165939   6.780   1.212   4.803  1.7399  0.0766 -1.0358
14816TIP3    H265940   6.850   1.079   4.785  1.1671 -0.4454  0.4329
14817TIP3   OH265941   2.073   1.804  11.156 -0.5879 -0.1585  0.1516
14817TIP3    H165942   2.027   1.725  11.129 -0.6839 -0.1112  0.1734
14817TIP3    H265943   2.067   1.804  11.252 -0.9540  0.0888  0.1337
14818TIP3   OH265944   6.215   2.682   5.544  0.0591  0.3757  0.3538
14818TIP3    H165945   6.281   2.633   5.494 -0.8113 -0.7524  0.2800
14818TIP3    H265946   6.234   2.774   5.524  1.6446  0.0757  0.3935
14819TIP3   OH265947   1.437   2.662  11.087  0.2523  0.2539  0.0083
14819TIP3    H165948   1.453   2.716  11.010 -1.0959  1.0918  0.2967
14819TIP3    H265949   1.452   2.720  11.162 -2.8546  0.8149  0.3183
14820TIP3   OH265950   4.758   3.531  13.710  0.0872 -0.4051 -0.4332
14820TIP3    H165951   4.810   3.544  13.789 -0.4033 -1.2848  0.0445
14820TIP3    H265952   4.668   3.529  13.741 -0.2399  0.8432 -1.2215
14821TIP3   OH265953   4.499   1.848  16.040  0.0820 -0.1244 -0.2371
14821TIP3    H165954   4.458   1.855  15.954 -1.9285  1.8716  0.7437
14821TIP3    H265955   4.569   1.913  16.039 -0.1278  0.1044 -0.3038
14822TIP3   OH265956   2.543   3.539   3.749 -0.2334 -0.7663  0.2666
14822TIP3    H165957   2.590   3.615   3.716  0.6600  0.2783  3.5203
14822TIP3    H265958   2.567   3.468   3.689  3.6150  0.2507  0.2999
14823TIP3   OH265959   3.505   0.871   0.284  0.0256 -0.8899 -0.3805
14823TIP3    H165960   3.465   0.790   0.315 -0.8432 -0.8392 -1.3199
14823TIP3    H265961   3.439   0.910   0.227  0.6026  0.2674 -0.2864
14824TIP3   OH265962   0.264   4.642   1.466 -0.3226  0.3067  0.2122
14824TIP3    H165963   0.342   4.597   1.433 -1.9653 -1.6961 -1.2565
14824TIP3    H265964   0.247   4.600   1.550 -0.5507 -0.2153 -0.0886
14825TIP3   OH265965   5.364   1.399  10.603  0.7646 -0.2039  0.2974
14825TIP3    H165966   5.389   1.337  10.535 -0.5028 -1.3644  0.8354
14825TIP3    H265967   5.268   1.395  10.605  0.6260  1.8734  0.2793
14826TIP3   OH265968   4.675   6.021   3.502 -0.2633  0.3008  0.2151
14826TIP3    H165969   4.737   6.068   3.558 -1.1570  0.2953  1.2488
14826TIP3    H265970   4.592   6.027   3.549 -0.5651 -1.6642  0.0124
14827TIP3   OH265971   4.426   3.348  11.744 -0.4052 -0.4487  0.2598
14827TIP3    H165972   4.499   3.397  11.706  0.2839 -0.3766  1.6453
14827TIP3    H265973   4.348   3.395  11.713 -0.0252 -1.5089 -2.6556
14828TIP3   OH265974   5.597   3.452   3.383  0.1008  0.1651 -0.8539
14828TIP3    H165975   5.552   3.505   3.318 -0.4776  0.4532 -0.2369
14828TIP3    H265976   5.527   3.406   3.429  0.6007 -1.3327 -1.5310
14829TIP3   OH265977   2.926   6.816   4.813  0.4561 -0.1112 -0.2421
14829TIP3    H165978   2.929   6.872   4.891 -2.0472  0.7074 -0.6317
14829TIP3    H265979   2.982   6.741   4.835  2.0764  1.4228  1.1929
14830TIP3   OH265980   0.539   6.129   3.887  0.8365  0.1645 -0.1001
14830TIP3    H165981   0.546   6.120   3.982  0.0593  1.4642  0.1011
14830TIP3    H265982   0.527   6.223   3.873  0.1213 -0.1067 -1.4349
14831TIP3   OH265983   4.388   5.914   3.347 -0.0186  0.0031  0.0327
14831TIP3    H165984   4.459   5.892   3.286 -0.5141  0.1975 -0.6341
14831TIP3    H265985   4.311   5.925   3.291 -0.9941 -1.9419  0.9047
14832TIP3   OH265986   5.781   6.458  12.239 -0.0402  0.4978 -0.1499
14832TIP3    H165987   5.701   6.414  12.269 -0.0967  0.4798 -0.3257
14832TIP3    H265988   5.751   6.521  12.174 -0.1180  1.7317  1.0425
14833TIP3   OH265989   4.096   3.230   2.395  0.8436  0.2171  0.6707
14833TIP3    H165990   4.138   3.311   2.366 -0.1417  0.1559 -1.1078
14833TIP3    H265991   4.165   3.164   2.391  0.6655  0.0736 -2.3664
14834TIP3   OH265992   5.431   4.628   4.699 -0.2151 -0.0937 -0.1513
14834TIP3    H165993   5.498   4.636   4.631  1.5947  0.9146  1.6170
14834TIP3    H265994   5.441   4.539   4.733 -0.4241 -0.2563 -0.5123
14835TIP3   OH265995   5.245   3.819  12.235 -0.0381  0.3717 -0.5231
14835TIP3    H165996   5.311   3.762  12.275 -0.9530 -0.6527 -0.4228
14835TIP3    H265997   5.294   3.895  12.205  0.8597  0.7201  1.6224
14836TIP3   OH265998   4.620   2.803  16.454 -0.4285 -0.2887 -0.5914
14836TIP3    H165999   4.547   2.823  16.513  1.4776 -1.4876  2.3982
14836TIP3    H266000   4.642   2.888  16.415 -1.8670  0.5228  0.2594
14837TIP3   OH266001   3.899   0.431  14.475  0.3357 -0.2829 -0.5394
14837TIP3    H166002   3.990   0.405  14.463 -0.0249 -2.4822  0.9572
14837TIP3    H266003   3.851   0.377  14.411 -0.0716 -0.4391 -0.1046
14838TIP3   OH266004   6.257   6.129  13.359 -0.4136  0.1247 -0.7658
14838TIP3    H166005   6.330   6.174  13.402 -1.1036  1.7917 -1.2549
14838TIP3    H266006   6.200   6.102  13.431 -0.4320  0.8615 -0.4950
14839TIP3   OH266007   4.806   6.257   4.103 -0.0303 -0.0354 -0.6654
14839TIP3    H166008   4.799   6.162   4.107 -0.6625  0.0141 -0.6247
14839TIP3    H266009   4.845   6.281   4.187  0.1981 -0.2617 -0.7059
14840TIP3   OH266010   2.453   4.435  16.035  0.0873  0.2661 -0.2933
14840TIP3    H166011   2.540   4.395  16.037  0.5283  0.6463 -4.4993
14840TIP3    H266012   2.393   4.361  16.042  0.6682 -0.0998  1.4478
14841TIP3   OH266013   1.564   6.232   2.147 -0.7263 -0.1641  0.0402
14841TIP3    H166014   1.651   6.207   2.177 -0.4786  0.3143 -0.2508
14841TIP3    H266015   1.504   6.193   2.210 -0.5549 -3.6466 -1.7379
14842TIP3   OH266016   3.653   1.852   1.563  0.0553 -0.4910  0.2433
14842TIP3    H166017   3.675   1.945   1.570  0.6940 -0.6169 -0.0289
14842TIP3    H266018   3.715   1.808   1.621 -3.0871 -0.4237  4.1049
14843TIP3   OH266019   1.102   2.858   0.014  0.3552  0.1253  0.0948
14843TIP3    H166020   1.131   2.774   0.051  0.6108  1.0861  2.2166
14843TIP3    H266021   1.183   2.909   0.005  0.5161 -0.4643 -3.1382
14844TIP3   OH266022   4.543   0.952  16.172  0.1481 -0.4445  0.0180
14844TIP3    H166023   4.625   0.903  16.163  0.4900  0.3483 -1.4908
14844TIP3    H266024   4.564   1.021  16.234 -0.1894 -1.8377  1.7592
14845TIP3   OH266025   3.936   0.437   0.065  0.2112  0.3834 -0.4970
14845TIP3    H166026   3.983   0.453   0.147  1.7714 -2.0042 -0.7986
14845TIP3    H266027   3.848   0.469   0.081  0.8170  1.1545  1.6558
14846TIP3   OH266028   5.604   5.288   5.014  0.0955  0.2584  0.3644
14846TIP3    H166029   5.585   5.229   4.941 -1.7957  0.8725  0.3200
14846TIP3    H266030   5.686   5.331   4.988  0.2750 -0.6610 -0.6726
14847TIP3   OH266031   2.402   2.773   3.814 -0.5604 -0.0368 -0.5111
14847TIP3    H166032   2.447   2.750   3.895 -1.8206  1.0286  0.5238
14847TIP3    H266033   2.462   2.833   3.769  0.0645 -0.4924 -0.2992
14848TIP3   OH266034   0.950   3.901  15.950 -0.6530  0.1767 -0.9672
14848TIP3    H166035   0.990   3.966  16.008 -1.3183 -0.9226  0.8082
14848TIP3    H266036   0.993   3.819  15.973 -0.8127 -0.2563 -2.1828
14849TIP3   OH266037   6.330   6.622   1.110 -0.7325  0.2663  0.4038
14849TIP3    H166038   6.363   6.696   1.160 -1.5737 -0.6235  2.4036
14849TIP3    H266039   6.235   6.627   1.120 -0.7612 -1.7852  1.7333
14850TIP3   OH266040   2.494   6.031  16.816 -0.2403 -0.3028  0.3448
14850TIP3    H166041   2.565   6.090  16.789 -0.1587 -0.1472  0.8923
14850TIP3    H266042   2.487   5.968  16.744  2.0423 -1.7605  1.2775
14851TIP3   OH266043   5.758   1.790   0.899 -0.9268 -0.1042  0.3028
14851TIP3    H166044   5.698   1.726   0.861 -1.7570  1.4444 -1.1012
14851TIP3    H266045   5.843   1.767   0.863 -1.2243 -0.3996 -0.2304
14852TIP3   OH266046   6.242   0.355  15.795 -0.3413  0.3556 -0.1499
14852TIP3    H166047   6.165   0.327  15.744 -1.5285 -0.2195  1.8500
14852TIP3    H266048   6.239   0.451  15.790 -0.8584  0.3296 -0.5387
14853TIP3   OH266049   2.432   0.592   2.087  0.5643  0.0539 -0.2710
14853TIP3    H166050   2.460   0.501   2.082  0.4079  0.0224 -0.6394
14853TIP3    H266051   2.345   0.588   2.128 -0.2504 -0.1455 -1.9320
14854TIP3   OH266052   3.982   6.761   1.804 -0.7700  0.0827  0.0809
14854TIP3    H166053   3.941   6.844   1.828 -1.1200  0.3592 -1.3549
14854TIP3    H266054   3.910   6.697   1.806 -0.9279  0.2192 -0.7079
14855TIP3   OH266055   5.054   1.118  13.072 -0.1778  0.2450  0.2549
14855TIP3    H166056   4.987   1.145  13.133 -0.9931  1.6552 -1.1875
14855TIP3    H266057   5.126   1.180  13.085 -0.8846  1.4079 -1.0529
14856TIP3   OH266058   0.426   0.356   0.479 -0.1201 -0.1214 -0.5993
14856TIP3    H166059   0.517   0.372   0.452  0.6613 -0.5145  1.5951
14856TIP3    H266060   0.391   0.443   0.497 -0.7590  0.1762 -3.0246
14857TIP3   OH266061   5.325   0.453  14.502 -0.1229  0.2505 -0.0342
14857TIP3    H166062   5.277   0.418  14.577 -1.1527  1.5040 -0.0813
14857TIP3    H266063   5.296   0.400  14.428  0.5370 -0.6757  0.3498
14858TIP3   OH266064   1.112   2.940   4.915 -0.3057  0.4956 -0.3508
14858TIP3    H166065   1.168   2.942   4.993  0.9655  0.1050 -1.2188
14858TIP3    H266066   1.085   2.849   4.908 -0.3919  0.5241 -0.3820
14859TIP3   OH266067   5.385   2.154  12.704  0.0246  0.4342  0.6014
14859TIP3    H166068   5.307   2.164  12.759  0.2013 -0.4262  1.0271
14859TIP3    H266069   5.401   2.241  12.669 -2.1369  0.3256 -0.8463
14860TIP3   OH266070   1.491   0.867   2.732  0.5451  0.8333  0.2263
14860TIP3    H166071   1.543   0.793   2.764 -0.4100  0.2726  0.5600
14860TIP3    H266072   1.444   0.898   2.810  0.7181  1.6039  0.0272
14861TIP3   OH266073   3.003   2.804   3.422  0.2735 -0.3046  0.0701
14861TIP3    H166074   3.010   2.750   3.500 -3.8144 -1.2981 -0.0001
14861TIP3    H266075   3.054   2.758   3.355  0.8823 -1.4044  1.2611
14862TIP3   OH266076   6.463   1.112   4.309  0.0878 -0.2768 -0.5884
14862TIP3    H166077   6.478   1.207   4.309  0.3404 -0.3149 -0.6549
14862TIP3    H266078   6.407   1.097   4.385  1.8575 -0.3437  0.7724
14863TIP3   OH266079   0.697   2.332  15.175 -0.5036  0.1029  0.6884
14863TIP3    H166080   0.770   2.351  15.117 -0.3522  0.3040  0.9434
14863TIP3    H266081   0.621   2.323  15.116 -0.4007  0.5543  0.4817
14864TIP3   OH266082   6.169   1.165  16.653 -0.6983 -0.0484  0.5287
14864TIP3    H166083   6.186   1.256  16.627  0.5062 -1.1355 -3.0527
14864TIP3    H266084   6.231   1.149  16.724  1.4098  1.0691 -0.9352
14865TIP3   OH266085   5.075   3.016   3.933 -0.1145  0.1890 -0.4748
14865TIP3    H166086   5.097   2.932   3.971  0.7827  0.4402 -0.4125
14865TIP3    H266087   5.159   3.051   3.901 -0.5382  0.8585 -0.8864
14866TIP3   OH266088   3.308   1.288   1.109  0.7846  0.5201 -0.2712
14866TIP3    H166089   3.378   1.353   1.108  0.0429  1.3446 -0.3337
14866TIP3    H266090   3.353   1.204   1.113  1.7647  1.0410 -0.0143
14867TIP3   OH266091   1.196   2.580   3.637 -0.2401 -0.2417 -0.6715
14867TIP3    H166092   1.138   2.532   3.697 -0.6166  0.6043 -0.3467
14867TIP3    H266093   1.137   2.623   3.575 -0.0802  1.6855  0.4366
14868TIP3   OH266094   1.377   1.705   0.502 -0.0117  0.7253  0.4347
14868TIP3    H166095   1.300   1.738   0.456 -0.9345 -2.3619 -0.5190
14868TIP3    H266096   1.450   1.757   0.469 -1.2017  1.2148 -1.5607
14869TIP3   OH266097   4.786   0.930   1.119  0.4196 -0.0488  0.2997
14869TIP3    H166098   4.718   0.893   1.175  0.0041  0.1349 -0.0766
14869TIP3    H266099   4.849   0.859   1.107  0.8140  0.0870  1.4654
14870TIP3   OH266100   1.774   4.522  15.744  0.0960  0.0907 -0.4322
14870TIP3    H166101   1.813   4.592  15.797 -0.4757 -0.4910  0.7937
14870TIP3    H266102   1.794   4.442  15.792  0.5404 -0.5837 -1.7060
14871TIP3   OH266103   6.401   5.114  14.077  0.1456  0.3102  0.0377
14871TIP3    H166104   6.478   5.170  14.074  1.2959 -1.2595 -0.8766
14871TIP3    H266105   6.387   5.097  14.170  0.7519  0.8055  0.2213
14872TIP3   OH266106   3.481   4.427  14.087  0.1492  0.0962 -0.2727
14872TIP3    H166107   3.467   4.382  14.170 -0.7561 -0.0434 -0.4824
14872TIP3    H266108   3.548   4.493  14.105  1.8616 -1.6143 -0.0523
14873TIP3   OH266109   4.539   0.974   1.550 -0.5092 -0.1935  0.4559
14873TIP3    H166110   4.560   0.888   1.515  0.8854  0.4607 -0.3857
14873TIP3    H266111   4.616   1.027   1.532 -0.9106  0.9584  1.9250
14874TIP3   OH266112   0.481   2.682  14.790  0.2062  0.3631  0.9630
14874TIP3    H166113   0.408   2.663  14.849 -0.7420 -0.8658 -0.5312
14874TIP3    H266114   0.464   2.628  14.713  2.4835  0.3720  0.3848
14875TIP3   OH266115   5.972   2.473  16.029  0.0118  0.1862 -0.2865
14875TIP3    H166116   5.903   2.510  15.974 -1.1274  1.6525  1.9857
14875TIP3    H266117   6.018   2.549  16.064  1.3066 -0.7284  0.0616
14876TIP3   OH266118   3.348   6.131   5.977  0.5945 -0.4107  0.3631
14876TIP3    H166119   3.352   6.225   5.995 -1.2671 -0.2588  0.1982
14876TIP3    H266120   3.260   6.118   5.941  0.3495 -2.4190  1.5913
14877TIP3   OH266121   3.505   4.550   5.684  0.4073 -0.0109  0.3797
14877TIP3    H166122   3.517   4.461   5.718  3.4949  0.1099 -0.1134
14877TIP3    H266123   3.520   4.542   5.590  0.2076  0.9565  0.2550
14878TIP3   OH266124   6.485   6.628  15.685 -0.0650 -0.3285 -0.0894
14878TIP3    H166125   6.523   6.696  15.741  2.4358 -1.1682 -0.6190
14878TIP3    H266126   6.420   6.585  15.739 -0.5605  1.4233  0.7871
14879TIP3   OH266127   3.085   5.809  14.395 -0.0510 -0.1997  0.2137
14879TIP3    H166128   3.072   5.879  14.330 -0.9867 -0.3343  0.2374
14879TIP3    H266129   3.115   5.854  14.473  1.1486 -0.0391 -0.3258
14880TIP3   OH266130   5.535   0.676   3.958  0.5517  0.2979  0.8281
14880TIP3    H166131   5.487   0.705   4.035 -0.6755  1.4473 -0.3009
14880TIP3    H266132   5.467   0.667   3.890  1.4941 -1.2583  0.0258
14881TIP3   OH266133   0.056   1.471  13.892  0.0935 -0.3128  0.0462
14881TIP3    H166134  -0.038   1.461  13.910  0.0674  0.8436  0.6359
14881TIP3    H266135   0.060   1.494  13.799 -0.3988  1.8966  0.5294
14882TIP3   OH266136   0.254   5.071  15.972  0.1352 -0.1156 -0.4018
14882TIP3    H166137   0.226   5.068  16.064  1.3475  2.0856  0.1117
14882TIP3    H266138   0.342   5.034  15.973  0.5004  0.7383 -0.5069
14883TIP3   OH266139   1.240   1.458   0.393 -0.2356 -0.5593 -0.9254
14883TIP3    H166140   1.258   1.392   0.325 -0.0194  0.4667 -1.8906
14883TIP3    H266141   1.326   1.476   0.431 -0.1794 -0.2785 -1.1853
14884TIP3   OH266142   1.003   3.643  12.365 -0.0064 -0.0826 -0.9110
14884TIP3    H166143   1.026   3.727  12.324  1.1257 -0.7555 -1.7276
14884TIP3    H266144   0.908   3.638  12.359 -0.2785  1.8833  0.6587
14885TIP3   OH266145   1.410   4.500  12.638  0.0894 -0.5091 -0.2328
14885TIP3    H166146   1.394   4.408  12.656  1.0932 -0.2838  2.0393
14885TIP3    H266147   1.410   4.506  12.542  0.6864 -2.9808 -0.4372
14886TIP3   OH266148   1.952   4.038   3.917 -0.0725 -0.1459  0.4675
14886TIP3    H166149   2.032   4.068   3.873 -0.9615  1.1748 -0.3418
14886TIP3    H266150   1.908   3.983   3.853 -0.2148 -0.1798  0.5938
14887TIP3   OH266151   3.795   2.557  12.507 -0.3110 -0.5188  0.0556
14887TIP3    H166152   3.717   2.502  12.498 -0.5428 -0.2659  0.4961
14887TIP3    H266153   3.865   2.496  12.530 -0.7625 -0.5282  1.4909
14888TIP3   OH266154   5.475   0.851   1.873  0.3380  0.2776  0.0073
14888TIP3    H166155   5.523   0.885   1.949 -0.0132 -1.5280  1.0969
14888TIP3    H266156   5.406   0.915   1.859  2.1138  2.1750 -0.6872
14889TIP3   OH266157   0.912   0.632   0.166  0.1711  0.1096  0.0795
14889TIP3    H166158   0.824   0.618   0.201  0.6336  0.9387  1.6673
14889TIP3    H266159   0.916   0.725   0.146  0.8305  0.1773  0.4724
14890TIP3   OH266160   3.788   0.786   1.111  0.3921  0.1059  0.2806
14890TIP3    H166161   3.882   0.801   1.124  0.1658  0.6481  1.4458
14890TIP3    H266162   3.783   0.706   1.059  1.5798  1.9601 -2.9947
14891TIP3   OH266163   5.329   2.932  15.666 -0.3114  0.6139 -0.2651
14891TIP3    H166164   5.346   2.889  15.750  0.6121  1.3516 -0.0595
14891TIP3    H266165   5.236   2.957  15.670 -0.3591  0.3502  0.4009
14892TIP3   OH266166   0.391   2.722   3.042  0.2026 -0.7213 -0.4256
14892TIP3    H166167   0.358   2.796   3.093  0.8061  0.8272 -2.1698
14892TIP3    H266168   0.365   2.645   3.092  0.1176  0.6668  1.8194
14893TIP3   OH266169   1.979   6.446   5.664  0.1320  0.5660 -0.1372
14893TIP3    H166170   1.951   6.537   5.654  2.1695  1.0278 -3.3332
14893TIP3    H266171   2.071   6.446   5.636  0.7708 -2.1942  1.5792
14894TIP3   OH266172   5.573   0.910   4.896  0.6229 -0.2534  0.3634
14894TIP3    H166173   5.512   0.966   4.847  2.1401  2.1575  1.0798
14894TIP3    H266174   5.521   0.876   4.969 -0.6921 -0.9600 -0.8429
14895TIP3   OH266175   6.596   4.923  13.195 -0.2229  0.1994  0.1608
14895TIP3    H166176   6.520   4.969  13.230 -0.9550 -0.1296 -0.9484
14895TIP3    H266177   6.617   4.969  13.114  0.1665 -0.2995 -0.0274
14896TIP3   OH266178   5.261   2.021  12.484  0.1310  0.3502  0.0663
14896TIP3    H166179   5.322   2.060  12.422 -0.9513  2.4195  0.2297
14896TIP3    H266180   5.293   2.048  12.570  1.0856 -1.7268  0.4387
14897TIP3   OH266181   2.831   3.205  14.905  0.0273  0.0281  0.0297
14897TIP3    H166182   2.749   3.184  14.860  0.0016  1.9460 -0.9115
14897TIP3    H266183   2.803   3.239  14.990 -0.1810  0.7690 -0.3263
14898TIP3   OH266184   3.024   3.307   5.460  0.1029  0.3500 -0.2973
14898TIP3    H166185   3.102   3.352   5.429 -0.7367  0.5605 -2.2463
14898TIP3    H266186   3.001   3.351   5.542  0.4406  2.1606 -1.1289
14899TIP3   OH266187   1.920   0.139  12.621 -0.3950  0.3583  0.0820
14899TIP3    H166188   1.883   0.143  12.533  0.0382  1.0351 -0.0837
14899TIP3    H266189   1.990   0.074  12.615 -0.8011 -0.0850  0.1033
14900TIP3   OH266190   6.635   3.078  15.077  0.6130  0.4330 -0.3447
14900TIP3    H166191   6.729   3.092  15.091  1.0195 -1.0649 -1.3488
14900TIP3    H266192   6.603   3.050  15.163  1.3795 -0.4165 -0.3153
14901TIP3   OH266193   5.169   2.928   7.034  0.1637  0.0715 -0.0949
14901TIP3    H166194   5.185   2.966   6.948 -0.2374 -0.4814 -0.4149
14901TIP3    H266195   5.075   2.911   7.036  0.6400 -3.2464 -0.9510
14902TIP3   OH266196   2.344   1.238   4.836  0.1372 -0.0661 -0.4580
14902TIP3    H166197   2.266   1.292   4.847 -0.5771 -1.2395  0.5055
14902TIP3    H266198   2.377   1.259   4.749 -1.0144  0.7590 -0.6994
14903TIP3   OH266199   3.804   0.496   3.128 -0.1558 -0.7273 -0.2819
14903TIP3    H166200   3.828   0.555   3.057 -1.1829  1.2709  0.9104
14903TIP3    H266201   3.726   0.451   3.096 -0.8919  0.5025 -0.3031
14904TIP3   OH266202   2.082   4.006   4.469  0.4360 -0.1767  0.0143
14904TIP3    H166203   1.994   4.027   4.439  0.3553  2.3953  1.7384
14904TIP3    H266204   2.134   3.997   4.389 -1.0764 -0.2609 -0.9876
14905TIP3   OH266205   2.298   3.970   0.767  0.2783  0.0334  0.1526
14905TIP3    H166206   2.254   3.950   0.849  0.0285 -0.7738 -0.1630
14905TIP3    H266207   2.345   3.889   0.745  1.7397  0.7874  0.3585
14906TIP3   OH266208   5.213   6.678   4.636  0.1920  0.5893 -0.4191
14906TIP3    H166209   5.194   6.770   4.617  0.1220  0.2903 -1.8972
14906TIP3    H266210   5.300   6.678   4.676 -1.2825  1.6425  3.1784
14907TIP3   OH266211   6.466   3.060   2.881  0.0266  0.2214  0.2207
14907TIP3    H166212   6.467   3.014   2.966 -1.1724  3.0078  1.8676
14907TIP3    H266213   6.394   3.019   2.833 -1.0602  0.3200  1.6670
14908TIP3   OH266214   5.595   0.350   5.109  0.5088 -0.4272 -0.5316
14908TIP3    H166215   5.558   0.395   5.184  0.1094  0.7001 -1.3724
14908TIP3    H266216   5.521   0.333   5.051  0.7854 -1.3966 -0.6326
14909TIP3   OH266217   0.229   3.379  15.769  0.4201 -0.2802 -0.0851
14909TIP3    H166218   0.289   3.449  15.794  0.0182 -0.2366  0.7897
14909TIP3    H266219   0.142   3.420  15.771  0.2812 -0.5460 -0.5647
14910TIP3   OH266220   2.194   3.773  13.327 -0.2951  0.0263 -0.9665
14910TIP3    H166221   2.255   3.845  13.342 -0.7132 -0.0804  1.7265
14910TIP3    H266222   2.249   3.701  13.296  0.3591  0.9793 -2.0961
14911TIP3   OH266223   6.851   0.962  14.624 -0.6154 -0.3573 -0.0850
14911TIP3    H166224   6.792   1.013  14.680  0.1234  0.0174  0.3619
14911TIP3    H266225   6.937   0.974  14.663 -0.2296 -0.8522 -0.7714
14912TIP3   OH266226   1.655   5.563  14.951 -0.1304  0.3516  0.2835
14912TIP3    H166227   1.655   5.611  15.034 -1.6894 -0.0776  0.5566
14912TIP3    H266228   1.668   5.631  14.884  2.0829  0.5962  0.8719
14913TIP3   OH266229   3.478   0.397   6.515 -0.3374 -0.1745  0.4806
14913TIP3    H166230   3.439   0.377   6.430 -1.3340  1.5323  0.4883
14913TIP3    H266231   3.403   0.424   6.570  0.6145  1.7387  0.9443
14914TIP3   OH266232   5.789   6.424  12.987 -0.0504 -0.1198  0.2569
14914TIP3    H166233   5.843   6.399  12.912  1.5016 -0.0238  1.2886
14914TIP3    H266234   5.845   6.482  13.038 -1.8489  1.5987  0.3995
14915TIP3   OH266235   4.526   3.096   3.260 -0.1736 -0.2863 -0.8769
14915TIP3    H166236   4.569   3.166   3.310  0.8913 -1.0267 -0.7176
14915TIP3    H266237   4.583   3.020   3.272 -2.5665 -1.8887  0.9805
14916TIP3   OH266238   3.661   4.944   2.696 -0.1580 -0.4425 -0.0760
14916TIP3    H166239   3.722   5.017   2.684  1.2275 -1.1449  2.0273
14916TIP3    H266240   3.698   4.874   2.642  0.9670 -0.8552  1.1633
14917TIP3   OH266241   5.880   1.378   2.756  0.3001  0.0371 -0.3207
14917TIP3    H166242   5.855   1.420   2.839 -1.4897 -0.3752 -0.6102
14917TIP3    H266243   5.957   1.327   2.778  0.9400  1.3459  0.6666
14918TIP3   OH266244   3.742   0.602   1.846 -0.3578  0.1070  0.0304
14918TIP3    H166245   3.756   0.530   1.907  0.1674  0.0973 -0.0982
14918TIP3    H266246   3.782   0.678   1.889  0.1379  0.0720 -0.3567
14919TIP3   OH266247   2.817   0.546  11.635  0.1997  0.5359 -0.2797
14919TIP3    H166248   2.867   0.622  11.608  0.5085  0.2048 -0.6448
14919TIP3    H266249   2.730   0.580  11.657  0.7885  1.2268  1.0693
14920TIP3   OH266250   1.840   2.505   3.775  0.3906 -0.0310  0.8655
14920TIP3    H166251   1.911   2.441   3.770 -0.1815 -0.5807 -1.3858
14920TIP3    H266252   1.872   2.580   3.725 -1.3842 -1.2032 -2.3437
14921TIP3   OH266253   3.595   5.277  13.642 -0.4225 -0.0172  0.1972
14921TIP3    H166254   3.617   5.347  13.704 -3.3253  0.6177  0.6687
14921TIP3    H266255   3.635   5.198  13.679 -0.4313  0.7053  1.8123
14922TIP3   OH266256   5.405   1.586  11.309  0.7062 -0.3279 -0.5654
14922TIP3    H166257   5.367   1.617  11.392 -1.1437  0.4764 -1.6582
14922TIP3    H266258   5.343   1.615  11.242  1.6957 -1.7546 -2.1636
14923TIP3   OH266259   5.288   1.043   1.365 -0.0188 -0.3249 -0.2728
14923TIP3    H166260   5.213   1.028   1.422 -1.0221  2.9328 -0.5235
14923TIP3    H266261   5.355   1.081   1.421  0.2927 -0.3427 -0.6235
14924TIP3   OH266262   2.360   2.004  14.094 -0.2229 -0.2876  0.0435
14924TIP3    H166263   2.390   2.002  14.003 -1.1793  0.6285 -0.3119
14924TIP3    H266264   2.286   2.065  14.093  0.5870  0.7728  1.7061
14925TIP3   OH266265   1.985   2.524  14.168  0.2864 -0.0785 -0.2794
14925TIP3    H166266   1.956   2.436  14.144 -2.1087  0.8223 -1.0085
14925TIP3    H266267   2.056   2.543  14.107 -0.1983 -0.9323 -1.1433
14926TIP3   OH266268   6.563   1.871   4.816  0.2791 -0.1288 -0.1499
14926TIP3    H166269   6.614   1.906   4.889  1.3131  1.3843 -1.5398
14926TIP3    H266270   6.621   1.807   4.775 -0.5337 -1.4377  0.6724
14927TIP3   OH266271   1.081   6.852  13.260 -0.3805  0.7098 -0.3121
14927TIP3    H166272   1.009   6.845  13.197 -0.2505 -0.2256 -0.3668
14927TIP3    H266273   1.149   6.901  13.213  0.4691 -1.6099 -1.6400
14928TIP3   OH266274   1.374   2.424  16.726  0.1904  0.3840 -0.2104
14928TIP3    H166275   1.391   2.365  16.652 -0.0244 -1.3193  1.0265
14928TIP3    H266276   1.426   2.502  16.707 -0.1187  0.1245 -2.2940
14929TIP3   OH266277   1.594   0.893  14.308  0.1810  0.9506  0.1190
14929TIP3    H166278   1.555   0.813  14.345 -0.0434  0.7152 -0.6112
14929TIP3    H266279   1.679   0.900  14.352 -0.0099  0.5895  0.5626
14930TIP3   OH266280   2.668   2.063   3.099  0.0118 -0.1894  0.0844
14930TIP3    H166281   2.731   2.084   3.169  0.7390 -1.2653 -0.2231
14930TIP3    H266282   2.722   2.049   3.022 -0.7644  0.6506 -0.6370
14931TIP3   OH266283   2.017   1.132  13.406 -0.2487 -0.7615  0.0664
14931TIP3    H166284   1.956   1.060  13.388  0.5018 -1.6938  1.1252
14931TIP3    H266285   2.066   1.103  13.483  1.3269  0.1017 -0.5774
14932TIP3   OH266286   2.166   4.668   0.388 -0.1669  0.1456  0.5553
14932TIP3    H166287   2.139   4.616   0.463 -1.1938 -0.4908 -0.2450
14932TIP3    H266288   2.244   4.624   0.354 -1.1538 -1.0501 -0.2522
14933TIP3   OH266289   4.632   3.650   2.159  0.0270 -0.0775  0.3239
14933TIP3    H166290   4.722   3.683   2.149  0.3321 -0.3217  1.9809
14933TIP3    H266291   4.612   3.610   2.075  0.8225  1.5221 -0.6693
14934TIP3   OH266292   0.871   4.467   3.557 -0.2013  0.1063 -0.5039
14934TIP3    H166293   0.887   4.546   3.505 -1.4642  1.4617  1.0271
14934TIP3    H266294   0.798   4.423   3.512 -2.4989  2.1923  0.8946
14935TIP3   OH266295   4.562   2.408  13.349  0.3562  0.0332  0.7333
14935TIP3    H166296   4.507   2.456  13.412 -0.1022  0.4243  0.0462
14935TIP3    H266297   4.571   2.467  13.275  1.6863 -0.0465  0.8067
14936TIP3   OH266298   1.505   5.485   1.536  0.1966 -0.1067 -0.3578
14936TIP3    H166299   1.456   5.444   1.607  1.1029  0.3049  0.5315
14936TIP3    H266300   1.443   5.488   1.462 -0.4122 -1.5296  0.0612
14937TIP3   OH266301   3.680   4.802   1.348  0.5689 -0.1337  0.4885
14937TIP3    H166302   3.764   4.799   1.393  0.3824  0.9658  0.9455
14937TIP3    H266303   3.702   4.796   1.255  0.9329 -2.8693  0.6569
14938TIP3   OH266304   0.643   5.774  11.482 -0.3650 -0.1622 -0.1650
14938TIP3    H166305   0.627   5.799  11.391  0.7654 -0.2953 -0.4196
14938TIP3    H266306   0.731   5.807  11.500 -0.7871  0.3309  1.0587
14939TIP3   OH266307   4.137   1.275   4.510 -0.5270 -0.4088 -0.4529
14939TIP3    H166308   4.215   1.326   4.531 -1.0447  0.5425 -0.7899
14939TIP3    H266309   4.125   1.288   4.416 -0.6718 -1.1476 -0.5395
14940TIP3   OH266310   4.479   6.680  16.580 -0.1646 -0.6834  0.2848
14940TIP3    H166311   4.524   6.596  16.591  1.6347  0.1730 -0.1298
14940TIP3    H266312   4.458   6.708  16.670  0.8544 -0.7418  0.5518
14941TIP3   OH266313   5.191   0.036  11.944  0.2112  0.3227  0.2888
14941TIP3    H166314   5.172   0.057  11.852  0.6671  0.3615  0.2007
14941TIP3    H266315   5.259  -0.031  11.939 -1.2808 -1.2667  0.5633
14942TIP3   OH266316   1.184   1.372   2.623 -0.3347 -0.4190  0.0556
14942TIP3    H166317   1.264   1.360   2.674  0.4570 -0.7822 -1.2158
14942TIP3    H266318   1.170   1.467   2.623  1.4845 -0.0722 -1.6540
14943TIP3   OH266319   0.651   3.729  14.012  0.2914  0.2811  0.4799
14943TIP3    H166320   0.690   3.645  14.039 -0.0089  0.5032  1.6728
14943TIP3    H266321   0.572   3.705  13.965  1.2909 -0.1511 -1.0490
14944TIP3   OH266322   6.607   4.516   5.595 -0.6031  0.0072 -0.4101
14944TIP3    H166323   6.515   4.532   5.576 -0.0186  0.9910 -2.6890
14944TIP3    H266324   6.639   4.599   5.631 -0.0048  0.6568 -2.3120
14945TIP3   OH266325   6.417   5.828   0.933  0.4477  0.5598  0.1576
14945TIP3    H166326   6.512   5.820   0.926  0.4748 -0.3803  1.2658
14945TIP3    H266327   6.399   5.820   1.027 -0.7862  0.0131 -0.1072
14946TIP3   OH266328   6.523   0.149   4.447  0.3888  0.1885 -0.2373
14946TIP3    H166329   6.489   0.067   4.482  1.0525 -0.1918 -0.4692
14946TIP3    H266330   6.600   0.168   4.500  0.2710  0.6399 -0.2198
14947TIP3   OH266331   1.645   1.215   5.562 -0.4181  0.2022  0.2112
14947TIP3    H166332   1.701   1.272   5.509 -0.9648  1.1247  0.6048
14947TIP3    H266333   1.565   1.265   5.575 -0.0348  0.3362  2.5375
14948TIP3   OH266334   6.093   3.891  15.658 -0.2023 -0.3495 -0.1485
14948TIP3    H166335   6.061   3.877  15.747 -1.1201 -0.9353 -0.5444
14948TIP3    H266336   6.046   3.826  15.606  2.1841 -1.7482 -0.7043
14949TIP3   OH266337   1.721   2.865   4.473  0.4369  0.3744 -0.4377
14949TIP3    H166338   1.683   2.953   4.474 -0.5759 -0.0084 -1.9358
14949TIP3    H266339   1.810   2.877   4.441  0.0243  0.7771 -1.4594
14950TIP3   OH266340   0.916   2.822  11.782  0.5266 -0.2760 -0.7390
14950TIP3    H166341   0.930   2.731  11.756  1.4573 -0.0058 -1.2317
14950TIP3    H266342   1.003   2.861  11.778  0.1992  0.5385 -0.1346
14951TIP3   OH266343   2.157   2.150   5.532  0.0128  0.1581  0.0947
14951TIP3    H166344   2.246   2.115   5.538 -0.3788 -0.9904 -0.3978
14951TIP3    H266345   2.104   2.075   5.505 -1.0841  0.8603  0.2310
14952TIP3   OH266346   3.604   4.650  13.056 -0.7225 -0.4785  0.3588
14952TIP3    H166347   3.509   4.638  13.054 -0.6430 -1.0599 -0.7436
14952TIP3    H266348   3.638   4.584  12.996  0.1481  1.8805 -1.9070
14953TIP3   OH266349   5.830   5.116  13.892  0.1784  0.0329  0.2554
14953TIP3    H166350   5.768   5.185  13.869  0.5110  0.0238 -0.6884
14953TIP3    H266351   5.853   5.134  13.983  0.7745  1.5604 -0.1715
14954TIP3   OH266352   5.108   4.597   2.888  0.2872 -0.1778  0.0633
14954TIP3    H166353   5.066   4.591   2.802  0.3494 -1.5810  0.1111
14954TIP3    H266354   5.051   4.547   2.946  1.4895 -1.3100  0.3267
14955TIP3   OH266355   5.037   4.919   0.221  0.6922  0.1560 -0.3645
14955TIP3    H166356   4.998   4.962   0.297  1.8730 -0.1303  0.4190
14955TIP3    H266357   4.964   4.911   0.159 -0.7902 -1.3000  1.4428
14956TIP3   OH266358   1.716   0.007   2.961 -0.5922  0.1035 -0.5451
14956TIP3    H166359   1.763   0.077   3.008 -0.3235 -0.2565 -0.2703
14956TIP3    H266360   1.765  -0.072   2.981 -0.0728  0.0321 -1.9964
14957TIP3   OH266361   1.946   3.783   1.589 -0.1218  0.1274  0.8989
14957TIP3    H166362   1.973   3.796   1.498  2.0318  1.6884  1.6610
14957TIP3    H266363   2.009   3.719   1.623 -0.1551  0.4470  1.5782
14958TIP3   OH266364   1.176   5.720   3.606 -0.2920 -0.8789  0.2974
14958TIP3    H166365   1.149   5.753   3.692  1.5708 -1.1357  1.0084
14958TIP3    H266366   1.094   5.691   3.565 -1.2531 -0.4536  1.8465
14959TIP3   OH266367   3.333   2.907   6.119 -0.3074 -0.5128  0.0124
14959TIP3    H166368   3.334   2.990   6.166 -1.5464 -0.3418 -0.2187
14959TIP3    H266369   3.288   2.847   6.179 -0.7516 -0.6205 -0.4242
14960TIP3   OH266370   1.113   6.185  13.402  0.2974 -0.5393  0.2270
14960TIP3    H166371   1.060   6.164  13.479 -0.3668  1.3814  0.3473
14960TIP3    H266372   1.202   6.164  13.429  0.3243  1.6515  2.2136
14961TIP3   OH266373   0.811   3.372  11.281  0.3599 -0.5187  0.3192
14961TIP3    H166374   0.747   3.375  11.211  0.8977 -0.5073 -0.1764
14961TIP3    H266375   0.797   3.287  11.323 -0.3742 -0.2660  0.5971
14962TIP3   OH266376   2.498   1.174   4.304  0.4043  0.2870 -0.3961
14962TIP3    H166377   2.463   1.111   4.241 -1.0636  1.4899 -0.8625
14962TIP3    H266378   2.494   1.128   4.388  0.7326 -0.7333 -0.9179
14963TIP3   OH266379   1.869   5.474  12.218  0.3119  0.5427 -0.1140
14963TIP3    H166380   1.796   5.423  12.184 -0.0095  0.7094  0.3103
14963TIP3    H266381   1.828   5.550  12.259  0.6497  0.1648  0.9738
14964TIP3   OH266382   4.667   4.894  14.053 -0.1211 -0.0869 -0.2383
14964TIP3    H166383   4.658   4.873  13.960 -2.8169  1.3923 -0.4285
14964TIP3    H266384   4.658   4.809  14.097 -0.6199 -0.5950 -1.2741
14965TIP3   OH266385   5.606   3.873  13.129 -0.1574 -0.8772  0.4058
14965TIP3    H166386   5.596   3.779  13.119 -0.4311 -0.7326 -0.8179
14965TIP3    H266387   5.518   3.905  13.151 -0.0757 -0.9001  0.7693
14966TIP3   OH266388   1.778   0.224  11.066  0.2441 -0.1433 -0.3414
14966TIP3    H166389   1.780   0.252  11.157 -0.0237  2.2032 -0.9931
14966TIP3    H266390   1.859   0.175  11.053  1.1158  0.9674  0.7389
14967TIP3   OH266391   4.009   5.012  13.306  0.3142  0.4579  0.7915
14967TIP3    H166392   4.054   5.095  13.293  1.1110  0.2822  2.2140
14967TIP3    H266393   4.015   4.967  13.221  1.5445  1.0593  0.5401
14968TIP3   OH266394   4.051   3.654  14.261 -0.0237 -0.1644  0.6092
14968TIP3    H166395   3.993   3.727  14.284 -1.2183 -0.6843 -0.5834
14968TIP3    H266396   4.004   3.576  14.291 -0.0812 -0.6079 -0.5563
14969TIP3   OH266397   5.335   0.314  11.633 -0.4402 -0.7723  0.9580
14969TIP3    H166398   5.429   0.327  11.648 -0.2756 -1.9114  1.0158
14969TIP3    H266399   5.330   0.283  11.542 -0.7635 -0.6709  0.9413
14970TIP3   OH266400   4.197   5.884   5.696  0.0986 -0.5664  0.1051
14970TIP3    H166401   4.146   5.947   5.645  1.6704 -1.1455 -2.3311
14970TIP3    H266402   4.287   5.916   5.692  0.4627 -1.3235  1.4959
14971TIP3   OH266403   0.409   6.463   5.671  0.8439  0.1078 -0.1470
14971TIP3    H166404   0.335   6.517   5.698  1.6598  2.0033 -1.4335
14971TIP3    H266405   0.486   6.512   5.703  1.5946 -1.1411  0.0327
14972TIP3   OH266406   3.804   3.886   0.928  0.6196 -0.2086  0.3746
14972TIP3    H166407   3.872   3.861   0.991  1.5258  1.2417  0.0339
14972TIP3    H266408   3.727   3.904   0.981  1.1146  0.1506  0.9871
14973TIP3   OH266409   6.854   3.455   4.482 -0.0821 -0.1820 -0.6491
14973TIP3    H166410   6.926   3.503   4.523  1.3149 -0.0265 -3.0902
14973TIP3    H266411   6.784   3.519   4.472  1.6119  1.4387 -3.4952
14974TIP3   OH266412   5.526   0.240   2.854 -0.1030 -0.3334 -0.0971
14974TIP3    H166413   5.513   0.154   2.814  0.9064 -1.8803  2.6123
14974TIP3    H266414   5.614   0.266   2.827  0.0292 -0.6869 -0.0100
14975TIP3   OH266415   3.480   6.630   2.912 -0.5114  0.5206 -0.0442
14975TIP3    H166416   3.495   6.541   2.945 -0.0586  0.5789 -0.0866
14975TIP3    H266417   3.415   6.619   2.843 -2.0447  0.4786  1.3216
14976TIP3   OH266418   4.924   0.159  12.729 -0.2817  0.4753 -0.5126
14976TIP3    H166419   4.936   0.250  12.758  0.4565  0.5716 -1.0822
14976TIP3    H266420   4.884   0.115  12.804  0.4371  1.0013  0.2004
14977TIP3   OH266421   0.919   1.657   2.362 -0.0637 -0.3530 -0.0488
14977TIP3    H166422   0.887   1.569   2.340  1.0231 -0.8654  0.3468
14977TIP3    H266423   0.865   1.716   2.309  0.3617 -1.3681 -1.7063
14978TIP3   OH266424   3.438   6.855  16.981 -0.3108  0.4312 -1.0828
14978TIP3    H166425   3.394   6.775  17.010 -0.3189  0.9635  0.4552
14978TIP3    H266426   3.379   6.892  16.916 -1.1846  0.1247 -0.4815
14979TIP3   OH266427   6.645   0.819   5.666 -0.7846 -0.1240  0.0566
14979TIP3    H166428   6.644   0.727   5.637  0.1318 -0.5345  1.2582
14979TIP3    H266429   6.650   0.869   5.585  2.8599 -1.2693 -0.6284
14980TIP3   OH266430   6.064   1.267  15.029 -0.3704 -0.1771 -0.1353
14980TIP3    H166431   6.115   1.344  15.053  1.3105 -1.6504  1.2947
14980TIP3    H266432   6.116   1.225  14.960 -2.5449  1.2049 -2.8404
14981TIP3   OH266433   6.333   6.600  13.435  0.6107 -0.2577 -0.0805
14981TIP3    H166434   6.404   6.652  13.472  1.8342 -1.6861 -0.3053
14981TIP3    H266435   6.375   6.544  13.370 -0.7007 -1.2163 -0.1615
14982TIP3   OH266436   5.823   0.291  13.351  0.4995  0.0594 -0.9769
14982TIP3    H166437   5.846   0.299  13.444 -2.5105 -0.3146 -0.0911
14982TIP3    H266438   5.744   0.344  13.342 -0.0082 -0.9770 -3.0453
14983TIP3   OH266439   2.493   1.494   3.004  0.5295  0.6235 -0.3544
14983TIP3    H166440   2.516   1.419   2.949 -1.3349  0.8968 -1.5961
14983TIP3    H266441   2.428   1.460   3.066  1.7642  0.5914  0.9752
14984TIP3   OH266442   0.662   3.304  16.928  0.2486 -0.3872  0.2105
14984TIP3    H166443   0.574   3.269  16.941 -0.4795  0.9206 -0.9043
14984TIP3    H266444   0.719   3.226  16.928 -1.4012 -1.8358 -3.2352
14985TIP3   OH266445   0.825   3.871   4.247  0.0915  0.4990 -0.2357
14985TIP3    H166446   0.852   3.858   4.337 -0.4182  2.0287  0.1691
14985TIP3    H266447   0.905   3.896   4.201  0.5272 -1.1286 -0.4345
14986TIP3   OH266448   0.328   1.349  10.022  0.1948  0.3514  0.1913
14986TIP3    H166449   0.298   1.282   9.961  1.5786 -1.0083  0.9205
14986TIP3    H266450   0.414   1.375   9.988 -0.1979  1.5522  0.0858
14987TIP3   OH266451   0.987   5.495  16.540  0.1114 -0.2957 -0.3441
14987TIP3    H166452   0.919   5.432  16.516  0.8118 -1.6323  1.0047
14987TIP3    H266453   1.051   5.489  16.470  0.1472 -1.0730 -0.2539
14988TIP3   OH266454   3.419   2.263   0.572 -0.1123  0.4164 -0.4158
14988TIP3    H166455   3.422   2.323   0.647 -1.7873 -1.4595  1.2987
14988TIP3    H266456   3.348   2.297   0.517 -2.6620 -1.0419  1.7005
14989TIP3   OH266457   5.658   4.346   2.956 -0.2951 -0.6177  0.4096
14989TIP3    H166458   5.678   4.280   3.023  0.0331 -0.4963  0.4336
14989TIP3    H266459   5.574   4.318   2.920  0.4592 -1.8295 -0.5171
14990TIP3   OH266460   0.719   4.265  15.245 -0.0394  0.0621  0.0334
14990TIP3    H166461   0.813   4.273  15.228  0.1635 -0.0699  1.0286
14990TIP3    H266462   0.714   4.207  15.321 -0.9693 -0.5457 -0.4739
14991TIP3   OH266463   6.797   5.824  12.611  0.2894 -0.4805 -0.7820
14991TIP3    H166464   6.859   5.886  12.572  0.6396  1.0207  1.8911
14991TIP3    H266465   6.757   5.873  12.684 -1.7114 -2.4474 -0.4569
14992TIP3   OH266466   2.560   3.120   2.942  0.4138 -0.3561 -0.1019
14992TIP3    H166467   2.646   3.080   2.951 -0.0953 -1.3565  0.6773
14992TIP3    H266468   2.527   3.126   3.032 -1.3419 -2.4446 -0.4972
14993TIP3   OH266469   3.475   3.158  14.011 -0.0068  0.2807 -0.0988
14993TIP3    H166470   3.379   3.153  14.015 -0.0215  0.5285 -0.1154
14993TIP3    H266471   3.505   3.075  14.047 -0.2158  0.5345  0.6951
14994TIP3   OH266472   4.863   6.633   0.684  0.2023  0.4029 -0.5245
14994TIP3    H166473   4.859   6.692   0.609  0.9949  0.6402 -0.3846
14994TIP3    H266474   4.822   6.682   0.755  1.8317  1.2462 -0.1209
14995TIP3   OH266475   5.222   3.734  16.745 -0.0732 -0.1515  0.1455
14995TIP3    H166476   5.315   3.752  16.761  0.0990  0.8648 -1.7138
14995TIP3    H266477   5.222   3.651  16.698 -0.2553 -0.9471  1.5029
14996TIP3   OH266478   6.726   5.232  16.168  0.1217 -0.3100  0.2676
14996TIP3    H166479   6.741   5.156  16.112  0.4126 -0.1725  0.1586
14996TIP3    H266480   6.750   5.307  16.113  0.2813 -0.1678  0.5327
14997TIP3   OH266481   5.414   3.240   2.324  0.3963  0.3472 -0.0584
14997TIP3    H166482   5.331   3.284   2.346  0.1237 -0.3861  0.4063
14997TIP3    H266483   5.413   3.235   2.228 -0.6749 -0.7175 -0.0146
14998TIP3   OH266484   2.685   4.944  14.498 -0.2469 -0.4923 -0.4530
14998TIP3    H166485   2.764   4.906  14.538 -0.2357 -0.5921 -0.5720
14998TIP3    H266486   2.664   4.885  14.426 -0.1536 -0.2032 -0.7176
14999TIP3   OH266487   1.899   0.782  13.589 -0.0612  0.5670  0.1697
14999TIP3    H166488   1.889   0.860  13.643 -1.3390  1.2528 -0.9775
14999TIP3    H266489   1.978   0.739  13.621 -1.0738  0.6175  2.9575
15000TIP3   OH266490   2.415   5.424  15.433  0.3732 -0.1301  0.5241
15000TIP3    H166491   2.504   5.453  15.413  0.5413 -0.0121  1.3782
15000TIP3    H266492   2.382   5.489  15.495  0.4280 -1.2175  1.7616
15001TIP3   OH266493   4.290   2.874   2.846 -0.0893  0.3318 -0.2868
15001TIP3    H166494   4.309   2.783   2.823  1.4774  0.5599 -0.0078
15001TIP3    H266495   4.298   2.877   2.941  0.8709  0.9682 -0.3826
15002TIP3   OH266496   0.920   2.757  10.144  0.6932  0.3786 -0.2195
15002TIP3    H166497   0.930   2.760  10.239 -0.2891  0.9081 -0.1216
15002TIP3    H266498   0.840   2.707  10.130  1.0777 -0.0984 -0.7981
15003TIP3   OH266499   3.793   2.840   5.657 -0.1871  0.5884  0.2761
15003TIP3    H166500   3.717   2.898   5.657 -0.9184 -0.3071  1.8159
15003TIP3    H266501   3.829   2.849   5.569 -1.6957  1.5152 -0.2992
15004TIP3   OH266502   3.225   2.536   4.418  0.4861 -0.5266  0.2452
15004TIP3    H166503   3.256   2.615   4.462  0.7502 -0.7280  0.4228
15004TIP3    H266504   3.146   2.511   4.466  1.9920 -2.0458  2.1183
15005TIP3   OH266505   6.142   3.428  12.305  0.1453  0.0005  0.9401
15005TIP3    H166506   6.048   3.426  12.323 -0.7283  0.0094 -2.7098
15005TIP3    H266507   6.168   3.518  12.323 -0.7242  0.1746  1.3751
15006TIP3   OH266508   1.986   6.111  16.983 -0.1618  0.0458  0.2388
15006TIP3    H166509   1.930   6.111  16.906  0.5538  0.2325 -0.2968
15006TIP3    H266510   2.072   6.083  16.950  0.3539  0.8975  0.8022
15007TIP3   OH266511   5.839   4.525   1.322 -0.2983 -0.0313  0.3120
15007TIP3    H166512   5.878   4.585   1.386 -1.9277  0.3421  1.0123
15007TIP3    H266513   5.914   4.487   1.276  0.8888  0.4253  1.7739
15008TIP3   OH266514   2.177   0.160   2.584 -0.2354  0.1275 -0.7399
15008TIP3    H166515   2.263   0.190   2.615 -0.7400 -0.6321  1.5269
15008TIP3    H266516   2.125   0.149   2.663 -1.4404 -2.5405 -1.7887
15009TIP3   OH266517   2.990   4.527   5.599 -0.7046  0.3678 -0.2156
15009TIP3    H166518   2.946   4.553   5.680  1.1339  3.1798  0.0249
15009TIP3    H266519   2.983   4.432   5.597 -1.3188  0.2410  2.9478
15010TIP3   OH266520   4.219   4.629  16.186 -0.2895 -0.3850 -0.2752
15010TIP3    H166521   4.243   4.722  16.193 -0.2301 -0.0557 -3.2685
15010TIP3    H266522   4.303   4.583  16.190 -0.3054 -0.3214  1.0757
15011TIP3   OH266523   5.618   0.232  15.682 -0.4652  0.5027 -0.0997
15011TIP3    H166524   5.543   0.242  15.623 -0.1515  0.9774 -0.4241
15011TIP3    H266525   5.662   0.317  15.680  0.0344  0.2550  0.1593
15012TIP3   OH266526   2.177   3.338  12.925  0.0789 -0.2248  0.2213
15012TIP3    H166527   2.150   3.247  12.932  1.1524 -0.5518  0.1484
15012TIP3    H266528   2.224   3.343  12.842 -0.5821  0.5619 -0.1274
15013TIP3   OH266529   5.644   6.043   0.463  0.4979  0.0648 -0.4079
15013TIP3    H166530   5.637   6.010   0.553 -0.2921  0.0026 -0.4907
15013TIP3    H266531   5.558   6.079   0.443  0.4091 -0.6486 -1.4204
15014TIP3   OH266532   0.577   1.881  11.473  0.2863  0.1750 -0.0797
15014TIP3    H166533   0.599   1.904  11.383 -3.4361 -1.2942 -1.5659
15014TIP3    H266534   0.499   1.932  11.493  1.3429  0.9186  2.6394
15015TIP3   OH266535   4.266   3.916  16.713 -0.6781  0.2291 -0.3434
15015TIP3    H166536   4.219   3.835  16.731  0.8406 -0.5808  0.1596
15015TIP3    H266537   4.347   3.909  16.763 -0.3915  1.9604 -0.4792
15016TIP3   OH266538   4.931   3.992   4.830  0.0924 -0.4075  0.3660
15016TIP3    H166539   4.896   4.071   4.872  0.5296 -0.4368  0.7946
15016TIP3    H266540   5.017   4.018   4.798  0.2424 -0.7112  0.5159
15017TIP3   OH266541   1.077   5.858  12.178  0.0827  0.1435  0.2033
15017TIP3    H166542   0.989   5.845  12.143 -0.5655  0.1908  1.7499
15017TIP3    H266543   1.091   5.784  12.237  0.9329  0.3557  0.2842
15018TIP3   OH266544   0.045   2.102  16.905 -0.0040  0.1552  0.1413
15018TIP3    H166545   0.105   2.060  16.967  1.4659 -0.5981 -1.6709
15018TIP3    H266546   0.045   2.043  16.829 -1.3694  1.2599 -0.7579
15019TIP3   OH266547   5.899   6.582  15.908  0.0391  0.1397 -0.2297
15019TIP3    H166548   5.873   6.583  15.816 -2.5698 -0.7052  0.4150
15019TIP3    H266549   5.898   6.489  15.932 -1.5796  0.4899  1.1966
15020TIP3   OH266550   3.374   4.963  11.346 -0.4945  0.0149  0.0347
15020TIP3    H166551   3.352   4.966  11.439  0.0240 -1.9122  0.2581
15020TIP3    H266552   3.289   4.962  11.302 -0.7668 -0.4523  0.5554
15021TIP3   OH266553   6.336   3.579   4.666  0.4047 -0.3899  0.2022
15021TIP3    H166554   6.417   3.570   4.615  0.7167 -0.7369  0.7454
15021TIP3    H266555   6.279   3.510   4.632  0.7043 -0.7820  0.4869
15022TIP3   OH266556   1.926   4.166  12.720  0.3701  0.1651 -0.1601
15022TIP3    H166557   2.017   4.183  12.693  0.7699 -0.8809  0.4649
15022TIP3    H266558   1.912   4.073  12.699 -1.2988  0.8191 -2.2759
15023TIP3   OH266559   6.161   4.068   2.047 -0.6265 -0.1047 -0.4066
15023TIP3    H166560   6.229   4.065   1.980 -0.9117 -1.2589 -0.6766
15023TIP3    H266561   6.159   3.979   2.083 -0.8112  0.3669  0.8044
15024TIP3   OH266562   1.130   1.763  15.797 -0.3365  0.0398  0.9452
15024TIP3    H166563   1.147   1.771  15.703 -0.5721 -0.8208  0.8281
15024TIP3    H266564   1.103   1.672  15.809  0.6493 -0.1322  1.9904
15025TIP3   OH266565   0.262   3.527   2.229  0.1483 -0.1751 -0.6585
15025TIP3    H166566   0.244   3.557   2.140 -0.5108  1.0336 -0.1395
15025TIP3    H266567   0.270   3.432   2.222  3.3228  0.0789 -2.5712
15026TIP3   OH266568   2.167   6.761  14.612 -0.1529  0.3532 -0.5173
15026TIP3    H166569   2.211   6.721  14.687 -1.0294 -0.2057 -0.2872
15026TIP3    H266570   2.231   6.756  14.542 -0.2236 -1.5293 -0.5028
15027TIP3   OH266571   1.343   3.679  12.622 -0.6404 -0.1450  0.0777
15027TIP3    H166572   1.249   3.700  12.626 -0.8062 -0.7076 -0.5345
15027TIP3    H266573   1.345   3.584  12.633 -0.0889 -0.0733  0.6353
15028TIP3   OH266574   4.844   4.483  14.457  0.4632 -0.2563 -0.6630
15028TIP3    H166575   4.802   4.431  14.389 -0.3173  1.6181 -1.6918
15028TIP3    H266576   4.938   4.477  14.437  0.2511  0.2038 -1.8737
15029TIP3   OH266577   1.678   2.493  15.041  0.1797  0.4050 -0.1240
15029TIP3    H166578   1.739   2.425  15.069  0.1941  0.9212  1.1760
15029TIP3    H266579   1.596   2.471  15.084  0.3405  1.5058  0.7910
15030TIP3   OH266580   2.713   0.210  11.169  0.5448 -0.3156  0.1077
15030TIP3    H166581   2.782   0.153  11.203  0.3407 -0.5807  0.0778
15030TIP3    H266582   2.746   0.299  11.184  1.2547 -0.4366 -0.6543
15031TIP3   OH266583   5.160   4.270  11.537  0.2746 -0.1889  0.2080
15031TIP3    H166584   5.084   4.222  11.571  0.7927 -0.7697  0.5590
15031TIP3    H266585   5.146   4.273  11.443 -0.9666  1.0673  0.3962
15032TIP3   OH266586   2.625   3.206   2.299 -0.0919 -0.5632 -0.1000
15032TIP3    H166587   2.703   3.166   2.337 -0.1142  1.0140  1.7751
15032TIP3    H266588   2.657   3.285   2.256 -0.6479  0.2991  1.0145
15033TIP3   OH266589   5.427   0.694  14.628 -0.1636  0.3969 -0.1730
15033TIP3    H166590   5.386   0.624  14.578 -1.4306  1.4503 -0.6403
15033TIP3    H266591   5.387   0.687  14.715  0.1789  0.1614 -0.0297
15034TIP3   OH266592   0.607   6.479   0.187 -0.4195  0.1618  0.4445
15034TIP3    H166593   0.548   6.415   0.148 -1.2810 -0.2967  2.3742
15034TIP3    H266594   0.564   6.505   0.269  0.7229  1.9523  0.5448
15035TIP3   OH266595   2.627   6.549   0.317 -0.2390 -0.1870  0.1254
15035TIP3    H166596   2.696   6.487   0.292 -1.1423 -1.4516  0.6452
15035TIP3    H266597   2.672   6.633   0.324  0.9345 -0.6677 -1.0959
15036TIP3   OH266598   2.324   2.905   1.407 -0.7517 -0.2229 -0.0035
15036TIP3    H166599   2.281   2.826   1.373  1.7194 -0.8697 -2.0242
15036TIP3    H266600   2.350   2.882   1.496  0.6189 -2.1153 -0.8071
15037TIP3   OH266601   1.608   6.337  12.082 -0.4073  0.1260  0.4487
15037TIP3    H166602   1.525   6.359  12.126  0.6283  1.3743  1.8515
15037TIP3    H266603   1.663   6.414  12.093  0.9650 -0.6782 -0.4636
15038TIP3   OH266604   6.358   2.600  14.243  0.3151 -0.0519 -0.0107
15038TIP3    H166605   6.277   2.586  14.193  1.1423  0.7659 -1.6257
15038TIP3    H266606   6.332   2.661  14.312 -0.3484  0.6060 -0.8147
15039TIP3   OH266607   6.496   5.963   1.769 -0.8471 -0.4509  0.2567
15039TIP3    H166608   6.471   5.871   1.782  1.4849 -1.1642  0.1565
15039TIP3    H266609   6.574   5.975   1.823  1.7850  0.0239 -3.2457
15040TIP3   OH266610   4.555   0.556  15.474  0.1598 -0.4019  0.0151
15040TIP3    H166611   4.544   0.610  15.396 -2.0820 -1.2240 -0.2986
15040TIP3    H266612   4.574   0.618  15.544 -0.0206  0.5579 -0.7654
15041TIP3   OH266613   4.994   6.250  16.438  0.4382 -0.0788  0.2449
15041TIP3    H166614   4.959   6.163  16.455  0.1911 -0.0068  0.0999
15041TIP3    H266615   5.030   6.245  16.350  0.3842 -0.0205  0.2205
15042TIP3   OH266616   1.711   3.230  16.885 -0.4103 -0.2302  0.3999
15042TIP3    H166617   1.676   3.318  16.900  1.6767  0.6515  0.5676
15042TIP3    H266618   1.806   3.242  16.890 -0.0790 -2.5539  0.6478
15043TIP3   OH266619   3.387   5.133  16.513 -0.7014  0.1791  0.0328
15043TIP3    H166620   3.377   5.228  16.508  1.6859  0.4473 -1.0451
15043TIP3    H266621   3.482   5.119  16.520 -0.8782 -2.1445 -1.1584
15044TIP3   OH266622   6.832   0.527   4.966 -0.2654 -0.8851 -0.0466
15044TIP3    H166623   6.858   0.617   4.948  0.9624 -1.0431  0.8766
15044TIP3    H266624   6.767   0.534   5.037 -1.4531 -0.6326 -1.1139
15045TIP3   OH266625   1.597   0.519   0.785  0.7181 -0.5161 -0.1789
15045TIP3    H166626   1.606   0.489   0.694  1.8250 -0.3591 -0.1370
15045TIP3    H266627   1.575   0.612   0.777 -0.0377 -0.6968 -0.2838
15046TIP3   OH266628   5.929   4.702   2.611 -0.5785  0.4517  0.4639
15046TIP3    H166629   5.963   4.625   2.658  0.5055  1.0700  0.7346
15046TIP3    H266630   5.961   4.776   2.662  2.7842  1.2869 -2.4255
15047TIP3   OH266631   0.304   6.510   5.352 -0.2920 -0.2538 -0.1835
15047TIP3    H166632   0.358   6.493   5.429  0.7223  0.7945 -0.6424
15047TIP3    H266633   0.364   6.503   5.278 -0.3061  2.6839 -0.5946
15048TIP3   OH266634   2.809   5.165  14.866 -0.1782  0.1008 -0.1149
15048TIP3    H166635   2.875   5.152  14.798  0.2783 -0.3346  0.3984
15048TIP3    H266636   2.754   5.237  14.834 -0.0150 -0.1529 -0.9684
15049TIP3   OH266637   2.385   4.313   3.906 -0.4707 -0.3001  0.5982
15049TIP3    H166638   2.464   4.259   3.901 -0.3018 -0.0443  0.4769
15049TIP3    H266639   2.329   4.268   3.969 -0.5932 -0.9537  0.0248
15050TIP3   OH266640   0.748   3.126   5.096  0.7170 -0.2613  0.2914
15050TIP3    H166641   0.687   3.108   5.024  2.0116 -1.5406 -0.5291
15050TIP3    H266642   0.825   3.162   5.054  0.7441  0.9121  1.2785
15051TIP3   OH266643   2.749   2.599   2.575 -0.0464  0.3674  0.1216
15051TIP3    H166644   2.806   2.582   2.500  0.2742  0.7884  0.2661
15051TIP3    H266645   2.730   2.692   2.570  1.5234  0.8278  1.6134
15052TIP3   OH266646   2.436   5.507  15.881  0.4223  0.8775  0.1523
15052TIP3    H166647   2.365   5.569  15.866 -0.0532  0.0921 -1.0757
15052TIP3    H266648   2.391   5.424  15.901  1.0267  0.7582  1.0494
15053TIP3   OH266649   5.184   2.876  12.009  0.2050 -0.4836  0.2370
15053TIP3    H166650   5.132   2.910  12.082 -0.5556  0.0739 -0.5353
15053TIP3    H266651   5.123   2.823  11.959  0.8715 -1.3447  0.3128
15054TIP3   OH266652   1.479   3.103  13.395  0.4035  0.1813 -0.3760
15054TIP3    H166653   1.414   3.108  13.326  0.7594  2.4536 -0.6029
15054TIP3    H266654   1.481   3.190  13.434 -0.0412 -1.0513  2.7881
15055TIP3   OH266655   6.204   6.384   1.994 -0.8723 -0.1876  0.1230
15055TIP3    H166656   6.135   6.388   1.928 -0.2907  0.1905 -0.4788
15055TIP3    H266657   6.256   6.307   1.969  0.6767  1.2150 -1.2477
15056TIP3   OH266658   6.466   1.547  12.034  0.5404 -0.3013 -0.0659
15056TIP3    H166659   6.389   1.553  12.090 -0.6130  0.3428 -1.6405
15056TIP3    H266660   6.523   1.618  12.063 -0.1050  0.1206  0.1850
15057TIP3   OH266661   0.029   6.517  15.711  0.3731  0.1907  0.2456
15057TIP3    H166662  -0.000   6.447  15.653  0.1882  0.7947 -0.4012
15057TIP3    H266663  -0.031   6.590  15.694  2.0851  1.3885 -0.9503
15058TIP3   OH266664   0.296   6.318   1.862  0.2359  0.4914  0.6160
15058TIP3    H166665   0.324   6.296   1.773  0.3334  0.5303  0.6367
15058TIP3    H266666   0.311   6.238   1.912 -2.3342 -0.4548  0.0469
15059TIP3   OH266667   4.505   3.373  13.218  0.0709 -0.2234 -0.0566
15059TIP3    H166668   4.489   3.312  13.291 -0.7161  1.0175  0.8719
15059TIP3    H266669   4.509   3.318  13.141 -2.3266 -1.3513  0.5183
15060TIP3   OH266670   2.078   4.303   3.488 -0.5935  0.1237 -0.0546
15060TIP3    H166671   2.158   4.253   3.477  0.0139  1.1471 -0.3807
15060TIP3    H266672   2.009   4.237   3.495  0.3969 -0.7991  1.3550
15061TIP3   OH266673   6.552   6.704  14.320 -0.0849 -0.2447  0.7591
15061TIP3    H166674   6.505   6.784  14.296  0.6101 -0.0741 -0.0736
15061TIP3    H266675   6.484   6.645  14.352 -0.9725 -0.2111 -0.9559
15062TIP3   OH266676   0.571   4.638   1.699  0.1719  0.0675  0.2364
15062TIP3    H166677   0.598   4.687   1.621 -1.9005 -0.9145 -1.1724
15062TIP3    H266678   0.552   4.550   1.667 -1.0135 -0.2844  1.8006
15063TIP3   OH266679   6.565   1.356  14.891 -0.4629 -0.4584  0.0094
15063TIP3    H166680   6.603   1.382  14.807 -1.1378  0.4761 -0.0336
15063TIP3    H266681   6.615   1.405  14.957  0.3515 -1.5213  0.2036
15064TIP3   OH266682   0.216   0.083   3.215  0.3760  0.4580  0.1556
15064TIP3    H166683   0.250  -0.006   3.219 -1.7904 -0.5123 -1.3021
15064TIP3    H266684   0.263   0.124   3.143  0.9223  0.3215  0.4244
15065TIP3   OH266685   4.883   0.073   3.134  0.5301  0.3888  0.2356
15065TIP3    H166686   4.810   0.134   3.140 -0.0795 -0.1990 -0.7647
15065TIP3    H266687   4.927   0.079   3.218 -0.0118  1.5739  0.4532
15066TIP3   OH266688   1.510   6.707  11.403  0.3825 -0.0197  0.0135
15066TIP3    H166689   1.554   6.762  11.468 -0.1790  0.2829  0.1467
15066TIP3    H266690   1.443   6.661  11.453 -0.0281  0.1849 -0.3390
15067TIP3   OH266691   5.086   2.190   3.710  0.2729 -0.4252  0.0585
15067TIP3    H166692   5.041   2.118   3.754 -0.0060 -0.0216  0.4357
15067TIP3    H266693   5.159   2.147   3.664 -1.1814 -1.2641 -1.5848
15068TIP3   OH266694   3.159   2.512  14.938 -0.5242  0.8617 -0.0209
15068TIP3    H166695   3.143   2.587  14.994 -0.9999  1.2377 -0.6507
15068TIP3    H266696   3.096   2.521  14.866  0.1569  0.4691 -0.6919
15069TIP3   OH266697   4.145   1.983  14.069 -0.0223 -0.2395 -0.1413
15069TIP3    H166698   4.228   2.022  14.097  2.0428 -2.8360 -2.1225
15069TIP3    H266699   4.092   2.057  14.040  1.8983  1.4567  0.4500
15070TIP3   OH266700   3.480   4.960  14.831  0.3033 -0.3603  0.3808
15070TIP3    H166701   3.448   5.036  14.782  1.9457  0.0883 -0.0499
15070TIP3    H266702   3.441   4.970  14.918 -1.4875 -0.3895 -0.3807
15071TIP3   OH266703   3.076   6.331   1.138  0.3045 -0.3693  0.3248
15071TIP3    H166704   3.066   6.238   1.118  0.5022 -0.8345  2.1663
15071TIP3    H266705   3.140   6.363   1.074  1.4555 -1.8977  0.6494
15072TIP3   OH266706   6.624   2.049  10.597 -0.3424 -0.6180  0.2370
15072TIP3    H166707   6.718   2.031  10.604 -0.3025 -0.2684  0.6674
15072TIP3    H266708   6.594   2.053  10.688 -1.1768 -2.7656  0.0936
15073TIP3   OH266709   2.885   1.643  16.148 -0.3759  0.4490  0.6696
15073TIP3    H166710   2.927   1.562  16.122 -0.4018 -0.0535  2.1286
15073TIP3    H266711   2.938   1.676  16.220  0.5144  2.5446 -0.8314
15074TIP3   OH266712   2.565   1.410  11.975  0.1091  0.0818  0.0077
15074TIP3    H166713   2.608   1.327  11.954  1.1465  0.8619 -1.1018
15074TIP3    H266714   2.473   1.395  11.954  0.6105 -0.1606 -2.2709
15075TIP3   OH266715   0.974   0.902  14.527 -0.1011 -0.7409 -0.6279
15075TIP3    H166716   0.922   0.982  14.520 -1.9836 -1.7166  1.1993
15075TIP3    H266717   1.064   0.933  14.541 -1.0100  1.1294  1.7194
15076TIP3   OH266718   0.218   3.682   2.856 -0.2355  1.4332 -0.2422
15076TIP3    H166719   0.157   3.612   2.879  0.7738  0.2808 -0.9078
15076TIP3    H266720   0.164   3.761   2.852 -1.2804  0.8263  1.2165
15077TIP3   OH266721   6.553   5.827  15.117 -0.1300 -0.2665 -0.1895
15077TIP3    H166722   6.546   5.889  15.044 -2.8921  0.2919  0.4069
15077TIP3    H266723   6.481   5.765  15.103  1.3827 -2.2256  0.2805
15078TIP3   OH266724   4.302   2.241  14.183 -0.3690 -0.5669  0.0649
15078TIP3    H166725   4.257   2.293  14.250  1.2988  0.8428  0.1729
15078TIP3    H266726   4.315   2.302  14.110  1.1090 -0.9610 -0.0492
15079TIP3   OH266727   1.522   1.105   4.491 -0.1333  0.3275  0.2026
15079TIP3    H166728   1.486   1.165   4.426  1.3577  0.0602 -0.9140
15079TIP3    H266729   1.502   1.018   4.456  0.0602  0.1763  0.4668
15080TIP3   OH266730   4.873   0.689   5.223  0.3400  0.0190 -0.0834
15080TIP3    H166731   4.854   0.658   5.312  1.1984 -2.5977 -0.7215
15080TIP3    H266732   4.787   0.695   5.181  0.0450 -0.1933  0.4765
15081TIP3   OH266733   2.626   6.190  17.068 -0.3208  0.2950  0.2813
15081TIP3    H166734   2.649   6.102  17.098  0.7726  0.2890 -0.5171
15081TIP3    H266735   2.530   6.188  17.060 -0.4957 -0.2379  1.9924
15082TIP3   OH266736   6.685   3.440  15.198  0.1644  0.3415 -0.4448
15082TIP3    H166737   6.773   3.476  15.208 -0.2538  1.0741  0.8042
15082TIP3    H266738   6.647   3.489  15.125  0.5636  0.4545 -0.5790
15083TIP3   OH266739   5.712   0.558   4.614  0.0583 -0.2235  0.5305
15083TIP3    H166740   5.783   0.501   4.643 -0.1995 -0.3180  0.9909
15083TIP3    H266741   5.744   0.599   4.534  1.8099  1.9123  2.1901
15084TIP3   OH266742   0.833   6.282   2.755  0.1505  0.0953 -0.1568
15084TIP3    H166743   0.884   6.244   2.684 -0.2729 -0.3407 -0.2369
15084TIP3    H266744   0.898   6.327   2.810  0.3387  1.5398 -1.4807
15085TIP3   OH266745   0.098   4.249   4.584  0.1332  0.2614  0.1671
15085TIP3    H166746   0.106   4.186   4.512  2.2738 -0.3648  0.9056
15085TIP3    H266747   0.172   4.231   4.641  0.3753  2.9545  0.8272
15086TIP3   OH266748   5.382   5.995   3.840 -0.2853 -0.0750  1.0884
15086TIP3    H166749   5.372   5.968   3.749 -1.2962 -2.2815  1.7860
15086TIP3    H266750   5.456   6.055   3.839  0.2344 -0.6566 -1.0615
15087TIP3   OH266751   5.346   3.427  13.329 -0.2993  0.0935  0.6490
15087TIP3    H166752   5.259   3.416  13.292 -0.2068  0.6630  0.2354
15087TIP3    H266753   5.342   3.509  13.379 -0.4289 -0.6885  1.9598
15088TIP3   OH266754   5.986   5.436  13.426  0.5335  0.1750 -0.4418
15088TIP3    H166755   5.982   5.506  13.492 -2.8458 -0.5768  0.3528
15088TIP3    H266756   5.915   5.377  13.450  1.8839 -2.4251 -2.3688
15089TIP3   OH266757   6.669   3.749  11.519 -0.1078  0.1590 -0.0413
15089TIP3    H166758   6.673   3.818  11.585  2.0875  0.9515 -0.9129
15089TIP3    H266759   6.600   3.690  11.550 -0.0848  1.2097  2.2229
15090TIP3   OH266760   3.252   4.690   4.817 -0.5803  0.2119 -0.2837
15090TIP3    H166761   3.301   4.733   4.747 -0.1678 -0.9183 -0.7170
15090TIP3    H266762   3.172   4.740   4.825  0.7969  2.3847  0.7406
15091TIP3   OH266763   3.542   5.281   2.487 -0.6516 -0.2518  0.0969
15091TIP3    H166764   3.552   5.212   2.552  0.6733  1.1278  1.4538
15091TIP3    H266765   3.529   5.361   2.539  1.2649  1.0350 -1.2587
15092TIP3   OH266766   2.236   2.071  16.853 -0.2470 -0.0874  0.2551
15092TIP3    H166767   2.188   1.993  16.827  0.8715 -0.9298  0.6696
15092TIP3    H266768   2.215   2.084  16.945  0.5688 -0.6563  0.5284
15093TIP3   OH266769   4.293   1.570  11.593 -0.8990  0.1886  0.0759
15093TIP3    H166770   4.338   1.494  11.556 -1.1890  0.1527 -0.2036
15093TIP3    H266771   4.333   1.582  11.679 -2.9132 -2.1381  1.4605
15094TIP3   OH266772   1.832   6.534  14.714 -0.3096 -0.3085  0.2129
15094TIP3    H166773   1.848   6.628  14.721 -3.0093  0.1206  2.4141
15094TIP3    H266774   1.759   6.527  14.652 -1.0393 -0.7957  1.1115
15095TIP3   OH266775   1.739   3.961   5.954 -0.8020 -0.0272  0.1744
15095TIP3    H166776   1.750   4.037   5.896 -1.7961  0.0243  0.0395
15095TIP3    H266777   1.828   3.935   5.976 -0.4020  0.0347 -1.2646
15096TIP3   OH266778   6.033   6.316  16.590 -0.2482  0.2844 -0.0210
15096TIP3    H166779   6.061   6.392  16.642  0.1665  2.4313 -3.1268
15096TIP3    H266780   6.077   6.242  16.631  2.3410  2.2341  1.0214
15097TIP3   OH266781   2.551   3.614   5.972  0.4956  0.5130 -0.1333
15097TIP3    H166782   2.569   3.686   6.033  0.4148  1.4648 -1.2037
15097TIP3    H266783   2.528   3.657   5.890 -0.8896 -0.7145 -0.4358
15098TIP3   OH266784   3.088   1.126  15.695  0.3587  0.2638 -0.0809
15098TIP3    H166785   3.065   1.202  15.747 -0.9549 -0.0028 -0.2321
15098TIP3    H266786   3.170   1.094  15.734  0.0626  0.7936  1.0154
15099TIP3   OH266787   4.723   4.233   3.121  0.5270 -0.1463  0.3396
15099TIP3    H166788   4.632   4.257   3.138 -0.0172 -1.4849 -0.5047
15099TIP3    H266789   4.752   4.295   3.054  0.0812 -0.0110  0.2663
15100TIP3   OH266790   1.768   1.959  11.517  0.5225  0.6189 -0.4728
15100TIP3    H166791   1.744   1.928  11.429  3.1960  0.7424 -1.3390
15100TIP3    H266792   1.807   2.045  11.502 -1.0997  1.6975  1.1717
15101TIP3   OH266793   6.285   3.070   1.730  0.3959  0.6259  0.0628
15101TIP3    H166794   6.333   3.008   1.785 -0.6091  1.3193  1.8186
15101TIP3    H266795   6.351   3.107   1.671  1.4264 -0.5042  0.4642
15102TIP3   OH266796   5.147   0.966   1.005  0.2397  0.7486 -0.3302
15102TIP3    H166797   5.144   1.056   1.037  0.0822 -0.1670  2.4763
15102TIP3    H266798   5.060   0.930   1.025  0.2038  0.0271 -1.6633
15103TIP3   OH266799   1.042   6.515  13.632 -0.3625  0.3845  0.0289
15103TIP3    H166800   1.119   6.490  13.581  1.3301  1.4092  1.9314
15103TIP3    H266801   0.979   6.546  13.567  1.4338  0.9853 -1.5061
15104TIP3   OH266802   4.019   2.689  13.228  0.8424  0.3288  1.1850
15104TIP3    H166803   4.037   2.606  13.272  0.2056  0.1355  1.0864
15104TIP3    H266804   4.066   2.755  13.280  0.5242  0.0345  1.8460
15105TIP3   OH266805   4.624   4.779   3.319  0.1657  0.3329  0.4249
15105TIP3    H166806   4.625   4.875   3.309 -2.3360  0.2846 -1.2516
15105TIP3    H266807   4.709   4.751   3.286  0.4480  1.9073 -0.2953
15106TIP3   OH266808   0.363   2.585  15.259  0.0121 -0.0647 -0.0406
15106TIP3    H166809   0.437   2.598  15.319 -1.6325 -0.6597  2.2474
15106TIP3    H266810   0.356   2.490  15.249 -0.6769 -0.0348  0.0946
15107TIP3   OH266811   2.828   4.088   0.331  0.3356  0.1515 -0.0769
15107TIP3    H166812   2.857   4.125   0.248  1.7792  0.6777  0.6319
15107TIP3    H266813   2.812   3.996   0.313 -1.2449  0.6223 -1.3645
15108TIP3   OH266814   1.576   6.659   0.754  0.3416 -0.4577  0.4421
15108TIP3    H166815   1.581   6.726   0.686  1.8332 -1.1701 -0.2145
15108TIP3    H266816   1.497   6.680   0.803 -1.4815 -0.5727 -2.2172
15109TIP3   OH266817   5.865   2.686   2.865 -0.1579 -0.1730  0.0611
15109TIP3    H166818   5.825   2.725   2.787 -1.9987  1.0446  1.5326
15109TIP3    H266819   5.927   2.752   2.896 -1.2038  0.4185  0.9560
15110TIP3   OH266820   4.407   6.206  12.635 -0.0376 -0.0139 -0.1716
15110TIP3    H166821   4.420   6.184  12.728  2.3014  1.8295  0.0182
15110TIP3    H266822   4.328   6.260  12.635 -0.6407 -0.8539  0.5787
15111TIP3   OH266823   4.690   4.525  16.671  0.5386 -0.0843  0.2396
15111TIP3    H166824   4.702   4.511  16.577  2.4304  0.5008  0.3490
15111TIP3    H266825   4.608   4.479  16.692  0.7917 -1.4111 -1.4267
15112TIP3   OH266826   1.330   1.493  12.695  1.0017 -0.1674  0.0191
15112TIP3    H166827   1.349   1.579  12.731 -0.2316 -0.0121  0.3492
15112TIP3    H266828   1.378   1.432  12.751 -1.4759 -0.0037  2.5714
15113TIP3   OH266829   5.303   1.881  14.211 -0.2585  0.3295 -0.3084
15113TIP3    H166830   5.234   1.831  14.255 -0.8723 -0.4845 -2.0830
15113TIP3    H266831   5.385   1.846  14.247 -0.7039 -1.2224 -0.7241
15114TIP3   OH266832   1.657   5.231  16.500 -0.2002  0.0357  0.1154
15114TIP3    H166833   1.724   5.281  16.453 -0.7248 -0.8845 -1.6841
15114TIP3    H266834   1.584   5.292  16.507 -0.2165  0.0985 -0.5200
15115TIP3   OH266835   5.936   4.082   3.364 -0.2615  0.6534  0.0358
15115TIP3    H166836   5.848   4.088   3.401  0.4504  0.2755  1.9034
15115TIP3    H266837   5.994   4.070   3.440  1.2571 -0.5742 -1.2210
15116TIP3   OH266838   1.260   6.495   4.537 -0.2444 -0.3027  0.1564
15116TIP3    H166839   1.228   6.577   4.574  0.2065  0.3737 -0.9010
15116TIP3    H266840   1.253   6.431   4.609 -1.0136  0.5494  0.8549
15117TIP3   OH266841   4.062   6.029  14.555 -0.0121 -0.9622  0.0923
15117TIP3    H166842   4.084   5.937  14.546 -0.1125 -1.0878  1.1028
15117TIP3    H266843   3.988   6.032  14.615  1.5604 -0.0882  2.1315
15118TIP3   OH266844   1.772   2.632  12.288  0.1521  0.2995 -0.8969
15118TIP3    H166845   1.863   2.616  12.265  0.0777 -0.1376 -0.8990
15118TIP3    H266846   1.759   2.585  12.370  0.1760  1.1201 -0.4186
15119TIP3   OH266847   4.383   1.997  12.771  0.1981  0.4104  0.1793
15119TIP3    H166848   4.453   2.049  12.732  0.1092 -0.4967 -1.2654
15119TIP3    H266849   4.415   1.907  12.766 -1.1804 -0.0591 -0.8282
15120TIP3   OH266850   1.191   0.779  13.548  0.3871  0.6014 -0.4397
15120TIP3    H166851   1.144   0.854  13.584  2.1027  1.7908 -0.5385
15120TIP3    H266852   1.231   0.812  13.468  1.5478 -0.2741 -0.2494
15121TIP3   OH266853   3.547   3.928   4.950  0.2290 -0.2120  0.3765
15121TIP3    H166854   3.529   4.019   4.925  0.7082 -0.6674 -1.8854
15121TIP3    H266855   3.583   3.934   5.038  0.4996  1.8156  0.1819
15122TIP3   OH266856   1.754   4.339  16.503  0.0810 -0.2971 -0.4231
15122TIP3    H166857   1.768   4.257  16.455  1.3363  0.1202 -0.8024
15122TIP3    H266858   1.838   4.383  16.500 -0.6381  1.1310 -0.4340
15123TIP3   OH266859   1.748   5.838  10.155  0.6599  0.4806  0.0159
15123TIP3    H166860   1.659   5.861  10.131  0.7654  0.7664 -0.1050
15123TIP3    H266861   1.803   5.895  10.101  0.8950  1.1643  0.9431
15124TIP3   OH266862   4.350   2.026  15.272  0.1717  0.3952  0.0357
15124TIP3    H166863   4.332   1.967  15.346  0.7324 -0.5386 -0.5401
15124TIP3    H266864   4.349   1.969  15.195  1.9464  0.8923 -0.4110
15125TIP3   OH266865   4.155   3.076  16.510  0.5735  0.2740  0.6486
15125TIP3    H166866   4.153   3.172  16.507 -0.4751  0.2397 -0.1688
15125TIP3    H266867   4.079   3.053  16.563  2.1672 -0.0798  2.9849
15126TIP3   OH266868   4.047   5.530   3.476  0.2374  0.4858  0.4978
15126TIP3    H166869   4.000   5.484   3.545 -0.2284 -0.2308 -0.2686
15126TIP3    H266870   4.095   5.461   3.430 -0.8785  0.6578 -1.0050
15127TIP3   OH266871   0.996   5.170  15.579 -0.5839 -0.8054  0.0133
15127TIP3    H166872   1.038   5.094  15.620 -0.8493 -1.5770 -1.1206
15127TIP3    H266873   0.941   5.207  15.649  1.5303 -0.0623  1.3878
15128TIP3   OH266874   5.784   5.065   2.426  0.0659 -0.3380 -0.5711
15128TIP3    H166875   5.837   5.139   2.396  1.6485 -1.2819 -0.2363
15128TIP3    H266876   5.835   4.987   2.400 -1.2464 -1.2943 -0.3666
15129TIP3   OH266877   3.834   0.360  15.008 -0.0453  0.0729  0.4196
15129TIP3    H166878   3.825   0.337  14.916  1.4292  0.6440  0.0929
15129TIP3    H266879   3.803   0.450  15.014  0.8778  0.4191  0.2338
15130TIP3   OH266880   5.729   1.787   3.681  0.5524  0.7701 -0.6260
15130TIP3    H166881   5.694   1.732   3.612  0.5276 -0.9590  0.7046
15130TIP3    H266882   5.824   1.777   3.674  0.5257  0.0125  0.0300
15131TIP3   OH266883   1.195   2.813   1.061 -0.3374 -0.3085  0.1991
15131TIP3    H166884   1.231   2.877   1.000 -2.3419  1.1020  0.3723
15131TIP3    H266885   1.114   2.783   1.018 -0.5548 -1.0608  1.1169
15132TIP3   OH266886   6.289   4.469   3.789 -0.7616 -0.2779  0.0665
15132TIP3    H166887   6.325   4.510   3.710  0.6099  0.8407  1.2269
15132TIP3    H266888   6.331   4.383   3.793 -0.4767 -0.1517 -0.1623
15133TIP3   OH266889   0.647   2.757  15.021  0.4642  0.0469  0.0728
15133TIP3    H166890   0.579   2.811  15.063  0.5603  1.4111 -1.4204
15133TIP3    H266891   0.619   2.751  14.930  0.8126 -1.9399  0.0627
15134TIP3   OH266892   3.683   2.740   2.095  0.8061  0.2016  0.0412
15134TIP3    H166893   3.764   2.749   2.145  2.3982  1.7399 -2.6132
15134TIP3    H266894   3.711   2.711   2.008 -1.2541  2.3174 -1.4583
15135TIP3   OH266895   0.296   2.320  16.831  0.6483 -0.5742  0.8429
15135TIP3    H166896   0.281   2.354  16.919 -1.2563 -0.8122  0.6523
15135TIP3    H266897   0.257   2.233  16.831  0.2355 -0.4157 -0.3528
15136TIP3   OH266898   0.349   5.146   2.499 -0.5205  0.3307  0.1383
15136TIP3    H166899   0.273   5.129   2.442 -1.1260  0.2998  0.9445
15136TIP3    H266900   0.376   5.059   2.529 -2.5991  0.5057  2.9415
15137TIP3   OH266901   5.706   0.602  13.643  0.4533  0.2124  0.8784
15137TIP3    H166902   5.654   0.544  13.588 -1.0177  0.2161  2.2029
15137TIP3    H266903   5.787   0.553  13.659 -0.5974 -1.3665  1.6690
15138TIP3   OH266904   5.707   1.620   2.911 -0.2628 -0.5063  0.2399
15138TIP3    H166905   5.618   1.591   2.893 -0.7552  1.4292 -0.6923
15138TIP3    H266906   5.738   1.657   2.828  1.0914 -0.3434  0.7882
15139TIP3   OH266907   0.551   5.765  11.182 -0.3275  0.2219  0.1173
15139TIP3    H166908   0.645   5.779  11.178 -0.3129  0.0623 -0.0820
15139TIP3    H266909   0.514   5.851  11.203 -0.1133  0.2165  0.5239
15140TIP3   OH266910   3.589   0.654  16.477 -0.0015  0.1485  0.0368
15140TIP3    H166911   3.571   0.580  16.419  0.9988 -0.9369  1.0552
15140TIP3    H266912   3.503   0.682  16.507 -0.4732  0.1719 -1.2672
15141TIP3   OH266913   3.180   6.206   4.752 -0.1621 -0.1498 -0.1444
15141TIP3    H166914   3.258   6.256   4.729  0.7002 -0.5365  1.7479
15141TIP3    H266915   3.181   6.131   4.692  0.2279  0.4738 -0.9375
15142TIP3   OH266916   0.474   2.717   0.322 -0.3909 -0.4135 -0.2921
15142TIP3    H166917   0.568   2.721   0.339 -0.6721 -0.6601  1.5365
15142TIP3    H266918   0.441   2.804   0.343 -0.9374 -1.0794  1.9439
15143TIP3   OH266919   5.125   5.375  14.677 -0.5272 -0.5706 -0.0057
15143TIP3    H166920   5.060   5.391  14.746 -0.3602  0.1989 -0.0136
15143TIP3    H266921   5.176   5.456  14.674  2.1122 -2.0354  1.7469
15144TIP3   OH266922   4.013   6.103   1.048  0.1319  0.0241 -0.0857
15144TIP3    H166923   4.039   6.011   1.058 -0.1510 -0.2269 -1.4170
15144TIP3    H266924   4.096   6.151   1.043  0.3664  0.3033  3.6051
15145TIP3   OH266925   1.844   3.210   4.240 -0.2294 -0.0879  0.8893
15145TIP3    H166926   1.848   3.301   4.209  0.7701 -0.6160 -0.6688
15145TIP3    H266927   1.932   3.191   4.272  0.0008 -0.9231 -0.1579
15146TIP3   OH266928   2.499   2.856  11.258 -0.1778 -0.0182  0.0709
15146TIP3    H166929   2.421   2.903  11.229 -0.1890 -0.5831 -0.8461
15146TIP3    H266930   2.466   2.780  11.305 -0.1814  0.0184  0.1262
15147TIP3   OH266931   4.371   5.017  12.182  0.5612 -0.7216 -0.5698
15147TIP3    H166932   4.311   5.067  12.237  1.1311  0.8492 -1.3247
15147TIP3    H266933   4.380   5.069  12.103  1.9298 -1.5722 -1.0017
15148TIP3   OH266934   2.905   6.459   2.992 -0.6818 -0.1979  0.5992
15148TIP3    H166935   2.964   6.388   3.017 -1.2677 -1.1961 -0.6923
15148TIP3    H266936   2.833   6.415   2.946 -1.0811  1.2257 -0.2098
15149TIP3   OH266937   0.171   0.685   2.977 -0.2187 -0.2257  0.1690
15149TIP3    H166938   0.211   0.700   2.892 -0.8601  1.4723  0.1118
15149TIP3    H266939   0.239   0.644   3.030  0.5049 -0.3839 -0.8718
15150TIP3   OH266940   5.048   4.678  16.769  0.4154 -0.4583 -0.4316
15150TIP3    H166941   5.043   4.588  16.802 -1.7096 -0.3329 -0.2557
15150TIP3    H266942   5.139   4.704  16.782  0.9080 -2.3287  0.1694
15151TIP3   OH266943   2.401   6.228   3.649 -0.0789  0.4167  0.0885
15151TIP3    H166944   2.477   6.173   3.669 -1.7904 -1.8982  0.6371
15151TIP3    H266945   2.398   6.232   3.554  1.3647  1.5440  0.0594
15152TIP3   OH266946   6.660   3.867  16.449  0.2925 -0.5150 -0.1650
15152TIP3    H166947   6.608   3.828  16.379 -0.7559  0.0506  0.2825
15152TIP3    H266948   6.675   3.957  16.421  1.4505 -0.8010 -0.5078
15153TIP3   OH266949   0.431   3.945  16.932 -0.7280  0.4187 -0.0516
15153TIP3    H166950   0.475   3.927  17.015 -0.7454 -4.0304 -0.7234
15153TIP3    H266951   0.340   3.919  16.947 -0.6708 -0.7593 -1.4328
15154TIP3   OH266952   1.543   6.534  15.930 -0.0993 -0.4547  0.5840
15154TIP3    H166953   1.512   6.574  15.849  0.4319 -0.1154  0.5468
15154TIP3    H266954   1.633   6.563  15.939  0.0918 -1.1143  0.9013
15155TIP3   OH266955   6.487   1.645   0.204  0.1682 -0.4641  0.1077
15155TIP3    H166956   6.489   1.688   0.118 -1.6206  0.9056  0.7041
15155TIP3    H266957   6.575   1.658   0.240  0.5009  0.2026 -0.9069
15156TIP3   OH266958   4.596   4.125  12.851 -0.6842 -0.1936  0.5445
15156TIP3    H166959   4.630   4.096  12.936 -0.2149 -2.9368 -0.4766
15156TIP3    H266960   4.675   4.143  12.799 -0.9483  2.8468  0.9917
15157TIP3   OH266961   5.201   0.872  13.206 -0.3830  0.4783 -0.0096
15157TIP3    H166962   5.116   0.886  13.164 -0.6010  0.7514  0.5217
15157TIP3    H266963   5.180   0.843  13.295  0.0797  1.3920  0.4067
15158TIP3   OH266964   3.232   2.652  17.010  0.4912 -0.6804  0.1904
15158TIP3    H166965   3.149   2.695  16.988 -0.3019 -1.7408  1.0264
15158TIP3    H266966   3.299   2.709  16.971 -0.4824  1.4765  1.4704
15159TIP3   OH266967   3.906   2.735  12.666  0.0102 -1.0190  0.3345
15159TIP3    H166968   3.859   2.665  12.621 -0.4269 -1.1952  1.0497
15159TIP3    H266969   3.890   2.719  12.759  0.8593 -0.6356  0.5595
15160TIP3   OH266970   4.686   5.300  12.393  0.1570  0.2701 -0.4650
15160TIP3    H166971   4.717   5.390  12.403 -0.6489  0.3405  2.3240
15160TIP3    H266972   4.612   5.307  12.332  0.5056  1.3761 -0.7934
15161TIP3   OH266973   5.245   3.232  15.939 -0.0889 -0.3055  0.0164
15161TIP3    H166974   5.169   3.258  15.991 -1.4592 -0.4264 -1.7999
15161TIP3    H266975   5.225   3.265  15.851  1.1856 -1.7968 -0.8820
15162TIP3   OH266976   4.637   0.885   5.337  0.4917  0.0222 -0.3038
15162TIP3    H166977   4.622   0.881   5.431  0.1301 -0.0272 -0.3628
15162TIP3    H266978   4.592   0.808   5.302 -2.3054  1.7876 -0.8954
15163TIP3   OH266979   0.075   6.537  14.230 -0.3950  0.1738 -0.2104
15163TIP3    H166980   0.130   6.538  14.309 -0.5190  0.2043 -0.1236
15163TIP3    H266981   0.113   6.469  14.175 -0.1358  0.3430 -0.2464
15164TIP3   OH266982   3.327   2.285   3.449  0.3246 -0.4732  0.8995
15164TIP3    H166983   3.282   2.259   3.529  0.5786 -1.5028  0.7162
15164TIP3    H266984   3.256   2.312   3.390  0.2524  2.6197  2.2280
15165TIP3   OH266985   1.328   1.712  12.240  0.2071 -0.5678  0.0789
15165TIP3    H166986   1.335   1.694  12.334 -0.5636 -1.4378 -0.0059
15165TIP3    H266987   1.266   1.646  12.208 -1.3136  1.1228 -0.6405
15166TIP3   OH266988   0.092   0.815   4.287  0.6621  0.1334 -0.2891
15166TIP3    H166989  -0.003   0.827   4.283  0.5323 -0.1111  1.3891
15166TIP3    H266990   0.126   0.901   4.311  0.8113  0.0566 -0.2261
15167TIP3   OH266991   0.467   3.290   0.976 -0.0368  0.1723  0.0613
15167TIP3    H166992   0.437   3.367   1.024 -1.0009  0.2904 -0.7123
15167TIP3    H266993   0.555   3.313   0.947  0.4055  0.2564  1.3922
15168TIP3   OH266994   3.813   4.914  15.667  0.2283 -0.3364  0.2562
15168TIP3    H166995   3.753   4.979  15.629  0.2452 -0.7513 -0.4875
15168TIP3    H266996   3.817   4.937  15.760  0.7347  1.1400 -0.0963
15169TIP3   OH266997   3.513   5.139   5.605 -0.0337 -0.5640  0.7127
15169TIP3    H166998   3.518   5.230   5.575  1.6966 -0.7194  0.4147
15169TIP3    H266999   3.430   5.134   5.652 -0.7669  0.8208 -0.3750
15170TIP3   OH267000   1.441   3.390  12.412 -0.6187 -0.9332 -0.1213
15170TIP3    H167001   1.399   3.381  12.498 -1.3142 -4.2292 -0.6535
15170TIP3    H267002   1.377   3.437  12.359 -0.2349  1.0276  1.0670
15171TIP3   OH267003   5.849   3.075  15.353  0.5603 -0.4664 -0.5045
15171TIP3    H167004   5.826   3.107  15.440 -0.6717  0.6622 -1.1991
15171TIP3    H267005   5.777   3.016  15.330 -0.1166  0.6928 -1.4792
15172TIP3   OH267006   0.323   2.029   3.265  0.0290 -0.2066 -0.4900
15172TIP3    H167007   0.417   2.028   3.283  0.0512 -1.0962 -0.6269
15172TIP3    H267008   0.294   1.939   3.277 -0.9353  0.1698  0.1564
15173TIP3   OH267009   6.678   1.683   2.760 -0.0506  0.6543  0.2838
15173TIP3    H167010   6.702   1.619   2.693 -0.9289 -0.6905  1.2121
15173TIP3    H267011   6.639   1.756   2.710  0.8011  0.4188 -0.7718
15174TIP3   OH267012   3.700   1.259   4.582  0.4207 -0.0192  0.4811
15174TIP3    H167013   3.789   1.272   4.615  0.6715 -0.3249 -0.0667
15174TIP3    H267014   3.652   1.221   4.656  1.4192 -2.3820  0.0040
15175TIP3   OH267015   3.764   2.267   2.499  0.7257 -0.1022  0.8214
15175TIP3    H167016   3.727   2.356   2.499 -1.5348 -0.9532  1.1174
15175TIP3    H267017   3.745   2.233   2.412 -0.0428 -0.8549  1.2586
15176TIP3   OH267018   0.733   1.461  15.159 -0.1310 -0.3626  0.2626
15176TIP3    H167019   0.672   1.440  15.230 -0.6766 -1.0608 -0.3970
15176TIP3    H267020   0.715   1.553  15.138  0.6545  0.1157  1.6133
15177TIP3   OH267021   1.201   6.139   0.051 -0.5831  0.3969 -0.3212
15177TIP3    H167022   1.244   6.100   0.128  0.1121  1.3877 -0.1829
15177TIP3    H267023   1.249   6.103  -0.024 -2.4066 -1.9859 -0.4453
15178TIP3   OH267024   6.160   2.023   5.839 -0.0901  0.0150 -0.0579
15178TIP3    H167025   6.189   1.934   5.821  1.5656  0.4274  0.4524
15178TIP3    H267026   6.183   2.073   5.760  1.4072  0.5086  0.6530
15179TIP3   OH267027   6.832   0.874   3.594 -0.0802  0.0673 -0.2023
15179TIP3    H167028   6.838   0.962   3.630 -0.5046 -0.5684  1.5301
15179TIP3    H267029   6.743   0.867   3.561 -0.2862  0.0679  0.3356
15180TIP3   OH267030   1.666   2.739   1.891 -0.5784  0.2604 -0.7202
15180TIP3    H167031   1.628   2.756   1.977 -1.1673  0.5765 -1.0378
15180TIP3    H267032   1.614   2.666   1.857  0.7571 -1.0232 -0.1150
15181TIP3   OH267033   4.569   5.033   2.934  0.3142 -0.0782 -0.3929
15181TIP3    H167034   4.613   4.959   2.892 -1.8804  0.0745 -3.2203
15181TIP3    H267035   4.612   5.111   2.898  1.0194  0.1008  0.7548
15182TIP3   OH267036   2.956   4.005  10.807  0.2978  0.1396  0.2553
15182TIP3    H167037   2.983   3.916  10.830  1.8308  0.0617 -1.6102
15182TIP3    H267038   2.875   3.993  10.757  0.9594 -0.3016 -0.7354
15183TIP3   OH267039   6.321   0.998   3.491  0.0087  0.3340 -0.1760
15183TIP3    H167040   6.233   0.967   3.511 -0.0064  0.4556 -0.0533
15183TIP3    H267041   6.308   1.078   3.440  0.0486  0.2921 -0.2532
15184TIP3   OH267042   3.095   1.453   2.633 -0.0794  0.5265 -0.4942
15184TIP3    H167043   3.120   1.501   2.712 -0.8223  0.1766 -0.0370
15184TIP3    H267044   3.019   1.500   2.599 -2.4927 -1.6879  1.3946
15185TIP3   OH267045   2.058   5.103   2.899 -0.3683 -0.1848  0.4973
15185TIP3    H167046   2.032   5.140   2.815 -2.3162 -1.4597  0.4883
15185TIP3    H267047   2.149   5.130   2.910 -0.4739  1.0947 -1.3972
15186TIP3   OH267048   2.983   4.661   2.168  0.2403  0.3469  0.3222
15186TIP3    H167049   3.005   4.609   2.091  2.1149  1.8634 -0.2567
15186TIP3    H267050   2.966   4.597   2.237  0.3459 -1.0143 -0.8828
15187TIP3   OH267051   1.735   1.639   3.566  0.4161  0.1211 -0.0199
15187TIP3    H167052   1.653   1.610   3.525  0.2596 -1.2571  1.1713
15187TIP3    H267053   1.765   1.711   3.511 -1.8900  1.0594 -0.1812
15188TIP3   OH267054   5.096   1.509  16.500 -0.1842  0.6119  0.0534
15188TIP3    H167055   5.100   1.528  16.593  1.0753  0.0191  0.1457
15188TIP3    H267056   5.100   1.413  16.495  0.2249  0.6533 -0.6105
15189TIP3   OH267057   4.638   4.779   5.932  0.8600  0.3250 -0.1836
15189TIP3    H167058   4.594   4.852   5.890 -3.6860 -1.6591  0.5837
15189TIP3    H267059   4.675   4.728   5.860 -0.6287  0.6344 -1.1955
15190TIP3   OH267060   4.598   0.201  13.980  0.3026  0.3227  0.4488
15190TIP3    H167061   4.571   0.147  13.906 -0.0032 -1.1554  1.5973
15190TIP3    H267062   4.686   0.169  14.002  0.6023  1.1012  0.4214
15191TIP3   OH267063   6.161   3.573  14.164 -0.2894  0.1137 -0.1049
15191TIP3    H167064   6.141   3.539  14.251 -1.9263 -0.1944 -0.5799
15191TIP3    H267065   6.248   3.537  14.144 -1.1624 -2.3015  0.1773
15192TIP3   OH267066   3.315   6.373  12.591 -0.4231 -0.7662  0.0280
15192TIP3    H167067   3.302   6.364  12.685 -0.7689  0.6709  0.1368
15192TIP3    H267068   3.401   6.335  12.575  1.0650  1.7448  1.4498
15193TIP3   OH267069   3.937   0.589   4.183 -0.3621  0.2051 -0.0581
15193TIP3    H167070   3.993   0.585   4.260  1.1195 -1.0508 -1.1147
15193TIP3    H267071   3.978   0.655   4.127 -0.1966 -0.3477 -0.6103
15194TIP3   OH267072   5.089   6.235   0.865  0.1078  0.0211 -0.1404
15194TIP3    H167073   5.174   6.192   0.859  0.5579  0.4932  1.8660
15194TIP3    H267074   5.027   6.164   0.882  0.4965 -0.1172  0.7905
15195TIP3   OH267075   5.580   5.456   3.150 -0.1785 -0.6686  0.4534
15195TIP3    H167076   5.594   5.523   3.083  1.5581  0.5319  1.9203
15195TIP3    H267077   5.584   5.373   3.102  1.1947  0.1402 -0.9286
15196TIP3   OH267078   1.910   2.573   4.226 -0.0349 -0.1425  0.1932
15196TIP3    H167079   1.972   2.512   4.267 -1.5088  0.2322  3.2808
15196TIP3    H267080   1.826   2.528   4.228 -0.2743  0.0599 -2.2667
15197TIP3   OH267081   3.573   5.928  16.902  0.6793  0.0717 -0.1790
15197TIP3    H167082   3.628   6.006  16.905  1.3759 -0.4257  0.4388
15197TIP3    H267083   3.487   5.959  16.929  0.3760  1.0501 -2.1212
15198TIP3   OH267084   5.802   2.334   5.996 -0.1566 -0.4042  1.1240
15198TIP3    H167085   5.867   2.322   6.066  2.7409  3.5850 -0.4892
15198TIP3    H267086   5.848   2.308   5.916 -1.5050  0.0634  0.1523
15199TIP3   OH267087   6.619   3.888  11.748  0.4570 -0.0044 -0.4628
15199TIP3    H167088   6.628   3.843  11.832  0.6208  0.5735 -0.1622
15199TIP3    H267089   6.543   3.946  11.760 -0.8850 -1.4567 -1.4339
15200TIP3   OH267090   5.691   4.047   6.662  0.3072 -0.0017  0.0854
15200TIP3    H167091   5.739   4.125   6.633  1.2760 -0.2137  1.0306
15200TIP3    H267092   5.620   4.082   6.716 -1.2519  0.3674 -2.0561
15201TIP3   OH267093   6.716   4.257  14.467  0.3244 -0.3448 -0.1198
15201TIP3    H167094   6.696   4.264  14.374  0.6795 -0.8066 -0.2343
15201TIP3    H267095   6.755   4.170  14.477 -0.3222 -0.5726  0.5688
15202TIP3   OH267096   5.878   3.478   0.471 -0.2435 -0.8208 -0.1755
15202TIP3    H167097   5.956   3.470   0.525  1.4952  0.6959 -2.3002
15202TIP3    H267098   5.880   3.568   0.437 -3.9388 -0.0493  1.0935
15203TIP3   OH267099   1.332   2.555  14.311 -0.0388 -0.0400  0.9007
15203TIP3    H167100   1.323   2.624  14.377  0.8949  0.7524  0.2301
15203TIP3    H267101   1.316   2.599  14.228 -1.7423 -1.1351  0.5964
15204TIP3   OH267102   1.016   6.814  12.479  0.0230  0.5726  0.4913
15204TIP3    H167103   0.936   6.807  12.425  0.5082 -0.0074 -0.1768
15204TIP3    H267104   0.997   6.763  12.557  0.3796 -1.1246 -0.4860
15205TIP3   OH267105   3.510   5.688  13.193 -0.0514 -0.4016 -0.5341
15205TIP3    H167106   3.511   5.739  13.274  2.7899 -1.4251  0.2113
15205TIP3    H267107   3.434   5.720  13.145 -0.8617  1.4375  1.7767
15206TIP3   OH267108   3.208   0.523  12.845  0.8500  0.0566  0.4489
15206TIP3    H167109   3.204   0.508  12.750  0.6219 -0.3018  0.5147
15206TIP3    H267110   3.289   0.572  12.858  1.2636 -0.5422  0.1557
15207TIP3   OH267111   3.261   6.382  14.829 -0.0565  0.1210 -0.2756
15207TIP3    H167112   3.328   6.337  14.777 -2.1416 -1.6721 -1.5666
15207TIP3    H267113   3.192   6.317  14.841 -0.9009  1.3484  2.4543
15208TIP3   OH267114   5.660   1.062   3.095 -0.2474 -0.0684 -0.4259
15208TIP3    H167115   5.576   1.107   3.097  0.1228  0.6180  0.0922
15208TIP3    H267116   5.694   1.071   3.184  0.6446  0.1836 -0.7813
15209TIP3   OH267117   3.157   4.959  16.018  0.1468 -0.5355 -0.1635
15209TIP3    H167118   3.245   4.958  16.058  0.2125  1.1037 -0.2084
15209TIP3    H267119   3.111   5.029  16.064 -0.8928 -0.8619 -0.6885
15210TIP3   OH267120   2.995   1.504  13.390 -0.0713  0.5218 -0.3748
15210TIP3    H167121   3.005   1.461  13.475  0.9242 -1.6864 -1.5452
15210TIP3    H267122   3.085   1.523  13.362 -0.4200  1.9131 -0.6549
15211TIP3   OH267123   4.238   5.902  16.470 -0.0917 -0.0335  0.1206
15211TIP3    H167124   4.265   5.982  16.424 -1.4814  0.1026 -0.5029
15211TIP3    H267125   4.248   5.924  16.563  2.6102 -0.2604 -0.0340
15212TIP3   OH267126   3.144   0.885   5.466 -0.3879 -0.2086  0.1445
15212TIP3    H167127   3.235   0.914   5.461 -0.6130  0.6504  0.7564
15212TIP3    H267128   3.111   0.895   5.377 -0.4246  1.3748  0.3041
15213TIP3   OH267129   6.483   1.269  16.619  0.0959 -0.0030 -0.0406
15213TIP3    H167130   6.492   1.354  16.662  1.0389  0.1089 -0.4474
15213TIP3    H267131   6.474   1.206  16.692  2.0109  0.1416  0.3832
15214TIP3   OH267132   4.639   1.344   3.287  0.2164 -0.6309  0.4111
15214TIP3    H167133   4.646   1.440   3.286  2.1364 -0.7202 -1.3368
15214TIP3    H267134   4.602   1.324   3.373 -0.9224  1.6956  0.5515
15215TIP3   OH267135   3.107   4.546  15.792  0.0095 -0.7646  0.0963
15215TIP3    H167136   3.092   4.636  15.822  0.2527 -0.9696  0.8347
15215TIP3    H267137   3.107   4.553  15.696 -2.6893 -0.4000  0.0393
15216TIP3   OH267138   4.286   2.434  17.039  0.0379  0.6929 -0.6930
15216TIP3    H167139   4.340   2.511  17.057 -3.0953  2.9043  0.1642
15216TIP3    H267140   4.245   2.453  16.955  1.3666 -1.4697 -1.9009
15217TIP3   OH267141   3.986   5.732  10.922 -0.2573 -0.4791 -0.2473
15217TIP3    H167142   4.052   5.802  10.918 -1.4278  0.6829  0.2471
15217TIP3    H267143   3.902   5.778  10.923 -1.0579 -1.9022  0.0532
15218TIP3   OH267144   0.896   4.845   5.902  0.2485 -0.3896  0.3003
15218TIP3    H167145   0.894   4.922   5.959  2.2184 -2.4116  3.4451
15218TIP3    H267146   0.819   4.794   5.929 -0.3033 -0.1877 -0.8276
15219TIP3   OH267147   2.068   2.813  15.392  0.3095 -0.5972 -0.0607
15219TIP3    H167148   1.992   2.872  15.397 -0.9535 -1.9856 -1.7276
15219TIP3    H267149   2.047   2.753  15.321  2.6302 -1.5760 -0.0047
15220TIP3   OH267150   6.276   2.815   0.370 -0.2229 -0.1040  0.7274
15220TIP3    H167151   6.188   2.783   0.348 -0.1257 -0.8774  1.4070
15220TIP3    H267152   6.272   2.909   0.352 -0.6376 -0.4027 -0.9380
15221TIP3   OH267153   0.786   5.583   2.997 -0.1444  0.0307 -0.1922
15221TIP3    H167154   0.882   5.578   2.994 -0.0301  1.7363 -1.9834
15221TIP3    H267155   0.768   5.656   3.057 -0.3621 -0.7320  0.6794
15222TIP3   OH267156   1.266   6.580  11.307  0.7146 -0.5704 -0.1896
15222TIP3    H167157   1.228   6.592  11.393  3.0558  2.3996  0.5949
15222TIP3    H267158   1.356   6.613  11.315  0.6307  1.1199 -4.0611
15223TIP3   OH267159   4.410   5.305   4.876  0.6580 -0.9610 -0.2839
15223TIP3    H167160   4.471   5.346   4.937 -0.6001  0.2699  0.1771
15223TIP3    H267161   4.401   5.215   4.908  2.1278 -1.1487 -0.3106
15224TIP3   OH267162   5.429   4.411   1.855 -0.2437  0.3006 -0.4927
15224TIP3    H167163   5.480   4.379   1.929 -0.0254  1.1540 -0.2637
15224TIP3    H267164   5.343   4.373   1.867 -0.4826  1.1607  0.7261
15225TIP3   OH267165   4.211   6.808  12.308 -0.0027  0.0370 -0.1339
15225TIP3    H167166   4.262   6.880  12.271  0.1067  0.0315  0.0047
15225TIP3    H267167   4.217   6.738  12.243  1.0967 -0.3651  0.3686
15226TIP3   OH267168   6.699   3.165  15.867  0.5165 -0.1943 -0.5253
15226TIP3    H167169   6.653   3.204  15.941  3.8712  2.5592  0.4212
15226TIP3    H267170   6.713   3.074  15.891  0.2355  0.2834  1.5760
15227TIP3   OH267171   3.408   3.232  13.542 -0.5180  0.3086  0.1591
15227TIP3    H167172   3.391   3.302  13.480  0.2676  0.8308  0.5184
15227TIP3    H267173   3.497   3.248  13.573 -0.2269 -0.9904  0.0592
15228TIP3   OH267174   6.718   6.696  14.097 -0.4695  0.1353  0.0331
15228TIP3    H167175   6.657   6.735  14.160  1.3643  1.6498  0.9869
15228TIP3    H267176   6.775   6.639  14.149  0.5939  0.8250 -0.3258
15229TIP3   OH267177   6.810   6.184  10.647  0.4753 -0.7966 -0.3584
15229TIP3    H167178   6.850   6.270  10.658  0.3848 -0.4116 -2.5586
15229TIP3    H267179   6.820   6.142  10.732 -0.3479  1.7146  1.0868
15230TIP3   OH267180   4.772   4.684  12.575 -0.1710 -0.4965 -0.1680
15230TIP3    H167181   4.678   4.681  12.589  0.1356  0.5954  3.1197
15230TIP3    H267182   4.806   4.730  12.652  3.0263 -0.5262 -1.3986
15231TIP3   OH267183   3.761   5.800   2.573 -0.1737  0.3850 -0.6262
15231TIP3    H167184   3.685   5.857   2.561 -1.0039 -0.7615 -1.0146
15231TIP3    H267185   3.767   5.751   2.491  1.2884  0.7924 -0.7852
15232TIP3   OH267186   1.858   5.713   3.500 -0.1373 -0.4415  0.0480
15232TIP3    H167187   1.770   5.737   3.472 -0.2715 -0.0591  0.7673
15232TIP3    H267188   1.899   5.795   3.525  0.9268 -0.4401 -1.6102
15233TIP3   OH267189   5.363   3.311   1.567  0.3650  0.4610  0.4228
15233TIP3    H167190   5.415   3.379   1.523 -0.7212 -1.0659 -3.6806
15233TIP3    H267191   5.423   3.273   1.631  2.7171  1.8557 -0.8057
15234TIP3   OH267192   4.000   2.033   3.259  0.2236  0.1144 -0.8176
15234TIP3    H167193   3.958   1.955   3.224 -0.1138  0.3226 -0.8786
15234TIP3    H267194   4.048   2.070   3.184  2.2306 -1.2343 -0.2871
15235TIP3   OH267195   0.531   3.764  13.140 -0.2628 -0.0045 -0.3644
15235TIP3    H167196   0.605   3.805  13.096 -0.2284  1.5716  1.0385
15235TIP3    H267197   0.489   3.711  13.073  0.6985  1.0151 -1.8266
15236TIP3   OH267198   5.632   4.904   0.432  0.1145 -0.4529  0.2213
15236TIP3    H167199   5.630   4.819   0.387 -0.5710 -0.4623  0.2586
15236TIP3    H267200   5.725   4.926   0.437  0.2187 -0.5086 -1.0857
15237TIP3   OH267201   0.214   5.783  14.541  0.3804 -0.2398 -0.4559
15237TIP3    H167202   0.231   5.847  14.610  0.5190 -1.0057  0.2294
15237TIP3    H267203   0.132   5.813  14.500 -0.5426 -0.6032  1.0399
15238TIP3   OH267204   6.349   3.147   4.654  0.2093  0.3571  0.2600
15238TIP3    H167205   6.382   3.068   4.697  1.9018  1.4584  1.0799
15238TIP3    H267206   6.428   3.193   4.624 -0.8032  0.7863 -2.0012
15239TIP3   OH267207   0.156   4.858  16.727  0.1861  0.4570 -0.2642
15239TIP3    H167208   0.076   4.907  16.745 -0.3116  0.2361 -1.7273
15239TIP3    H267209   0.145   4.775  16.772 -0.4121  0.4307 -0.4539
15240TIP3   OH267210   5.621   6.387  15.975  0.2848 -0.4411 -0.3498
15240TIP3    H167211   5.605   6.382  15.881 -0.3877 -2.7256 -0.1642
15240TIP3    H267212   5.572   6.464  16.004 -0.6308 -0.5101 -1.6554
15241TIP3   OH267213   3.370   1.003  13.664 -0.3810  0.2088 -0.0387
15241TIP3    H167214   3.306   1.028  13.597  0.6639  0.0823 -1.1181
15241TIP3    H267215   3.438   0.955  13.616  0.7355  0.7040  0.9943
15242TIP3   OH267216   6.650   1.022  12.909  0.2732 -0.0700 -0.3966
15242TIP3    H167217   6.596   1.015  12.988  0.0550  0.3901 -0.5000
15242TIP3    H267218   6.695   0.938  12.902  0.8575  0.1432  0.6315
15243TIP3   OH267219   0.024   6.758   0.723 -0.0932 -0.1838  0.0984
15243TIP3    H167220  -0.001   6.806   0.645 -0.7903  2.2438  1.7008
15243TIP3    H267221  -0.051   6.700   0.740 -2.2821  2.8037  1.5634
15244TIP3   OH267222   6.127   6.402  10.619 -0.0404 -0.4288 -0.0179
15244TIP3    H167223   6.141   6.345  10.543 -0.0740 -1.3916  0.6880
15244TIP3    H267224   6.088   6.482  10.582  1.6680 -0.1047 -1.2559
15245TIP3   OH267225   4.709   1.184  13.046 -0.2637 -0.2469 -0.3784
15245TIP3    H167226   4.640   1.124  13.075 -0.7866 -0.2397 -1.5659
15245TIP3    H267227   4.755   1.208  13.126 -1.9309  0.1111  0.5085
15246TIP3   OH267228   1.715   5.421  13.201  0.0655 -0.4779  0.0520
15246TIP3    H167229   1.709   5.403  13.294 -2.3563 -0.5868 -0.0498
15246TIP3    H267230   1.627   5.452  13.177  1.1445  1.3551 -1.8357
15247TIP3   OH267231   5.416   6.048  13.116  0.0583  0.2880  0.3202
15247TIP3    H167232   5.340   6.012  13.071 -0.2498  0.3731  0.7733
15247TIP3    H267233   5.444   6.122  13.061  0.2873 -0.2175 -0.2543
15248TIP3   OH267234   1.263   6.332  12.806 -0.0093 -0.1758  0.0778
15248TIP3    H167235   1.223   6.291  12.729  1.9535  1.6710 -2.0724
15248TIP3    H267236   1.352   6.298  12.808  0.2618  0.5455  0.9619
15249TIP3   OH267237   6.596   5.754  12.436 -0.3423  0.3975  0.5166
15249TIP3    H167238   6.665   5.752  12.504 -2.2206 -1.0124  2.5235
15249TIP3    H267239   6.624   5.689  12.372  1.0648  1.1530  0.3164
15250TIP3   OH267240   4.748   3.115   3.003 -0.2568 -0.0974  0.1518
15250TIP3    H167241   4.753   3.027   3.039  0.0522 -0.0604  0.2049
15250TIP3    H267242   4.836   3.151   3.014 -0.2377  0.0247 -0.3545
15251TIP3   OH267243   0.240   6.136   4.800 -0.1931  0.6980  0.1189
15251TIP3    H167244   0.193   6.191   4.738 -0.4040 -0.4261 -0.7506
15251TIP3    H267245   0.330   6.135   4.768 -0.0193  1.1291  0.5704
15252TIP3   OH267246   6.753   0.057  13.648 -0.0365 -0.3055  0.6946
15252TIP3    H167247   6.726   0.040  13.739  2.1836 -2.0804  1.1340
15252TIP3    H267248   6.783   0.148  13.648 -0.9457  0.0042  1.4973
15253TIP3   OH267249   0.368   5.141   1.804 -0.7234  0.2494 -0.0907
15253TIP3    H167250   0.357   5.068   1.864 -2.0739  0.8549  0.4172
15253TIP3    H267251   0.299   5.203   1.827 -1.4682  0.3923 -2.4203
15254TIP3   OH267252   4.835   2.811  14.941 -0.1902 -0.8032  0.1964
15254TIP3    H167253   4.915   2.781  14.983 -0.2513 -1.1679  0.0566
15254TIP3    H267254   4.765   2.773  14.993 -0.3806  1.9724  2.2195
15255TIP3   OH267255   3.234   5.139  16.852  0.4352  0.1738  0.1162
15255TIP3    H167256   3.256   5.055  16.812 -1.7013 -0.0874 -0.6169
15255TIP3    H267257   3.253   5.127  16.946 -0.4680 -1.3563  0.1259
15256TIP3   OH267258   5.552   6.439  17.038 -0.1414  0.2154 -0.2054
15256TIP3    H167259   5.558   6.440  16.943  1.4447  0.4987 -0.1356
15256TIP3    H267260   5.561   6.346  17.062 -0.9099  0.0997 -0.3286
15257TIP3   OH267261   4.848   5.707  14.157 -0.4613 -0.0695 -0.8293
15257TIP3    H167262   4.925   5.742  14.112 -0.0295 -1.2927 -1.0768
15257TIP3    H267263   4.882   5.673  14.240 -0.6670 -0.8881 -1.0699
15258TIP3   OH267264   0.798   6.441   0.563  0.3269 -0.3323 -0.0954
15258TIP3    H167265   0.711   6.440   0.523  1.2543  1.0979 -2.4241
15258TIP3    H267266   0.835   6.355   0.541  0.4006  0.0141 -1.4612
15259TIP3   OH267267   2.330   2.230  10.469  0.0006  0.3527  0.2593
15259TIP3    H167268   2.283   2.154  10.434 -0.6051  0.1033  1.5572
15259TIP3    H267269   2.364   2.275  10.391 -2.0407  0.3347 -0.7242
15260TIP3   OH267270   5.876   1.552   0.736  0.5671  0.5043 -0.1241
15260TIP3    H167271   5.947   1.520   0.791  0.0568 -2.2516 -0.8968
15260TIP3    H267272   5.796   1.524   0.780  0.1109 -0.2104 -1.3354
15261TIP3   OH267273   4.940   1.896  16.384  0.0602  0.3169  0.5254
15261TIP3    H167274   5.015   1.861  16.432  0.0202 -0.6724 -0.1019
15261TIP3    H267275   4.906   1.966  16.440 -0.8908 -1.7290  2.6567
15262TIP3   OH267276   4.846   1.014  11.554 -0.4013  0.4053  0.3976
15262TIP3    H167277   4.862   1.085  11.616 -2.0728  0.2058  1.0963
15262TIP3    H267278   4.913   1.026  11.487 -0.1970  2.2029  0.8703
15263TIP3   OH267279   4.654   2.767   2.635 -0.6473 -0.7169 -0.2427
15263TIP3    H167280   4.696   2.845   2.671  0.3491 -1.1670 -0.3915
15263TIP3    H267281   4.703   2.748   2.555  0.1452 -2.3822  0.5877
15264TIP3   OH267282   4.979   0.420  13.327  0.0551  0.0618  0.2305
15264TIP3    H167283   4.957   0.437  13.236  0.9484  1.4884  0.2551
15264TIP3    H267284   5.053   0.359  13.323  0.2105  0.2658 -0.0094
15265TIP3   OH267285   0.819   2.061   5.718  0.2074 -0.1073 -0.3478
15265TIP3    H167286   0.754   2.026   5.779  0.5568  0.3871  0.3170
15265TIP3    H267287   0.768   2.090   5.643 -0.3795  0.5469  0.2945
15266TIP3   OH267288   1.242   6.837  16.394 -0.2888  0.0092 -0.1054
15266TIP3    H167289   1.248   6.889  16.475  1.1649  1.3730 -1.0355
15266TIP3    H267290   1.165   6.872  16.350  0.9229  1.8044 -0.9329
15267TIP3   OH267291   6.202   1.321  16.208  0.3421  0.2078  0.1635
15267TIP3    H167292   6.183   1.247  16.151 -0.7212  0.3582  0.3032
15267TIP3    H267293   6.268   1.288  16.269  1.2154 -0.0632 -0.9031
15268TIP3   OH267294   0.081   5.222   3.751 -0.0438 -0.2909 -0.3738
15268TIP3    H167295   0.001   5.195   3.795 -0.5369 -1.9503 -2.1537
15268TIP3    H267296   0.145   5.231   3.821 -1.9995  2.2881  1.2588
15269TIP3   OH267297   0.752   0.176   2.619 -0.5961  0.0204  0.3745
15269TIP3    H167298   0.762   0.186   2.714 -0.8616 -2.2532  0.7034
15269TIP3    H267299   0.700   0.096   2.609 -1.0383  0.5231 -1.6925
15270TIP3   OH267300   0.944   1.361   0.812  0.2510 -0.4512 -0.0538
15270TIP3    H167301   0.926   1.454   0.796 -0.2679 -0.2078  1.7369
15270TIP3    H267302   0.962   1.356   0.906  1.6904 -1.9546 -0.3641
15271TIP3   OH267303   5.597   0.695   0.399 -0.4713 -0.4198 -0.2670
15271TIP3    H167304   5.575   0.615   0.446 -1.7100 -0.1248 -0.3035
15271TIP3    H267305   5.626   0.666   0.313 -4.3083 -0.8074 -1.6426
15272TIP3   OH267306   4.845   6.442   3.330 -0.1548 -0.1940  0.4741
15272TIP3    H167307   4.876   6.385   3.260 -0.2373  0.7944 -0.3967
15272TIP3    H267308   4.843   6.530   3.290 -0.5681  0.3257  1.6002
15273TIP3   OH267309   3.767   4.191   6.042  0.6037 -0.3777 -0.7968
15273TIP3    H167310   3.676   4.164   6.033  1.2656 -2.9893 -0.7209
15273TIP3    H267311   3.765   4.286   6.037 -2.2093 -0.2952  0.1576
15274TIP3   OH267312   3.563   6.788  14.223  0.4601  0.4411  0.2459
15274TIP3    H167313   3.633   6.852  14.211 -0.7766  1.4901 -2.2891
15274TIP3    H267314   3.593   6.710  14.176  0.4534  0.4718  0.1895
15275TIP3   OH267315   5.811   5.899  10.347 -0.3876 -0.0492  0.0886
15275TIP3    H167316   5.796   5.910  10.441  0.2237 -0.2981  0.2186
15275TIP3    H267317   5.844   5.809  10.339 -2.4626 -0.8131 -0.6104
15276TIP3   OH267318   4.484   5.970   4.743 -0.5359 -0.1500  0.3348
15276TIP3    H167319   4.508   6.029   4.815 -1.6691  1.8423 -0.8047
15276TIP3    H267320   4.505   6.020   4.664 -2.0248 -1.0668 -0.6878
15277TIP3   OH267321   3.714   3.667   5.682 -0.1336 -0.0030 -0.4077
15277TIP3    H167322   3.648   3.612   5.724  1.9220 -0.0721  3.1010
15277TIP3    H267323   3.695   3.756   5.713  0.4038  0.2369 -0.7407
15278TIP3   OH267324   1.227   2.555   4.353  0.2526  0.2466  0.2004
15278TIP3    H167325   1.135   2.581   4.346 -0.1802 -1.1517  0.4443
15278TIP3    H267326   1.228   2.463   4.328  1.1675 -0.5007  2.6749
15279TIP3   OH267327   3.324   5.803   0.275  0.3559  0.6047 -0.1500
15279TIP3    H167328   3.322   5.742   0.349  0.3831  0.4432 -0.2817
15279TIP3    H267329   3.309   5.748   0.198  1.6052  0.5724 -0.3899
15280TIP3   OH267330   3.952   2.895   1.294  0.0581 -0.0741 -0.0521
15280TIP3    H167331   3.857   2.904   1.287 -0.3576 -3.6607 -0.8997
15280TIP3    H267332   3.979   2.857   1.210  2.5296  2.0832 -0.3849
15281TIP3   OH267333   1.109   0.804   1.661 -0.1121 -0.1489 -0.6319
15281TIP3    H167334   1.048   0.752   1.713  0.9126  0.5107  1.3304
15281TIP3    H267335   1.194   0.762   1.674  0.2997  0.5239 -1.0892
15282TIP3   OH267336   1.906   4.446   5.843  0.0447  0.6580  0.4337
15282TIP3    H167337   1.897   4.499   5.922  1.0907  0.2244  0.8677
15282TIP3    H267338   1.956   4.369   5.871 -2.9434 -1.5420  0.2626
15283TIP3   OH267339   2.458   6.764  12.504  0.6271  0.3201  0.2318
15283TIP3    H167340   2.512   6.689  12.529 -0.2373 -0.7505 -1.0160
15283TIP3    H267341   2.467   6.770  12.409 -1.1413  0.3245  0.0344
15284TIP3   OH267342   1.242   0.670   4.275 -0.2631 -0.3240  0.3992
15284TIP3    H167343   1.161   0.718   4.293 -1.2966 -1.6278 -0.5715
15284TIP3    H267344   1.308   0.714   4.329 -1.6634  0.5900  1.4484
15285TIP3   OH267345   0.317   2.861  14.573  0.1158  0.3482  0.3986
15285TIP3    H167346   0.355   2.896  14.653 -1.4717  0.4565  1.1569
15285TIP3    H267347   0.260   2.790  14.602 -0.4929  0.3856 -0.6172
15286TIP3   OH267348   3.004   3.634  16.431  0.0872  0.0815 -0.1129
15286TIP3    H167349   2.929   3.648  16.373  0.3990  1.1882 -0.2700
15286TIP3    H267350   3.079   3.629  16.373  0.4432  1.5092  0.1679
15287TIP3   OH267351   5.262   1.256  10.239 -0.4455  0.3733 -0.5407
15287TIP3    H167352   5.203   1.327  10.263  0.3363  1.0949 -0.6725
15287TIP3    H267353   5.208   1.177  10.242 -0.7120  0.5707  2.2623
15288TIP3   OH267354   6.056   4.113   1.456  0.1377  0.3888  0.8308
15288TIP3    H167355   6.093   4.180   1.513  0.8014  1.6165 -0.9624
15288TIP3    H267356   6.021   4.047   1.516 -2.2984  3.1809  2.7997
15289TIP3   OH267357   3.511   5.167  11.612  0.5871  0.0075  0.6736
15289TIP3    H167358   3.444   5.231  11.590  1.7001  1.3058  0.9106
15289TIP3    H267359   3.559   5.153  11.530  0.7247 -0.0614  0.7661
15290TIP3   OH267360   1.469   1.438  12.177 -0.3594 -0.0961  0.6446
15290TIP3    H167361   1.468   1.475  12.265  1.5534 -2.2651  1.6872
15290TIP3    H267362   1.554   1.396  12.169 -1.9028 -3.3313 -0.7263
15291TIP3   OH267363   4.392   2.180  15.630  0.1465 -0.0870 -0.3615
15291TIP3    H167364   4.321   2.136  15.678  1.4681 -1.2090  0.6515
15291TIP3    H267365   4.360   2.269  15.617 -1.5628 -0.6286 -0.2000
15292TIP3   OH267366   5.926   0.511  13.968 -0.3990 -0.0223 -0.0819
15292TIP3    H167367   5.893   0.428  13.934  2.3045  0.0273 -3.3342
15292TIP3    H267368   5.992   0.487  14.032  1.2472 -0.5735 -1.8755
15293TIP3   OH267369   6.072   2.275  15.622 -0.2261  0.0812 -0.2303
15293TIP3    H167370   6.067   2.243  15.712  0.6981  1.0555  0.1853
15293TIP3    H267371   6.158   2.319  15.616 -0.4784  0.4627 -1.4362
15294TIP3   OH267372   3.524   2.075  17.083  0.4906 -0.5633  0.2220
15294TIP3    H167373   3.501   2.045  17.171  1.1526 -0.4695  0.4332
15294TIP3    H267374   3.454   2.134  17.059  0.9449  0.4315  1.2168
15295TIP3   OH267375   3.678   1.477  14.379  0.3530  0.2521  0.2425
15295TIP3    H167376   3.655   1.384  14.385  2.8130 -0.6784 -2.6533
15295TIP3    H267377   3.596   1.520  14.353 -0.4925 -1.2897  0.2607
15296TIP3   OH267378   5.217   4.122  13.387  0.3734 -0.2520  0.5350
15296TIP3    H167379   5.170   4.184  13.330  0.0594  0.0341  1.0965
15296TIP3    H267380   5.148   4.067  13.424  0.6993 -1.3065 -0.3764
15297TIP3   OH267381   0.271   4.170  14.055 -0.0268  0.1348 -0.4211
15297TIP3    H167382   0.356   4.126  14.061 -0.1753 -0.1399 -0.3036
15297TIP3    H267383   0.237   4.146  13.969  0.6304  1.3813 -1.0422
15298TIP3   OH267384   5.704   6.152  13.567  0.2961  0.0589  0.5111
15298TIP3    H167385   5.644   6.191  13.630 -0.2178 -0.3176  0.2589
15298TIP3    H267386   5.651   6.138  13.489  0.8334  0.1717  0.1181
15299TIP3   OH267387   4.608   3.336   1.426  0.0114  0.4259  0.0070
15299TIP3    H167388   4.570   3.270   1.368  1.1884 -0.0067 -0.2963
15299TIP3    H267389   4.582   3.420   1.388  0.3930  0.1464 -0.8948
15300TIP3   OH267390   0.445   3.472   0.170 -0.0863  0.5900 -0.3113
15300TIP3    H167391   0.360   3.513   0.155 -1.4112 -1.7419  0.3165
15300TIP3    H267392   0.469   3.499   0.259 -0.9026  0.1204  0.0687
15301TIP3   OH267393   5.143   3.655   2.505 -0.6127 -0.4238  0.1183
15301TIP3    H167394   5.190   3.664   2.588 -0.2899 -0.6369 -0.0400
15301TIP3    H267395   5.051   3.670   2.528 -0.8075 -2.4627  0.9032
15302TIP3   OH267396   3.871   1.781   1.240  0.2085 -0.4528 -0.1408
15302TIP3    H167397   3.803   1.769   1.174  0.7574  0.1394 -0.8346
15302TIP3    H267398   3.889   1.875   1.238  0.0991 -0.4009  0.9989
15303TIP3   OH267399   3.201   2.464  16.621 -0.6177  0.3874 -0.5736
15303TIP3    H167400   3.175   2.392  16.564 -1.5534  1.3911 -1.4655
15303TIP3    H267401   3.232   2.532  16.561 -3.0773  2.0694 -0.1145
15304TIP3   OH267402   2.819   2.613   1.916 -0.1058  0.0922  0.0130
15304TIP3    H167403   2.802   2.639   2.007 -1.2657  3.7554 -1.0758
15304TIP3    H267404   2.759   2.540   1.901 -1.4938  0.8270  1.5952
15305TIP3   OH267405   2.785   6.012  12.540  0.3620 -0.4421 -0.6042
15305TIP3    H167406   2.850   5.942  12.545  0.5965 -0.2255 -0.6085
15305TIP3    H267407   2.818   6.080  12.600  0.0430 -0.4116 -0.4578
15306TIP3   OH267408   6.253   5.867   5.228  0.0073  0.0653  0.0811
15306TIP3    H167409   6.264   5.773   5.243  3.0499  0.5571  1.6904
15306TIP3    H267410   6.185   5.872   5.160 -1.1448 -3.1957  0.7782
15307TIP3   OH267411   2.178   5.837   3.464  0.1340 -0.6280 -0.1637
15307TIP3    H167412   2.169   5.926   3.496 -0.0366 -0.9993  0.8511
15307TIP3    H267413   2.088   5.805   3.458  0.1110 -0.3731 -1.6333
15308TIP3   OH267414   6.132   2.164   5.588 -0.3291  0.1769  0.0179
15308TIP3    H167415   6.156   2.256   5.574 -0.8017  0.1498 -1.0995
15308TIP3    H267416   6.137   2.125   5.501 -1.1825 -0.6019  0.3076
15309TIP3   OH267417   3.469   1.085  12.747 -0.2051  0.0290 -0.1826
15309TIP3    H167418   3.522   1.164  12.755  1.1942 -0.9390  0.5478
15309TIP3    H267419   3.507   1.038  12.672 -0.0107 -0.6689  0.3384
15310TIP3   OH267420   2.481   4.576  12.095 -0.1431 -0.3320 -0.9866
15310TIP3    H167421   2.554   4.521  12.125  1.0020 -0.5657 -3.8031
15310TIP3    H267422   2.519   4.627  12.022 -2.0740  1.7011 -0.6630
15311TIP3   OH267423   6.118   5.163  13.525  0.0001 -0.1625  0.0877
15311TIP3    H167424   6.034   5.201  13.550  0.4597  1.5941 -0.8824
15311TIP3    H267425   6.095   5.082  13.479 -0.9608 -1.8585  3.2625
15312TIP3   OH267426   4.193   3.474   5.859  0.6380 -1.4833 -0.6432
15312TIP3    H167427   4.214   3.493   5.951  0.4846 -0.9506 -0.7171
15312TIP3    H267428   4.276   3.482   5.813  0.7752 -2.0576 -0.5063
15313TIP3   OH267429   1.398   1.871  13.785 -0.1363 -0.4316 -0.3453
15313TIP3    H167430   1.395   1.939  13.718 -0.1591 -1.3109 -1.2669
15313TIP3    H267431   1.464   1.900  13.847 -1.3351  1.2529  0.2091
15314TIP3   OH267432   0.552   0.339  16.220 -0.6975 -0.6081 -0.0272
15314TIP3    H167433   0.562   0.299  16.134 -1.0507  1.5910 -1.1420
15314TIP3    H267434   0.461   0.322  16.244 -0.9041 -0.2621 -0.5820
15315TIP3   OH267435   3.558   0.737   5.064  0.0857  0.1589 -0.0231
15315TIP3    H167436   3.607   0.783   5.132 -0.6701 -0.5644  1.0555
15315TIP3    H267437   3.467   0.766   5.077 -0.0319  0.1751 -0.8715
15316TIP3   OH267438   6.112   3.258   1.618 -0.3771 -0.3313 -0.1504
15316TIP3    H167439   6.176   3.319   1.656 -0.8735  0.5021 -0.6309
15316TIP3    H267440   6.140   3.172   1.649 -0.0958  0.2092  1.1629
15317TIP3   OH267441   6.523   3.620  15.058  0.0525 -0.5715 -0.3242
15317TIP3    H167442   6.465   3.592  14.988  0.9400 -0.7319 -1.0167
15317TIP3    H267443   6.573   3.692  15.020  0.1358 -0.2701  0.3401
15318TIP3   OH267444   5.972   6.098   4.131 -0.2858  0.4956  0.1260
15318TIP3    H167445   5.989   6.004   4.130 -1.1592  0.3182  0.6431
15318TIP3    H267446   6.042   6.135   4.184 -1.2277 -0.1575  1.8834
15319TIP3   OH267447   1.522   6.246   1.588 -0.0927  0.5020  0.1366
15319TIP3    H167448   1.443   6.296   1.563 -1.2363 -0.9451  0.7244
15319TIP3    H267449   1.552   6.288   1.669 -0.5897  0.7253  0.2094
15320TIP3   OH267450   2.627   4.379  16.719  0.4263  0.3824  0.1194
15320TIP3    H167451   2.533   4.395  16.712  0.5329  0.5319 -1.2290
15320TIP3    H267452   2.668   4.451  16.672  1.1872 -0.0275  0.1304
15321TIP3   OH267453   5.357   4.838  14.328  0.3358  0.0701 -0.3612
15321TIP3    H167454   5.431   4.858  14.385 -0.3059  0.4716  0.3437
15321TIP3    H267455   5.337   4.920  14.284 -0.1092  0.1351 -0.0471
15322TIP3   OH267456   0.076   5.792   0.440  0.0337  0.2280 -0.4840
15322TIP3    H167457   0.078   5.721   0.504  0.6687  2.8926  2.7767
15322TIP3    H267458   0.143   5.769   0.376  1.5152 -1.2746  1.4768
15323TIP3   OH267459   3.729   2.701  14.128 -0.6626 -0.2727  0.0279
15323TIP3    H167460   3.767   2.619  14.159 -0.5748 -0.5704 -0.8485
15323TIP3    H267461   3.804   2.760  14.116 -0.8282  0.3936  1.9012
15324TIP3   OH267462   0.833   2.914  11.421 -0.7235 -0.3278 -0.0280
15324TIP3    H167463   0.833   2.820  11.438 -0.4159  0.1127  2.9631
15324TIP3    H267464   0.804   2.922  11.330 -2.5688 -3.2163  0.1660
15325TIP3   OH267465   4.531   5.504  11.270  0.5238 -0.0326  0.0697
15325TIP3    H167466   4.570   5.420  11.245 -0.6793 -0.3625 -0.7845
15325TIP3    H267467   4.523   5.499  11.365  1.3189 -0.4915  0.1272
15326TIP3   OH267468   6.850   1.728  13.440 -0.6146 -0.0206  0.3947
15326TIP3    H167469   6.786   1.771  13.384 -2.3654 -0.3208  2.0668
15326TIP3    H267470   6.923   1.790  13.446 -0.4955  0.1392 -1.8764
15327TIP3   OH267471   5.557   5.963   1.550  0.0008  0.6152 -0.3384
15327TIP3    H167472   5.469   5.949   1.585 -0.6180  0.1138 -1.9895
15327TIP3    H267473   5.616   5.941   1.622 -1.2116  0.0517  0.5077
15328TIP3   OH267474   0.603   0.131  14.688 -0.2256 -0.5086 -0.8360
15328TIP3    H167475   0.577   0.110  14.599 -1.6558 -1.1952 -0.2956
15328TIP3    H267476   0.606   0.227  14.692  0.0985 -0.4809 -1.6612
15329TIP3   OH267477   1.911   3.872   0.509 -0.3702 -0.0280  0.2438
15329TIP3    H167478   1.901   3.959   0.546 -0.6049  0.2759 -0.5120
15329TIP3    H267479   1.848   3.869   0.437 -1.0378 -1.1476  0.8380
15330TIP3   OH267480   5.079   2.459  16.793  0.7945 -0.0394  0.4331
15330TIP3    H167481   5.067   2.530  16.730  2.5867 -1.0144 -1.1186
15330TIP3    H267482   5.015   2.476  16.861 -1.3439  1.0258 -1.6972
15331TIP3   OH267483   0.892   2.634  14.323  0.1515  0.1867 -0.4499
15331TIP3    H167484   0.920   2.544  14.338 -0.0571  0.0265 -0.9826
15331TIP3    H267485   0.974   2.684  14.314  0.2670  0.0730 -0.0386
15332TIP3   OH267486   5.107   4.769   6.174  0.3162 -0.3288  0.2926
15332TIP3    H167487   5.114   4.712   6.250 -0.1604 -0.5217  0.1991
15332TIP3    H267488   5.025   4.817   6.189  0.6336  0.2204  0.2970
15333TIP3   OH267489   4.552   4.273  11.694 -0.1218 -0.2366  0.0504
15333TIP3    H167490   4.534   4.192  11.741 -0.6218 -1.4443 -2.1073
15333TIP3    H267491   4.465   4.308  11.674  0.0603 -0.1673 -0.6494
15334TIP3   OH267492   0.909   0.182   3.518  0.1755  0.2018 -0.1242
15334TIP3    H167493   0.868   0.099   3.492  1.4845 -0.3262 -0.5941
15334TIP3    H267494   0.982   0.193   3.456 -2.2322  3.7361 -2.7290
15335TIP3   OH267495   6.056   1.489  12.056  0.6940 -0.7688 -0.3812
15335TIP3    H167496   6.048   1.551  11.984 -0.5455  0.1380  0.5085
15335TIP3    H267497   5.966   1.475  12.086  1.1086 -1.8022  0.4369
15336TIP3   OH267498   0.338   4.778  13.084  0.5075  0.9832 -0.0357
15336TIP3    H167499   0.294   4.842  13.140  0.8352  0.4004  0.9164
15336TIP3    H267500   0.281   4.701  13.084  0.7693  0.7846 -0.0672
15337TIP3   OH267501   0.729   3.367   0.895 -0.8944  0.1433 -0.6035
15337TIP3    H167502   0.711   3.365   0.989  0.1735  0.6616 -0.3779
15337TIP3    H267503   0.778   3.448   0.881  0.0430 -0.5324 -1.3939
15338TIP3   OH267504   0.642   3.437  15.859  0.3588  0.0956  0.0411
15338TIP3    H167505   0.683   3.514  15.898  1.2184  0.4662 -1.4991
15338TIP3    H267506   0.584   3.403  15.927  2.4598  0.1398  1.9741
15339TIP3   OH267507   3.386   2.381   1.073  0.3578  0.3985 -0.7293
15339TIP3    H167508   3.342   2.461   1.102  2.0285  0.9390  0.4348
15339TIP3    H267509   3.334   2.310   1.111 -0.9698  0.9010 -1.5402
15340TIP3   OH267510   5.037   5.952  15.028 -0.2726 -0.1512  0.7441
15340TIP3    H167511   5.069   6.029  14.981  1.5403 -1.4622 -0.3115
15340TIP3    H267512   5.001   5.895  14.960  0.4152 -1.1712  1.2100
15341TIP3   OH267513   6.513   0.552   3.638 -0.3697 -0.5292  0.0949
15341TIP3    H167514   6.511   0.641   3.674 -1.7640 -0.4662 -0.0935
15341TIP3    H267515   6.541   0.563   3.547 -0.0280 -0.3435  0.2213
15342TIP3   OH267516   1.520   2.492   0.805 -0.1422  0.3793 -0.1764
15342TIP3    H167517   1.530   2.521   0.714  0.6494 -0.6143 -0.4343
15342TIP3    H267518   1.532   2.571   0.858  0.1860  0.8302 -0.9078
15343TIP3   OH267519   1.405   0.944  16.749 -0.1788 -0.5903 -0.3101
15343TIP3    H167520   1.373   0.964  16.661  2.0457  1.0768 -0.8409
15343TIP3    H267521   1.363   1.010  16.805 -0.4755 -0.7393 -0.3537
15344TIP3   OH267522   6.255   5.549   4.958  0.3653  0.1184 -0.0375
15344TIP3    H167523   6.188   5.489   4.991  0.2490  0.8909  1.1719
15344TIP3    H267524   6.229   5.567   4.868 -0.9615  0.2595  0.3508
15345TIP3   OH267525   2.841   1.856   1.678  0.2414  0.2635 -0.0141
15345TIP3    H167526   2.930   1.822   1.671  0.1462  0.2248 -1.2857
15345TIP3    H267527   2.789   1.799   1.622 -1.1017 -1.2760  2.5858
15346TIP3   OH267528   3.151   3.607   4.574 -0.3359  0.4497 -0.0048
15346TIP3    H167529   3.201   3.640   4.500 -0.4647 -0.1459 -0.3628
15346TIP3    H267530   3.164   3.512   4.572  0.2223  0.4757  1.1412
15347TIP3   OH267531   2.808   0.039   4.539  0.2453 -0.2510 -0.0402
15347TIP3    H167532   2.903   0.041   4.545  0.3502  1.3287 -1.4097
15347TIP3    H267533   2.778   0.044   4.630  1.4173 -2.1270  0.5066
15348TIP3   OH267534   5.276   0.273   0.391  0.0432 -0.0670 -0.0995
15348TIP3    H167535   5.216   0.208   0.353  0.5827 -1.0123  0.6201
15348TIP3    H267536   5.219   0.344   0.421 -0.5450 -0.1098 -1.0578
15349TIP3   OH267537   0.208   0.261   2.083 -0.1398  0.5223  0.3157
15349TIP3    H167538   0.195   0.246   1.989  1.0696 -2.1656  0.4901
15349TIP3    H267539   0.151   0.198   2.125 -0.1244  1.2056  1.3882
15350TIP3   OH267540   4.776   2.353   6.330  0.0749  0.6729  0.0685
15350TIP3    H167541   4.815   2.374   6.415  1.0901  2.3674 -0.7520
15350TIP3    H267542   4.805   2.263   6.313 -1.3780 -0.2710  2.1143
15351TIP3   OH267543   2.196   0.653   5.050 -0.2337 -0.1237  0.8167
15351TIP3    H167544   2.222   0.742   5.076 -0.0266  0.1389 -0.2676
15351TIP3    H267545   2.146   0.621   5.125 -1.0994  1.2464  0.8585
15352TIP3   OH267546   2.106   0.584   1.456  0.2008 -0.3957 -0.4877
15352TIP3    H167547   2.177   0.622   1.508  0.1431 -2.5224  1.3173
15352TIP3    H267548   2.130   0.603   1.365  1.0633  2.2157  0.2056
15353TIP3   OH267549   2.970   6.771   3.442 -0.1668 -0.0078  0.7793
15353TIP3    H167550   3.036   6.837   3.461  0.3453 -0.2792 -0.0179
15353TIP3    H267551   3.016   6.687   3.451 -0.0325 -0.1658 -1.0658
15354TIP3   OH267552   1.977   1.581  13.336 -0.1104  0.5558  0.5090
15354TIP3    H167553   1.918   1.600  13.409  1.5340  2.2973  1.4552
15354TIP3    H267554   2.046   1.527  13.374 -0.4015 -0.4220 -0.3022
15355TIP3   OH267555   6.612   6.396   5.165 -0.0458  0.1195  0.2426
15355TIP3    H167556   6.685   6.394   5.227 -0.0855 -1.3932  0.2736
15355TIP3    H267557   6.650   6.371   5.082  0.2188  3.1297 -0.6804
15356TIP3   OH267558   5.289   4.843   2.901 -0.2872 -0.0091  0.0925
15356TIP3    H167559   5.384   4.856   2.904 -0.5324  2.0190  0.1971
15356TIP3    H267560   5.278   4.749   2.886  1.7162 -0.3903  0.8045
15357TIP3   OH267561   4.999   6.627  13.798 -0.3005 -0.1501  0.0885
15357TIP3    H167562   5.017   6.682  13.722 -0.2273  0.7139  0.7185
15357TIP3    H267563   4.974   6.542  13.761  1.0065 -0.1442 -0.8790
15358TIP3   OH267564   6.185   3.155   2.235 -0.0276 -0.4462  0.5591
15358TIP3    H167565   6.197   3.226   2.172 -2.6662 -0.3054  0.0975
15358TIP3    H267566   6.257   3.166   2.297 -0.8048  3.3005  1.0963
15359TIP3   OH267567   0.937   1.030   5.356  0.2884  0.0093  0.2234
15359TIP3    H167568   0.908   1.048   5.446 -0.6260 -1.7793  0.3521
15359TIP3    H267569   1.014   1.085   5.344 -0.9073  2.0311  1.2826
15360TIP3   OH267570   5.748   2.348   0.411  0.2316 -0.2335  0.4587
15360TIP3    H167571   5.776   2.356   0.319 -0.0648  1.3237  0.4734
15360TIP3    H267572   5.785   2.265   0.440  1.1948 -0.2747 -0.7793
15361TIP3   OH267573   1.130   5.792  11.169  0.3565 -0.2320  0.1052
15361TIP3    H167574   1.115   5.884  11.146 -1.3590 -0.6881 -0.8208
15361TIP3    H267575   1.104   5.786  11.261  0.8941  0.2848  0.2967
15362TIP3   OH267576   0.532   2.244  11.935  0.4619  0.1417 -0.0682
15362TIP3    H167577   0.518   2.175  11.870  0.3250  1.4134 -1.4137
15362TIP3    H267578   0.605   2.295  11.901  0.0990  1.0933  0.5429
15363TIP3   OH267579   5.565   0.871  11.666  0.6684  0.4544  0.6383
15363TIP3    H167580   5.496   0.807  11.684  1.5224 -1.1635 -1.3655
15363TIP3    H267581   5.602   0.892  11.751  1.2150 -2.7692  1.2989
15364TIP3   OH267582   3.945   2.981  12.162 -0.5935 -0.0588 -0.1623
15364TIP3    H167583   4.026   3.026  12.136  0.7573 -1.8458  0.7765
15364TIP3    H267584   3.960   2.955  12.253 -1.6254 -1.7310 -0.4397
15365TIP3   OH267585   0.921   3.157  14.323  0.2951  0.1809 -0.2810
15365TIP3    H167586   0.861   3.148  14.249  0.7974 -0.6000 -0.6159
15365TIP3    H267587   0.991   3.214  14.291  1.2950 -1.3461 -0.9651
15366TIP3   OH267588   1.705   2.295   0.911  0.0875  1.1778 -0.0328
15366TIP3    H167589   1.700   2.299   1.006 -0.7010 -0.3326  0.0282
15366TIP3    H267590   1.626   2.340   0.881 -0.5659  0.1592  0.1053
15367TIP3   OH267591   3.673   2.122   4.852 -0.0644  0.1011 -0.4302
15367TIP3    H167592   3.704   2.040   4.815  0.1334  0.5051 -1.1708
15367TIP3    H267593   3.645   2.174   4.777  1.2861  1.3323 -0.1494
15368TIP3   OH267594   1.355   3.336  14.010  0.1261 -0.2971 -0.0075
15368TIP3    H167595   1.313   3.395  13.947  0.6725  0.4028  0.2771
15368TIP3    H267596   1.444   3.324  13.976  0.7023  0.7646  1.0524
15369TIP3   OH267597   0.622   3.965   2.354 -0.2371  0.1770 -0.6683
15369TIP3    H167598   0.574   3.883   2.367  1.7566 -0.7373  1.8533
15369TIP3    H267599   0.714   3.939   2.357  0.4572  2.4967  0.2146
15370TIP3   OH267600   6.182   3.903  15.372 -0.3520 -0.0883 -0.3044
15370TIP3    H167601   6.223   3.927  15.455 -0.0586  1.4131 -0.8631
15370TIP3    H267602   6.253   3.864  15.320 -0.2577  0.0551 -0.2835
15371TIP3   OH267603   3.765   2.866   6.111  0.0750 -0.7169 -0.7562
15371TIP3    H167604   3.699   2.801   6.087  1.2792 -2.0297 -0.6384
15371TIP3    H267605   3.842   2.814   6.134  0.6864  0.7186  0.5725
15372TIP3   OH267606   0.739   1.437  13.327 -0.0049  0.2301 -0.2214
15372TIP3    H167607   0.741   1.523  13.283  1.8410  1.7082  2.5075
15372TIP3    H267608   0.670   1.445  13.392  1.2707  0.3209  1.1757
15373TIP3   OH267609   2.985   4.254  10.690  0.0056  0.1616  0.1527
15373TIP3    H167610   2.902   4.258  10.643  0.4875 -2.1570 -1.0795
15373TIP3    H267611   2.978   4.176  10.745  1.1449  0.2794  0.4954
15374TIP3   OH267612   5.006   1.528  14.415  0.1920  0.3291  0.5645
15374TIP3    H167613   4.995   1.449  14.362 -2.7153  1.2365 -0.3820
15374TIP3    H267614   4.965   1.507  14.499  0.6172  0.4099  0.7947
15375TIP3   OH267615   6.419   2.293   5.573  0.0640  0.1076 -0.1454
15375TIP3    H167616   6.355   2.348   5.618 -0.8444 -0.4746 -0.7087
15375TIP3    H267617   6.430   2.334   5.488 -0.0365 -0.1464 -0.2810
15376TIP3   OH267618   6.652   4.011   4.433  0.6654  0.1347 -0.5459
15376TIP3    H167619   6.647   3.982   4.342  0.6279  0.8079 -0.7682
15376TIP3    H267620   6.578   3.970   4.477  2.1270 -2.2886 -0.1961
15377TIP3   OH267621   0.608   2.424   5.422 -0.2024  0.3302  0.6083
15377TIP3    H167622   0.515   2.430   5.401 -0.3033 -1.4778  0.4062
15377TIP3    H267623   0.652   2.446   5.340 -0.4430  0.9160  0.6294
15378TIP3   OH267624   5.587   4.182  14.452  0.1752 -0.5457  0.3958
15378TIP3    H167625   5.681   4.164  14.457  0.8835  2.0477 -1.4890
15378TIP3    H267626   5.576   4.264  14.500 -0.2518  1.5214 -2.9487
15379TIP3   OH267627   2.824   4.925  13.413  0.0899  0.8549  0.0110
15379TIP3    H167628   2.819   4.954  13.322  1.7358 -0.0459 -0.3893
15379TIP3    H267629   2.875   4.993  13.457 -0.7865  1.3393  0.3154
15380TIP3   OH267630   4.920   1.939  11.043 -0.3200  0.0963  0.1447
15380TIP3    H167631   4.844   1.986  11.009  0.3399  0.5829 -0.7291
15380TIP3    H267632   4.903   1.847  11.023 -0.4768  0.2528 -0.4724
15381TIP3   OH267633   2.041   1.239   1.080  0.5147 -0.0585 -0.3946
15381TIP3    H167634   1.953   1.266   1.053 -0.0629 -1.7068 -0.2780
15381TIP3    H267635   2.061   1.165   1.024  1.9196  0.4117 -0.5331
15382TIP3   OH267636   4.095   6.377  14.163  0.3444  0.2115 -0.1148
15382TIP3    H167637   4.003   6.405  14.167 -0.0511 -0.9642 -0.5257
15382TIP3    H267638   4.141   6.437  14.222 -0.5237  1.4227 -0.6278
15383TIP3   OH267639   5.517   2.009   1.741  0.0818 -0.7853 -0.4311
15383TIP3    H167640   5.602   1.966   1.737  0.4566 -0.1217  0.1698
15383TIP3    H267641   5.499   2.017   1.835  1.1186  2.4255 -0.3740
15384TIP3   OH267642   3.102   4.812  13.462 -0.2064  0.2546 -0.2647
15384TIP3    H167643   3.114   4.882  13.526 -2.0873  1.0586 -0.7344
15384TIP3    H267644   3.077   4.857  13.382 -3.6609 -0.9749 -0.0263
15385TIP3   OH267645   3.473   3.783   5.507  0.1518 -0.7050  0.2565
15385TIP3    H167646   3.500   3.709   5.560  0.1484 -0.4014  0.6843
15385TIP3    H267647   3.378   3.783   5.513  0.1578 -0.5974  0.3497
15386TIP3   OH267648   4.338   5.027  16.798  0.1862 -0.0495  0.1616
15386TIP3    H167649   4.274   5.091  16.830  1.2517  1.1137  0.0696
15386TIP3    H267650   4.423   5.064  16.823  0.9007 -0.6812 -1.2382
15387TIP3   OH267651   6.466   4.232  11.805 -0.3037  0.0404  0.1930
15387TIP3    H167652   6.441   4.288  11.878 -1.1871  1.3054 -1.0376
15387TIP3    H267653   6.542   4.275  11.766 -1.0626  0.4884 -0.8335
15388TIP3   OH267654   4.115   2.158  16.291 -0.0443  0.2787  0.7218
15388TIP3    H167655   4.190   2.143  16.349 -0.5563 -0.5686  1.1827
15388TIP3    H267656   4.140   2.114  16.209  0.3691  0.8456  0.5361
15389TIP3   OH267657   2.232   0.273  13.984  0.1592  0.0174 -0.0300
15389TIP3    H167658   2.255   0.341  14.048  1.0890  0.4040 -0.7466
15389TIP3    H267659   2.184   0.208  14.035  2.2991 -0.5078  1.4759
15390TIP3   OH267660   3.062   3.058   0.653 -0.1578 -0.0053 -0.5104
15390TIP3    H167661   3.105   2.982   0.614  1.2223  0.4416  0.0732
15390TIP3    H267662   3.129   3.097   0.710 -0.3116  2.4640 -1.8640
15391TIP3   OH267663   0.290   0.765   3.710  0.4599  0.0469 -0.0963
15391TIP3    H167664   0.251   0.806   3.787 -3.2085 -1.2847 -1.0350
15391TIP3    H267665   0.292   0.834   3.644 -0.1954  0.1966  0.0310
15392TIP3   OH267666   0.692   5.383   1.582  0.2464  0.6899  0.6119
15392TIP3    H167667   0.666   5.367   1.672  0.7532  0.4625  0.7184
15392TIP3    H267668   0.777   5.427   1.588 -0.2845  1.8273  0.2756
15393TIP3   OH267669   0.723   0.341  15.639  0.0153  0.0156  0.2783
15393TIP3    H167670   0.818   0.348  15.635  0.0735 -1.0245 -0.5903
15393TIP3    H267671   0.704   0.250  15.616 -1.2532  0.5235 -0.8435
15394TIP3   OH267672   4.028   2.140  15.998 -0.1681 -0.3681  0.1774
15394TIP3    H167673   4.036   2.162  15.905  0.2477 -0.1464  0.2628
15394TIP3    H267674   4.118   2.137  16.030 -0.3364  0.2133  0.7225
15395TIP3   OH267675   3.535   5.109   1.457  0.1085 -0.4357  0.0747
15395TIP3    H167676   3.548   5.056   1.535  1.4454  0.6093  0.5971
15395TIP3    H267677   3.620   5.110   1.414  0.7798  2.9479  1.1994
15396TIP3   OH267678   1.043   3.054  15.939 -0.2718 -0.5066  0.4799
15396TIP3    H167679   0.978   3.096  15.882 -0.9010 -0.5411  1.1694
15396TIP3    H267680   1.006   3.059  16.027  0.7083 -0.4314  0.9018
15397TIP3   OH267681   3.040   4.615  16.950 -0.2550 -0.0987  0.1921
15397TIP3    H167682   3.081   4.692  16.990 -0.9719  0.4211 -0.0389
15397TIP3    H267683   3.104   4.545  16.962 -0.7454 -0.1823  2.9160
15398TIP3   OH267684   3.847   0.167   2.355 -0.1233  0.3848 -0.2871
15398TIP3    H167685   3.920   0.209   2.310  0.8707 -0.6185  0.3287
15398TIP3    H267686   3.823   0.093   2.299  0.0498  0.0820  0.0352
15399TIP3   OH267687   4.677   1.554   4.370 -0.3630  0.5500  0.1526
15399TIP3    H167688   4.656   1.461   4.374 -1.2899  0.7768  1.3429
15399TIP3    H267689   4.764   1.561   4.409 -0.5443  0.2545  0.6127
15400TIP3   OH267690   2.846   2.824  14.727 -0.1713  0.1923  0.0596
15400TIP3    H167691   2.756   2.819  14.695 -0.5325  1.1321  0.8974
15400TIP3    H267692   2.900   2.821  14.647 -1.0149  1.5478 -0.5916
15401TIP3   OH267693   1.941   4.026  11.840 -0.7004 -0.8277  0.2797
15401TIP3    H167694   1.992   4.054  11.916  1.4894 -0.8308 -1.0839
15401TIP3    H267695   1.960   4.091  11.773 -2.5807 -0.8287 -0.2891
15402TIP3   OH267696   0.774   0.994  12.472  0.1098  0.0986 -0.2529
15402TIP3    H167697   0.701   1.002  12.410 -0.8872 -1.7684  0.6007
15402TIP3    H267698   0.740   1.029  12.554  0.6764  0.5325 -0.1952
15403TIP3   OH267699   1.119   5.330   0.551 -0.6394  0.3723  0.4220
15403TIP3    H167700   1.076   5.376   0.479 -0.4922  2.9859  1.8947
15403TIP3    H267701   1.046   5.292   0.601 -0.9338  0.9831  0.4640
15404TIP3   OH267702   1.547   6.427  14.237 -0.1827  0.2896 -0.1246
15404TIP3    H167703   1.568   6.366  14.308  2.6485  0.2158 -0.8879
15404TIP3    H267704   1.540   6.372  14.160  2.2270  0.7990 -0.7921
15405TIP3   OH267705   4.461   3.299  15.838 -0.0740 -0.3441  0.1882
15405TIP3    H167706   4.500   3.295  15.751 -2.2766  3.1994 -1.1993
15405TIP3    H267707   4.436   3.209  15.858  2.1411 -1.5409 -1.9736
15406TIP3   OH267708   2.916   4.354  11.670 -0.1757  0.1913  0.2354
15406TIP3    H167709   2.916   4.398  11.585 -0.9866  2.9587  1.5243
15406TIP3    H267710   2.829   4.315  11.677  0.9299 -2.8765 -1.4002
15407TIP3   OH267711   6.666   2.514   3.505 -0.1965  0.2474  0.2729
15407TIP3    H167712   6.645   2.556   3.588 -1.0371 -0.4805  0.4532
15407TIP3    H267713   6.760   2.527   3.494 -0.1492  0.7011  1.1398
15408TIP3   OH267714   2.438   5.218   1.475  0.2643 -0.3981  0.0884
15408TIP3    H167715   2.345   5.236   1.492 -0.1090 -0.5605 -1.5521
15408TIP3    H267716   2.485   5.291   1.514 -0.5195 -0.4720  1.2192
15409TIP3   OH267717   1.591   4.088  12.113 -0.4087 -0.1254  0.1325
15409TIP3    H167718   1.641   4.018  12.071 -2.0515 -1.6209  0.5305
15409TIP3    H267719   1.575   4.151  12.044 -0.5284 -1.0922 -0.7463
15410TIP3   OH267720   4.326   6.342  14.719  0.2045 -0.0059  0.0968
15410TIP3    H167721   4.357   6.409  14.659  1.3149 -0.7476 -0.1715
15410TIP3    H267722   4.402   6.287  14.737 -1.0106 -2.1762 -0.9523
15411TIP3   OH267723   6.123   3.217  14.112 -0.2618  0.3398 -0.5183
15411TIP3    H167724   6.183   3.160  14.160 -1.0915 -0.1823 -0.0705
15411TIP3    H267725   6.140   3.197  14.020 -0.8463 -0.9947 -0.3696
15412TIP3   OH267726   2.803   2.630  13.690  0.1381  0.0837 -0.2747
15412TIP3    H167727   2.716   2.631  13.650 -0.0535 -0.2988  0.1197
15412TIP3    H267728   2.844   2.551  13.656  0.1625  0.0248 -0.1091
15413TIP3   OH267729   3.961   4.381  14.263 -0.1340 -0.2491  0.3129
15413TIP3    H167730   3.877   4.362  14.305 -0.2051 -0.6954 -0.0182
15413TIP3    H267731   3.956   4.473  14.240 -1.0445 -0.5624 -0.8226
15414TIP3   OH267732   6.078   6.703   5.422 -0.5576  0.4636  0.0544
15414TIP3    H167733   6.077   6.711   5.517  0.6553 -0.3030  0.1436
15414TIP3    H267734   6.079   6.609   5.405 -0.6894  0.5894 -0.7221
15415TIP3   OH267735   4.972   0.379   3.055 -0.0389  0.0627 -0.2556
15415TIP3    H167736   5.058   0.359   3.090 -0.5024 -1.3078  0.1778
15415TIP3    H267737   4.982   0.463   3.011  1.7291 -0.4850 -0.9658
15416TIP3   OH267738   1.141   2.613  15.961  0.0204  0.0554 -0.0285
15416TIP3    H167739   1.068   2.640  16.017 -0.6960  0.0925 -0.9570
15416TIP3    H267740   1.191   2.693  15.946 -0.6401  0.3556 -0.6644
15417TIP3   OH267741   2.613   3.025  11.518  0.1148  0.0847 -0.5991
15417TIP3    H167742   2.672   3.024  11.444 -0.7488 -3.6776 -1.4214
15417TIP3    H267743   2.526   3.034  11.480 -0.3429 -1.9079 -0.1452
15418TIP3   OH267744   2.695   5.327   1.700 -0.3414 -0.0748  0.0512
15418TIP3    H167745   2.627   5.349   1.764 -0.1533  0.2635  0.1384
15418TIP3    H267746   2.687   5.233   1.688  0.0300 -0.2519  1.0538
15419TIP3   OH267747   0.624   4.369   5.111  0.0166  0.5126  0.2400
15419TIP3    H167748   0.672   4.298   5.069 -2.1092 -1.2116  0.5683
15419TIP3    H267749   0.594   4.423   5.038  0.3199  0.1890 -0.1304
15420TIP3   OH267750   3.533   4.880   0.575  0.0209 -0.1881  0.3389
15420TIP3    H167751   3.510   4.862   0.667 -0.1365 -0.0627  0.3231
15420TIP3    H267752   3.541   4.793   0.536  1.1388 -0.2795  0.7270
15421TIP3   OH267753   2.752   5.463  13.125 -0.6093 -0.1206 -0.3468
15421TIP3    H167754   2.706   5.488  13.205  0.2611 -1.4479  0.6094
15421TIP3    H267755   2.829   5.416  13.156 -0.1779 -0.5247 -1.9712
15422TIP3   OH267756   4.696   1.739   6.092 -0.2011  0.1304 -0.0476
15422TIP3    H167757   4.664   1.667   6.147  1.7400 -0.0556  0.9336
15422TIP3    H267758   4.765   1.780   6.144 -1.2135  2.7321 -0.5938
15423TIP3   OH267759   5.271   4.989  14.932 -0.1103  0.1823 -0.3345
15423TIP3    H167760   5.315   4.929  14.994 -1.5499 -0.6435 -0.0748
15423TIP3    H267761   5.322   4.981  14.852  1.0012  0.2493  0.3415
15424TIP3   OH267762   4.372   2.869   3.114 -0.7061  0.1230  0.0607
15424TIP3    H167763   4.433   2.939   3.138  0.0842 -1.1469  1.8794
15424TIP3    H267764   4.300   2.878   3.175  0.6503 -2.2383  2.1864
15425TIP3   OH267765   4.198   5.797  14.754  0.1572  0.2688  0.5539
15425TIP3    H167766   4.108   5.827  14.744 -0.7123 -1.6125  2.0732
15425TIP3    H267767   4.226   5.834  14.838  0.9089  1.0290 -0.0174
15426TIP3   OH267768   6.011   6.408   5.511  0.0887  0.1213  0.4001
15426TIP3    H167769   5.931   6.451   5.539  0.6035  1.1013  0.4112
15426TIP3    H267770   6.045   6.367   5.591 -0.4080 -0.3365  0.3856
15427TIP3   OH267771   3.432   5.592  13.897  0.3446 -0.4364  0.8131
15427TIP3    H167772   3.478   5.508  13.898 -0.3140 -0.8298 -0.1768
15427TIP3    H267773   3.359   5.578  13.836 -1.2707  0.0840  2.5518
15428TIP3   OH267774   5.993   2.492   2.282 -0.1617 -0.1866  0.4001
15428TIP3    H167775   5.999   2.411   2.333  0.0733  0.1359  0.8886
15428TIP3    H267776   6.013   2.562   2.344  2.1276  0.1011 -0.5537
15429TIP3   OH267777   4.094   4.868  15.719  0.5635  0.2115 -0.4786
15429TIP3    H167778   4.092   4.843  15.812 -0.0108 -1.1350 -0.8335
15429TIP3    H267779   4.002   4.872  15.694  0.5578  3.2643 -0.3483
15430TIP3   OH267780   1.872   4.863  15.396  0.2619  0.1783 -0.7722
15430TIP3    H167781   1.891   4.776  15.431  1.4202  0.7763  0.1322
15430TIP3    H267782   1.951   4.888  15.349 -0.4952  0.2789 -2.0482
15431TIP3   OH267783   1.955   1.178  12.293  0.1889 -0.1830  0.6147
15431TIP3    H167784   1.860   1.168  12.296  0.3032 -0.9895  2.3424
15431TIP3    H267785   1.989   1.092  12.320  1.4842 -0.7816 -2.4667
15432TIP3   OH267786   6.046   4.561   0.023  0.0568 -0.2301  0.6690
15432TIP3    H167787   6.015   4.487   0.074 -0.9164  0.7535  1.5493
15432TIP3    H267788   5.981   4.630   0.038 -0.1132  0.1928 -1.6805
15433TIP3   OH267789   6.338   2.597  10.402  0.3793 -0.0367  0.4207
15433TIP3    H167790   6.430   2.600  10.376  0.3105  0.5730  0.2228
15433TIP3    H267791   6.329   2.515  10.451  1.1782  0.2315  1.0356
15434TIP3   OH267792   2.529   0.744   0.553  0.1746  0.3406 -0.0726
15434TIP3    H167793   2.453   0.732   0.610  0.9071 -0.4481  0.7668
15434TIP3    H267794   2.516   0.830   0.513 -1.8339 -0.3216 -0.9983
15435TIP3   OH267795   3.320   4.746  13.014  0.3630  0.0946 -0.5862
15435TIP3    H167796   3.372   4.825  13.029 -1.1752  1.3201 -1.3612
15435TIP3    H267797   3.275   4.762  12.931 -1.5812 -0.6815  0.2565
15436TIP3   OH267798   3.682   2.077  16.170 -0.0623 -0.3624  0.5730
15436TIP3    H167799   3.734   2.038  16.241 -0.5855  0.4524  1.4212
15436TIP3    H267800   3.603   2.109  16.213 -0.8723 -0.7933 -0.5595
15437TIP3   OH267801   5.720   0.174   1.732 -0.2750 -0.0835  0.2571
15437TIP3    H167802   5.763   0.198   1.650  2.1453  0.8545  1.7136
15437TIP3    H267803   5.667   0.098   1.709 -0.7804  0.9623 -2.4477
15438TIP3   OH267804   0.635   3.057   1.708 -0.1692  0.7232 -0.1259
15438TIP3    H167805   0.677   3.074   1.624 -1.6408 -0.0701 -1.0603
15438TIP3    H267806   0.707   3.038   1.768  0.9317  1.8223 -1.0722
15439TIP3   OH267807   3.945   0.141   0.539  0.3358  0.0297  0.1271
15439TIP3    H167808   3.927   0.094   0.620  0.9331 -2.9418 -1.3405
15439TIP3    H267809   4.013   0.204   0.563  1.9201 -2.0909  1.6230
15440TIP3   OH267810   5.896   2.714  14.759 -0.4502  0.1157  0.0955
15440TIP3    H167811   5.831   2.645  14.773  1.1418 -1.3189  0.6516
15440TIP3    H267812   5.866   2.786  14.815 -1.1288 -0.8261  0.9775
15441TIP3   OH267813   5.921   5.667   5.371 -0.4271  0.3969 -0.0109
15441TIP3    H167814   5.930   5.696   5.461 -0.5702 -0.6675  0.3569
15441TIP3    H267815   5.836   5.622   5.368 -0.1656 -0.0833 -0.5223
15442TIP3   OH267816   4.929   0.030   2.550  0.6786  0.0960 -0.3789
15442TIP3    H167817   5.012   0.051   2.508  0.6978  0.5102 -0.1431
15442TIP3    H267818   4.896  -0.046   2.503  1.6804 -0.7086  0.1609
15443TIP3   OH267819   5.465   6.477   0.276  0.2104  1.4100 -0.1061
15443TIP3    H167820   5.418   6.548   0.320 -1.2576  0.2478  0.2708
15443TIP3    H267821   5.448   6.491   0.183  2.0627  2.9892 -0.2821
15444TIP3   OH267822   0.069   1.168  13.299 -0.6431  0.3225 -0.3840
15444TIP3    H167823   0.162   1.185  13.309 -0.5041  0.3072 -1.5128
15444TIP3    H267824   0.033   1.249  13.262 -1.3099  0.7668  1.1555
15445TIP3   OH267825   1.290   4.963  11.725  0.1314 -0.8881 -0.0884
15445TIP3    H167826   1.254   4.918  11.649  0.4080 -1.7827  0.2978
15445TIP3    H267827   1.384   4.971  11.707  0.1969 -1.0967  0.1506
15446TIP3   OH267828   5.126   1.820   1.062  0.5006 -0.3978 -0.0777
15446TIP3    H167829   5.054   1.825   1.125 -0.6630 -0.2330 -1.3527
15446TIP3    H267830   5.204   1.838   1.113 -0.5428  1.2044  1.0479
15447TIP3   OH267831   5.353   1.054  11.422  0.0453  0.0696 -0.2923
15447TIP3    H167832   5.391   1.136  11.455  0.0852 -0.6313  1.5339
15447TIP3    H267833   5.350   1.065  11.327  2.5004  1.1379 -0.3140
15448TIP3   OH267834   2.334   2.530  12.137 -0.4826 -0.0748 -0.0448
15448TIP3    H167835   2.382   2.532  12.054 -2.0779  0.8691 -0.9980
15448TIP3    H267836   2.386   2.473  12.193  1.1286 -0.0052 -1.3853
15449TIP3   OH267837   0.611   6.122   2.259 -0.1226 -0.3739  0.2792
15449TIP3    H167838   0.631   6.157   2.346 -2.5622 -0.9322  1.1479
15449TIP3    H267839   0.601   6.028   2.272  2.5294 -0.9797 -1.2868
15450TIP3   OH267840   2.748   3.836   0.205  0.2354 -0.3213  0.5963
15450TIP3    H167841   2.662   3.803   0.182  0.6802 -1.4590  0.4959
15450TIP3    H267842   2.809   3.779   0.158  1.0541  0.2403  0.9423
15451TIP3   OH267843   2.726   2.403  11.303 -0.3933 -0.0299  0.2111
15451TIP3    H167844   2.783   2.395  11.226  0.3838  1.4439  0.6079
15451TIP3    H267845   2.702   2.496  11.306  0.0203  0.0456  2.0470
15452TIP3   OH267846   4.358   4.130  10.268 -0.3117 -0.5068  0.2304
15452TIP3    H167847   4.313   4.047  10.282 -1.0219 -0.0304  0.8365
15452TIP3    H267848   4.427   4.132  10.334  1.1592 -1.5957 -1.2079
15453TIP3   OH267849   3.335   5.684   5.874 -0.0633  0.1563  0.0762
15453TIP3    H167850   3.309   5.629   5.948  0.8960 -1.9572 -1.0630
15453TIP3    H267851   3.381   5.758   5.914 -1.9443  0.5508  1.7076
15454TIP3   OH267852   3.301   1.823  12.732 -0.8303  0.1974 -0.0130
15454TIP3    H167853   3.341   1.765  12.668  0.1649 -0.7682  1.4185
15454TIP3    H267854   3.259   1.764  12.795 -1.0987  1.0791  0.6564
15455TIP3   OH267855   1.980   6.171  14.852  0.5182 -0.1041  0.3775
15455TIP3    H167856   2.030   6.122  14.918  0.8599 -0.3066 -0.0238
15455TIP3    H267857   1.904   6.205  14.899  1.3325  0.7074  1.1380
15456TIP3   OH267858   1.436   0.761   4.071 -0.5872 -0.0080 -0.0299
15456TIP3    H167859   1.399   0.747   4.157 -0.0838  0.5465  0.2854
15456TIP3    H267860   1.530   0.748   4.083 -0.3577  1.3276 -0.2055
15457TIP3   OH267861   5.248   1.080   5.287 -0.1398  0.6341 -0.0927
15457TIP3    H167862   5.164   1.051   5.252 -0.7072  1.6129  0.4331
15457TIP3    H267863   5.271   1.014   5.352 -0.1723  0.0185 -0.6915
15458TIP3   OH267864   6.829   2.499   2.383  0.6571  0.3633  0.1971
15458TIP3    H167865   6.794   2.422   2.429  2.5732 -0.5333  0.2804
15458TIP3    H267866   6.904   2.465   2.335  1.7876  2.2617  0.5299
15459TIP3   OH267867   6.839   4.854  15.551  0.1271 -0.2886  0.1597
15459TIP3    H167868   6.842   4.889  15.640  2.6959  0.9351 -0.2951
15459TIP3    H267869   6.903   4.782  15.551  2.0627  1.3257 -1.2205
15460TIP3   OH267870   1.088   3.983  11.929 -0.0309  0.1365 -0.2182
15460TIP3    H167871   1.019   4.004  11.991  1.6312  0.1857  1.7258
15460TIP3    H267872   1.080   3.889  11.914 -0.5220  0.1482 -0.0218
15461TIP3   OH267873   1.875   6.042   1.984 -0.5743 -0.1265 -0.3364
15461TIP3    H167874   1.794   6.037   2.034  0.0472 -1.8104  0.5629
15461TIP3    H267875   1.943   6.054   2.050  0.3750 -3.3493 -0.5558
15462TIP3   OH267876   3.280   1.456   5.837 -0.2682 -0.6675 -0.0031
15462TIP3    H167877   3.305   1.549   5.833 -1.1840 -0.3961  0.2720
15462TIP3    H267878   3.272   1.430   5.745 -1.5126 -0.0326 -0.1004
15463TIP3   OH267879   5.713   4.081  15.608 -0.5907 -0.3966 -0.0369
15463TIP3    H167880   5.784   4.142  15.629 -0.2130 -0.6739 -0.4693
15463TIP3    H267881   5.641   4.107  15.665  0.4914 -1.3460  1.8336
15464TIP3   OH267882   4.426   5.753   5.179 -0.0237 -0.4262 -0.1067
15464TIP3    H167883   4.425   5.666   5.219  0.1098  0.0111  0.9047
15464TIP3    H267884   4.353   5.753   5.117 -0.7188 -0.9005  0.6943
15465TIP3   OH267885   0.421   3.620  12.690  0.0227  0.4136  0.0124
15465TIP3    H167886   0.464   3.689  12.639 -0.0476 -0.1853 -0.8880
15465TIP3    H267887   0.357   3.583  12.629  0.2864 -0.6535  0.3755
15466TIP3   OH267888   5.682   0.778   3.292 -0.2601 -0.1084 -0.3410
15466TIP3    H167889   5.745   0.788   3.221  0.1709 -2.5064 -0.3867
15466TIP3    H267890   5.619   0.713   3.259 -2.3188  1.6125  0.0169
15467TIP3   OH267891   6.140   1.674   5.375 -0.2722 -0.0446 -0.4588
15467TIP3    H167892   6.214   1.734   5.380 -0.4378  0.1065  0.5632
15467TIP3    H267893   6.137   1.646   5.284 -0.1776  1.4939 -0.9729
15468TIP3   OH267894   3.817   2.228   3.758 -0.2924 -0.5983  0.1315
15468TIP3    H167895   3.775   2.175   3.826 -0.2205  1.7080  2.0983
15468TIP3    H267896   3.758   2.220   3.682 -1.4605 -1.6169  1.0926
15469TIP3   OH267897   6.203   3.783   4.047  0.0377 -0.3898  0.1801
15469TIP3    H167898   6.133   3.847   4.036  0.7692  0.3304 -0.4562
15469TIP3    H267899   6.223   3.785   4.141  0.8293  1.2000  0.0216
15470TIP3   OH267900   6.185   1.910  13.469  0.4393  0.0404 -0.3693
15470TIP3    H167901   6.110   1.969  13.475  0.7936  0.6409 -1.5002
15470TIP3    H267902   6.176   1.852  13.544  0.1178  1.5861  0.8423
15471TIP3   OH267903   2.786   5.831  15.071  0.4983 -0.1755 -0.1327
15471TIP3    H167904   2.743   5.856  15.153  1.9506  1.1074  0.2858
15471TIP3    H267905   2.830   5.748  15.092 -1.0482 -1.0689 -0.3300
15472TIP3   OH267906   2.006   5.199   2.652 -0.4835  0.1370  0.2024
15472TIP3    H167907   2.045   5.244   2.577  0.8311 -0.1830  0.6540
15472TIP3    H267908   1.933   5.150   2.616 -0.6940  1.0357 -0.6336
15473TIP3   OH267909   3.347   1.028  12.123 -0.1227  0.1034  0.1105
15473TIP3    H167910   3.286   0.999  12.055  0.2223 -0.6050  0.1030
15473TIP3    H267911   3.299   1.017  12.205 -0.7881  1.5940 -0.0477
15474TIP3   OH267912   0.565   4.466   5.355  0.4939 -0.6715 -0.3231
15474TIP3    H167913   0.550   4.405   5.283 -0.4104  2.2276 -2.7512
15474TIP3    H267914   0.647   4.510   5.333 -0.2744  0.9280 -0.1445
15475TIP3   OH267915   2.647   6.315  14.809 -0.5432  0.3153  0.5163
15475TIP3    H167916   2.733   6.273  14.814 -0.2123  1.1147  1.9584
15475TIP3    H267917   2.665   6.401  14.770 -0.0614  1.9119  3.9432
15476TIP3   OH267918   0.900   0.654   1.338 -0.5764  0.2817 -0.7315
15476TIP3    H167919   0.867   0.591   1.274 -2.0765  0.8258 -0.5417
15476TIP3    H267920   0.976   0.611   1.377 -1.2041 -1.1609 -1.0315
15477TIP3   OH267921   2.515   6.670  12.780 -0.3933  0.3904 -0.3794
15477TIP3    H167922   2.458   6.741  12.750 -0.1641  1.0470  0.6834
15477TIP3    H267923   2.533   6.691  12.872  0.6612 -0.4012 -0.3868
15478TIP3   OH267924   6.400   2.083  12.228 -0.2408  0.8611 -0.4194
15478TIP3    H167925   6.439   2.162  12.264 -1.1972  1.5967 -0.9555
15478TIP3    H267926   6.385   2.103  12.135  0.5211 -0.3485 -0.8329
15479TIP3   OH267927   3.467   0.182  12.446  0.0966 -0.2399  0.3377
15479TIP3    H167928   3.416   0.255  12.482 -0.0747  0.5153 -1.3414
15479TIP3    H267929   3.409   0.106  12.454 -1.2426  0.5479 -1.2721
15480TIP3   OH267930   3.452   4.109  11.849 -0.5069  0.5745  0.0289
15480TIP3    H167931   3.526   4.059  11.815 -1.9730 -1.0905 -0.8443
15480TIP3    H267932   3.463   4.107  11.944  1.2054  1.4348 -0.1205
15481TIP3   OH267933   3.847   0.139  12.718 -0.3701 -0.1987  0.4553
15481TIP3    H167934   3.859   0.221  12.767  0.2287 -0.9694  1.6410
15481TIP3    H267935   3.931   0.095  12.725 -0.6584 -0.8727 -0.2717
15482TIP3   OH267936   1.609   3.972   6.206 -0.2075  0.7817 -0.5235
15482TIP3    H167937   1.603   4.041   6.139 -0.0637  1.6805  0.3656
15482TIP3    H267938   1.688   3.923   6.182  0.9209  2.2513  0.0014
15483TIP3   OH267939   3.993   4.762   5.419 -0.5008 -0.1371  0.5755
15483TIP3    H167940   4.005   4.747   5.513  0.7997 -0.7018  0.3459
15483TIP3    H267941   3.902   4.738   5.402 -0.4786 -0.9734  1.5268
15484TIP3   OH267942   6.816   0.187   0.857 -0.5555 -0.2565 -0.1649
15484TIP3    H167943   6.800   0.269   0.811 -0.3485 -1.1178 -1.8729
15484TIP3    H267944   6.765   0.122   0.810 -0.1974 -1.2325  0.7357
15485TIP3   OH267945   1.848   1.926  16.641  0.0420 -0.3893  0.3776
15485TIP3    H167946   1.756   1.923  16.613 -0.1910  1.4761  0.8415
15485TIP3    H267947   1.897   1.947  16.562  0.0647 -1.2308  0.1623
15486TIP3   OH267948   1.482   6.583  16.234 -0.2000 -0.2546  0.1074
15486TIP3    H167949   1.394   6.581  16.273 -0.4167  0.9819 -0.2922
15486TIP3    H267950   1.466   6.592  16.140  0.3317  1.8516  0.1734
15487TIP3   OH267951   5.679   3.652   3.056 -0.2073 -0.2168 -0.4200
15487TIP3    H167952   5.742   3.583   3.078 -0.3585 -0.5325 -0.9554
15487TIP3    H267953   5.732   3.719   3.013  0.4686  1.3176  2.5143
15488TIP3   OH267954   6.381   1.797   4.168 -0.2374 -0.1655 -0.2890
15488TIP3    H167955   6.378   1.845   4.251 -1.4727  0.5268 -0.7145
15488TIP3    H267956   6.453   1.837   4.120  0.3257 -0.4048  0.3333
15489TIP3   OH267957   6.731   3.392   5.481 -0.8922 -0.8682  0.5365
15489TIP3    H167958   6.692   3.449   5.547 -0.7945 -0.9977  0.7095
15489TIP3    H267959   6.789   3.334   5.532 -0.6247 -0.8032  0.3070
15490TIP3   OH267960   4.409   6.445   3.672  0.1691  0.2918 -0.2069
15490TIP3    H167961   4.339   6.380   3.680  0.0330  0.3419 -0.9509
15490TIP3    H267962   4.388   6.510   3.739  0.5086 -0.6007  0.7885
15491TIP3   OH267963   4.768   2.517  12.416 -0.1653 -0.4498  0.0902
15491TIP3    H167964   4.764   2.426  12.447 -0.5669 -0.8721 -1.1500
15491TIP3    H267965   4.687   2.529  12.367 -0.4669  0.8334  0.8615
15492TIP3   OH267966   5.213   1.755   2.452  0.3472 -0.4618  0.4055
15492TIP3    H167967   5.262   1.832   2.480 -0.0754 -0.3536  0.8583
15492TIP3    H267968   5.161   1.785   2.377 -0.1657 -0.1810  0.8682
15493TIP3   OH267969   3.592   0.009  10.593  0.0863 -0.2749 -0.2482
15493TIP3    H167970   3.677  -0.034  10.584  0.1199 -0.0240 -1.2059
15493TIP3    H267971   3.528  -0.058  10.571  0.1908  0.5511 -3.6366
15494TIP3   OH267972   5.401   4.235   3.378 -0.2821  0.2368  0.2298
15494TIP3    H167973   5.440   4.159   3.421 -0.4203  1.2898  2.3121
15494TIP3    H267974   5.460   4.307   3.398  0.7344  0.4748 -3.0895
15495TIP3   OH267975   4.271   4.240  15.175  0.3439 -0.0303  0.0173
15495TIP3    H167976   4.254   4.179  15.104  1.2262  0.7818 -0.9075
15495TIP3    H267977   4.292   4.185  15.250  0.1351 -0.8751 -0.5402
15496TIP3   OH267978   5.843   4.354   3.361  0.0109 -0.4070  0.5946
15496TIP3    H167979   5.778   4.410   3.403 -2.7696 -1.5874 -1.7884
15496TIP3    H267980   5.926   4.380   3.400 -1.3420  3.8821  1.0632
15497TIP3   OH267981   1.232   5.026  14.456  0.0573 -0.1028 -0.2969
15497TIP3    H167982   1.298   5.033  14.387 -0.8152 -2.8674 -1.5626
15497TIP3    H267983   1.274   4.974  14.524 -0.5096 -1.2100 -0.7678
15498TIP3   OH267984   2.295   4.290   3.224  0.8844 -0.3955 -0.1920
15498TIP3    H167985   2.374   4.268   3.175  0.4407 -0.5746 -0.8470
15498TIP3    H267986   2.314   4.375   3.263  1.1997 -0.1777 -0.8001
15499TIP3   OH267987   0.651   2.181  12.493 -0.3099 -0.3879  0.2654
15499TIP3    H167988   0.665   2.087  12.481  0.1625 -0.5003  1.5449
15499TIP3    H267989   0.728   2.222  12.454 -0.5534 -0.5162 -0.3631
15500TIP3   OH267990   3.030   3.842  12.050 -0.9192 -0.2202  0.4160
15500TIP3    H167991   3.112   3.794  12.065 -0.1697  1.4857  2.2563
15500TIP3    H267992   3.039   3.875  11.960  0.6445  0.2590  0.7071
15501TIP3   OH267993   5.417   3.925   1.899  0.0848  0.1892 -0.4490
15501TIP3    H167994   5.495   3.925   1.954  0.3447 -1.2737 -0.7657
15501TIP3    H267995   5.444   3.879   1.819 -1.3103 -1.1742 -0.1911
15502TIP3   OH267996   5.687   1.994  14.444  0.7077 -0.2191  0.2817
15502TIP3    H167997   5.690   2.022  14.535  1.3923  0.8715 -0.0589
15502TIP3    H267998   5.775   2.011  14.411  0.1093  0.6817 -0.9427
15503TIP3   OH267999   2.144   6.764   3.124 -0.3099 -0.5469 -0.5210
15503TIP3    H168000   2.060   6.723   3.103 -2.0442  2.0683  0.7442
15503TIP3    H268001   2.144   6.772   3.219  0.4430  1.2099 -0.6234
15504TIP3   OH268002   1.185   2.615   1.945 -0.9877 -0.4155  0.2136
15504TIP3    H168003   1.263   2.572   1.977  0.2482  2.8183  2.0023
15504TIP3    H268004   1.114   2.552   1.959  0.7344 -2.0526  1.9908
15505TIP3   OH268005   1.110   4.260   6.431  0.1384 -0.2359 -0.3147
15505TIP3    H168006   1.150   4.273   6.345  0.6577  0.6306  0.0396
15505TIP3    H268007   1.121   4.167   6.449  2.0000 -0.0441 -0.2517
15506TIP3   OH268008   5.404   4.945  13.338 -0.3278 -0.6829  0.4192
15506TIP3    H168009   5.486   4.989  13.363  0.9844 -1.8131 -1.6187
15506TIP3    H268010   5.418   4.918  13.247 -3.1420 -0.6139 -0.1153
15507TIP3   OH268011   2.046   2.682   5.312  0.2041  0.5202  0.2980
15507TIP3    H168012   2.094   2.633   5.379 -1.1387  0.7582  1.4907
15507TIP3    H268013   1.995   2.616   5.266  1.7338  0.2388 -1.1025
15508TIP3   OH268014   2.840   2.376   6.758  0.3322  0.5203 -0.0811
15508TIP3    H168015   2.841   2.285   6.727 -2.5712  0.4024 -0.1304
15508TIP3    H268016   2.856   2.370   6.852  1.1898  0.0848 -0.2429
15509TIP3   OH268017   4.356   3.194  13.976  0.6070  0.1133 -0.6302
15509TIP3    H168018   4.368   3.233  14.063 -1.1736 -0.0295 -0.2911
15509TIP3    H268019   4.312   3.261  13.925 -1.0604 -0.8353 -0.5036
15510TIP3   OH268020   3.531   5.909  16.624  0.1621 -0.7234  0.2310
15510TIP3    H168021   3.450   5.951  16.595  0.6011 -0.5255 -0.7677
15510TIP3    H268022   3.561   5.961  16.699 -0.7485 -0.9410  0.7527
15511TIP3   OH268023   6.447   6.712  12.342 -0.0001 -0.0774  0.3011
15511TIP3    H168024   6.396   6.728  12.263 -2.1217 -1.9028  1.1815
15511TIP3    H268025   6.522   6.662  12.312 -0.7182 -0.6606 -0.5923
15512TIP3   OH268026   0.958   2.459   1.965 -0.5190  0.4180 -0.1009
15512TIP3    H168027   0.960   2.365   1.944  0.4417  0.3080  0.4190
15512TIP3    H268028   0.883   2.493   1.916  0.3052 -0.2440 -1.8973
15513TIP3   OH268029   2.481   3.981  13.125  0.6302 -0.0638 -0.0114
15513TIP3    H168030   2.518   3.917  13.065  2.5220  0.3558  0.6479
15513TIP3    H268031   2.467   4.059  13.071  0.1058 -0.4182 -0.3970
15514TIP3   OH268032   0.456   6.834   2.191  0.7020 -0.2107 -0.4063
15514TIP3    H168033   0.475   6.766   2.126  0.8616 -0.1907 -0.3797
15514TIP3    H268034   0.541   6.867   2.217  0.8020 -1.8421  1.5841
15515TIP3   OH268035   3.502   2.171  15.448 -0.6114  0.6099 -0.6106
15515TIP3    H168036   3.561   2.214  15.510  0.1592 -0.6711 -0.4096
15515TIP3    H268037   3.506   2.226  15.370 -0.0787  1.1970 -0.1851
15516TIP3   OH268038   4.862   6.180  16.724  0.1052  0.3489  0.1224
15516TIP3    H168039   4.934   6.121  16.704  0.2236  1.2542 -2.4331
15516TIP3    H268040   4.904   6.258  16.760  0.3118  0.4993 -0.4459
15517TIP3   OH268041   6.509   1.591  13.257 -0.1344  0.2819  0.2740
15517TIP3    H168042   6.455   1.546  13.322  0.9968  1.1997  1.9208
15517TIP3    H268043   6.597   1.589  13.293  0.6898  0.1518 -1.6372
15518TIP3   OH268044   5.866   5.972  11.790  0.6263 -0.2137 -0.5038
15518TIP3    H168045   5.916   6.048  11.817  1.7284 -1.2980  0.5902
15518TIP3    H268046   5.888   5.960  11.697  2.8301 -0.9535  0.0650
15519TIP3   OH268047   0.445   4.081   4.963 -0.5070 -0.3770  0.2748
15519TIP3    H168048   0.528   4.115   4.929 -0.4987 -1.0268 -0.3737
15519TIP3    H268049   0.461   3.988   4.978 -0.2481  0.0084  2.9039
15520TIP3   OH268050   2.139   6.165  16.369 -0.0186  0.6637 -0.0596
15520TIP3    H168051   2.143   6.261  16.372 -0.2673  0.7256 -1.1164
15520TIP3    H268052   2.125   6.145  16.276  0.5485 -0.4231  0.0790
15521TIP3   OH268053   4.384   2.891   6.326 -0.2449 -0.8629 -0.5838
15521TIP3    H168054   4.465   2.921   6.284 -1.3932  1.1422 -1.5034
15521TIP3    H268055   4.391   2.924   6.416 -0.6676  0.6825 -1.0827
15522TIP3   OH268056   0.857   4.263   2.337  0.1602  0.8464  0.0346
15522TIP3    H168057   0.918   4.315   2.390  0.3012 -0.8146  1.5917
15522TIP3    H268058   0.796   4.226   2.400 -0.2275 -0.4982 -1.0801
15523TIP3   OH268059   3.531   4.152   4.812 -0.2458  0.1065 -0.4827
15523TIP3    H168060   3.592   4.182   4.744  0.5460  2.2582  1.0739
15523TIP3    H268061   3.445   4.178   4.779 -0.1708 -1.1798 -1.7941
15524TIP3   OH268062   2.107   5.265   2.381 -0.3191 -0.1459 -0.0539
15524TIP3    H168063   2.035   5.217   2.340 -0.2661  0.9663 -1.5089
15524TIP3    H268064   2.186   5.228   2.342 -0.2531  0.6553 -0.7161
15525TIP3   OH268065   1.736   1.554  14.594  0.2203  0.1607  0.7001
15525TIP3    H168066   1.790   1.475  14.600  1.4110  0.7866 -1.0423
15525TIP3    H268067   1.668   1.532  14.531  0.1586  0.3024  0.7172
15526TIP3   OH268068   3.039   6.519  13.632 -0.0012  0.3933  0.2544
15526TIP3    H168069   3.060   6.552  13.719 -0.9912  0.1142  0.6136
15526TIP3    H268070   3.018   6.597  13.581 -0.0496  0.5016  0.4405
15527TIP3   OH268071   3.213   0.337   1.433 -0.8786  0.3512  0.2255
15527TIP3    H168072   3.240   0.311   1.521 -0.6922 -2.0856 -0.4907
15527TIP3    H268073   3.292   0.373   1.393 -0.8656  1.1059  0.9145
15528TIP3   OH268074   0.811   1.924   0.736 -0.1260  0.0496  0.2532
15528TIP3    H168075   0.742   1.919   0.671 -0.6575 -0.4201  0.8333
15528TIP3    H268076   0.782   1.866   0.806  0.0523  1.1273  1.2564
15529TIP3   OH268077   2.392   1.888   4.308 -0.2346 -0.1552  0.3911
15529TIP3    H168078   2.392   1.809   4.362 -1.3672 -1.1602 -1.0139
15529TIP3    H268079   2.306   1.927   4.321 -0.4850 -0.3584 -0.5913
15530TIP3   OH268080   1.808   2.758  15.786  0.7000 -0.0514  0.6790
15530TIP3    H168081   1.743   2.691  15.806 -0.0289  0.2228 -0.6845
15530TIP3    H268082   1.857   2.768  15.867 -0.5269 -0.7379  1.5393
15531TIP3   OH268083   2.803   2.733   0.107 -0.0672  0.1932  0.8134
15531TIP3    H168084   2.802   2.638   0.115 -0.7378  0.2783  1.8077
15531TIP3    H268085   2.895   2.756   0.119  0.2171 -0.3711 -0.1427
15532TIP3   OH268086   0.252   2.057   2.967  0.1466  0.1391  1.0439
15532TIP3    H168087   0.345   2.074   2.949 -0.3018  1.8529  0.0945
15532TIP3    H268088   0.249   2.038   3.060  1.4382  0.1977  1.1255
15533TIP3   OH268089   4.439   0.917  15.168 -0.0286  0.3320 -0.2367
15533TIP3    H168090   4.345   0.937  15.164  0.1024  1.0417  0.0328
15533TIP3    H268091   4.473   0.978  15.234  0.7991  0.8170 -1.0934
15534TIP3   OH268092   1.288   0.464  13.862 -0.1252  0.0915  0.8714
15534TIP3    H168093   1.247   0.463  13.948  0.7243  1.4519  1.3361
15534TIP3    H268094   1.358   0.399  13.868  0.7220  1.0486  1.6486
15535TIP3   OH268095   1.424   5.929   5.119 -0.0900 -0.8998  0.3547
15535TIP3    H168096   1.434   5.856   5.058  2.9632  0.4690 -0.9326
15535TIP3    H268097   1.413   6.006   5.064 -0.6452 -0.0133  1.6494
15536TIP3   OH268098   3.356   1.867  16.158 -0.2563  0.6890 -0.2116
15536TIP3    H168099   3.415   1.917  16.214 -3.0761  1.2959  2.5033
15536TIP3    H268100   3.387   1.776  16.165  0.8155  1.0906  0.4975
15537TIP3   OH268101   0.259   6.299  12.192  0.3179 -0.3094  0.3725
15537TIP3    H168102   0.288   6.390  12.186  0.3759 -0.4172 -1.4932
15537TIP3    H268103   0.186   6.301  12.254  0.5696  0.9396  0.6583
15538TIP3   OH268104   4.551   6.262  13.689 -0.1686 -0.1192 -0.1982
15538TIP3    H168105   4.515   6.340  13.648  0.2359  0.3129  0.2518
15538TIP3    H268106   4.490   6.192  13.666 -1.1275  0.5289  0.2987
15539TIP3   OH268107   3.513   2.659  16.313 -0.2702  0.0100 -0.9439
15539TIP3    H168108   3.450   2.633  16.380  0.8974 -1.4123 -0.3337
15539TIP3    H268109   3.538   2.749  16.336  1.2949 -0.9403  1.5825
15540TIP3   OH268110   6.801   2.239  14.623  0.2276  0.0202  0.5458
15540TIP3    H168111   6.767   2.323  14.654  1.3527 -0.0190  2.0146
15540TIP3    H268112   6.784   2.239  14.528 -1.5751  1.0159  0.8360
15541TIP3   OH268113   5.657   4.268   1.192  0.0094  0.6563 -0.4167
15541TIP3    H168114   5.710   4.339   1.155 -2.0978  2.0069 -1.0513
15541TIP3    H268115   5.627   4.302   1.277 -0.0677  0.0513 -0.1972
15542TIP3   OH268116   6.363   0.942  14.278  0.3553  0.4606  0.2789
15542TIP3    H168117   6.283   0.993  14.287  0.0506  0.3069 -1.2250
15542TIP3    H268118   6.434   1.004  14.296 -0.0679  0.7823  0.8651
15543TIP3   OH268119   4.747   2.439   3.927 -0.0072  0.0786  0.3093
15543TIP3    H168120   4.750   2.454   4.021 -0.9312  0.2972  0.3229
15543TIP3    H268121   4.825   2.388   3.907  0.3001  0.2090  1.1617
15544TIP3   OH268122   0.696   2.445   4.830  0.3566  0.6142  0.1593
15544TIP3    H168123   0.701   2.541   4.827 -1.8133  0.8076  0.8244
15544TIP3    H268124   0.609   2.425   4.796  1.1560 -1.2293 -0.9610
15545TIP3   OH268125   3.785   5.792  11.447 -0.0689 -0.6153  0.7604
15545TIP3    H168126   3.824   5.713  11.483  0.1768 -0.3958  0.9829
15545TIP3    H268127   3.694   5.790  11.474  0.1842 -0.2993  1.6600
15546TIP3   OH268128   4.675   1.134   5.920  0.0951 -0.0872 -0.1853
15546TIP3    H168129   4.658   1.206   5.980 -0.0191  0.4429 -0.8427
15546TIP3    H268130   4.602   1.074   5.934  1.5587 -1.4531  2.3238
15547TIP3   OH268131   3.161   1.955  16.352 -0.7358 -0.0406 -0.0597
15547TIP3    H168132   3.247   1.937  16.316  0.1766  2.7184  0.5415
15547TIP3    H268133   3.113   2.000  16.283 -0.6915  0.9080  0.5052
15548TIP3   OH268134   5.226   0.897  12.838  0.0554 -0.4485 -0.4617
15548TIP3    H168135   5.197   0.979  12.799  0.5314 -0.2846 -0.4828
15548TIP3    H268136   5.147   0.858  12.876  0.3234  1.6615  2.6236
15549TIP3   OH268137   0.033   1.607   4.848 -0.0837 -0.4610  0.1677
15549TIP3    H168138   0.094   1.680   4.849 -1.2357  0.5386  1.1184
15549TIP3    H268139  -0.047   1.643   4.809 -0.7002 -1.1508  0.7429
15550TIP3   OH268140   0.700   1.298  13.920 -0.4570  0.2985 -0.2579
15550TIP3    H168141   0.730   1.386  13.896 -1.0359  0.3702 -0.7454
15550TIP3    H268142   0.745   1.241  13.858  0.7603  0.1256  0.7432
15551TIP3   OH268143   5.899   5.371  16.603 -0.4272  0.4885 -0.1646
15551TIP3    H168144   5.927   5.299  16.660  2.7065 -0.4153 -2.5179
15551TIP3    H268145   5.920   5.450  16.652  2.8028 -0.2489 -0.1392
15552TIP3   OH268146   3.431   2.481  15.482  0.0171  0.8766  0.1598
15552TIP3    H168147   3.520   2.497  15.513  0.9786 -0.2329 -1.8088
15552TIP3    H268148   3.443   2.444  15.394 -2.3889  0.4945 -0.0663
15553TIP3   OH268149   0.795   1.587  13.084  0.2880  0.0156 -0.3413
15553TIP3    H168150   0.783   1.557  12.994 -0.7582 -0.8830  0.0760
15553TIP3    H268151   0.889   1.578  13.100  0.2990 -1.0298 -0.9354
15554TIP3   OH268152   6.622   4.515   1.842  0.5789 -0.0421  0.2586
15554TIP3    H168153   6.632   4.581   1.773 -1.4370 -1.0069 -1.0513
15554TIP3    H268154   6.530   4.490   1.838  0.9816 -1.9638  1.6250
15555TIP3   OH268155   5.092   0.777  17.013  0.0987  0.3431  0.2274
15555TIP3    H168156   5.008   0.822  17.021  0.1195  0.1695  1.8170
15555TIP3    H268157   5.143   0.809  17.088  1.1438 -0.1831 -0.2442
15556TIP3   OH268158   3.433   4.389  14.379  0.1102 -0.3679 -0.2967
15556TIP3    H168159   3.408   4.481  14.372  1.0014 -0.0107  0.9698
15556TIP3    H268160   3.349   4.342  14.386 -0.4039  0.1975 -2.1375
15557TIP3   OH268161   4.675   2.898  16.792  0.0447 -0.0069 -0.1022
15557TIP3    H168162   4.748   2.847  16.758 -0.4832  0.2655 -1.7411
15557TIP3    H268163   4.615   2.833  16.829 -0.3437 -0.5715 -1.6287
15558TIP3   OH268164   0.227   1.261  13.954 -0.3214 -0.0140 -0.5444
15558TIP3    H168165   0.165   1.328  13.926 -1.9169 -0.5600  1.4287
15558TIP3    H268166   0.204   1.184  13.902 -1.6553 -0.3387  0.4746
15559TIP3   OH268167   6.279   0.308   3.031 -0.5138  0.5631  0.2127
15559TIP3    H168168   6.191   0.275   3.046 -0.0065 -0.8582  0.2205
15559TIP3    H268169   6.335   0.231   3.040  0.4156  0.6772 -3.1680
15560TIP3   OH268170   5.134   3.538   1.123  0.9228  0.7320 -0.0472
15560TIP3    H168171   5.170   3.623   1.099 -0.1875  1.0876 -0.5421
15560TIP3    H268172   5.041   3.544   1.099  0.7239 -0.4457  0.3635
15561TIP3   OH268173   1.702   4.511  12.455 -0.7134  0.3911 -0.4513
15561TIP3    H168174   1.648   4.491  12.379  1.3063 -0.2845 -1.7929
15561TIP3    H268175   1.755   4.432  12.467  0.2641  1.1764  0.5538
15562TIP3   OH268176   2.089   5.289  11.264  0.3203  0.2364  0.0832
15562TIP3    H168177   2.141   5.368  11.276 -0.8202  0.8874  0.9029
15562TIP3    H268178   2.099   5.241  11.346 -1.6049  1.1349  0.8861
15563TIP3   OH268179   6.279   4.017   2.997  0.0958 -0.2599 -0.3915
15563TIP3    H168180   6.225   4.016   3.076  0.6091 -2.6415  0.0101
15563TIP3    H268181   6.366   3.991   3.027  0.3414 -1.0458 -1.6977
15564TIP3   OH268182   4.357   4.739  14.170 -0.4585 -0.0339 -0.3980
15564TIP3    H168183   4.441   4.695  14.180  0.0383  0.8139 -0.7585
15564TIP3    H268184   4.298   4.672  14.135  0.3151 -0.3709 -1.0667
15565TIP3   OH268185   4.487   2.361   6.004  0.5792 -0.1503 -0.3143
15565TIP3    H168186   4.508   2.370   6.097  2.2850  2.8957 -0.8555
15565TIP3    H268187   4.404   2.408   5.994  1.4984  1.5183 -0.5872
15566TIP3   OH268188   5.722   2.686  16.937 -0.3090 -0.4798  0.2498
15566TIP3    H168189   5.731   2.739  16.858  0.4317  1.5708  1.6246
15566TIP3    H268190   5.761   2.602  16.914 -1.8314 -0.6087 -2.1277
15567TIP3   OH268191   6.495   3.544  17.082 -0.2568 -0.1724 -0.0742
15567TIP3    H168192   6.590   3.547  17.090 -0.1385  0.1844 -1.4022
15567TIP3    H268193   6.464   3.519  17.169  1.0336 -0.0577  0.4309
15568TIP3   OH268194   5.136   3.223   5.775 -0.6725 -0.4098  0.3465
15568TIP3    H168195   5.180   3.138   5.778  1.1572  0.4244 -1.0060
15568TIP3    H268196   5.073   3.214   5.705  1.0453 -0.0354 -1.3240
15569TIP3   OH268197   2.586   5.338  12.582  0.2712  0.6891  0.2654
15569TIP3    H168198   2.630   5.255  12.601 -1.0499 -0.0535  0.2679
15569TIP3    H268199   2.619   5.363  12.496 -0.6035 -0.7836 -0.5431
15570TIP3   OH268200   1.778   5.414  10.756 -0.2555 -0.3080  0.0211
15570TIP3    H168201   1.712   5.402  10.688 -0.4976 -0.0315  0.2037
15570TIP3    H268202   1.733   5.464  10.824 -0.1299 -0.9180  0.5546
15571TIP3   OH268203   6.374   6.077  11.773 -0.3418 -0.4453  0.2381
15571TIP3    H168204   6.428   5.998  11.783  0.0024 -0.0586  1.5454
15571TIP3    H268205   6.386   6.101  11.681 -0.2422 -1.7570 -0.1174
15572TIP3   OH268206   1.829   3.252   2.916  0.6366 -0.5270 -0.7883
15572TIP3    H168207   1.742   3.271   2.881  0.4348  0.6214  0.2593
15572TIP3    H268208   1.816   3.248   3.011  1.8080  0.2377 -0.5703
15573TIP3   OH268209   3.703   6.239  14.023 -0.1111  0.2327 -0.1668
15573TIP3    H168210   3.766   6.180  14.065  0.7493  0.3422 -1.2934
15573TIP3    H268211   3.618   6.198  14.041  0.2363  0.1573  1.4856
15574TIP3   OH268212   3.258   0.940  15.122  0.0920 -0.2488  0.0172
15574TIP3    H168213   3.207   0.861  15.139 -0.9502  0.3160 -0.3633
15574TIP3    H268214   3.264   0.945  15.027 -1.8159  1.2839 -0.0866
15575TIP3   OH268215   1.700   1.113   3.029  0.5291 -0.0443  0.5295
15575TIP3    H168216   1.609   1.092   3.046  0.3864  0.4626  0.3985
15575TIP3    H268217   1.703   1.209   3.028 -0.1168  0.2749 -5.3311
15576TIP3   OH268218   1.059   3.125   2.938 -0.3764  0.2133 -0.2365
15576TIP3    H168219   1.113   3.184   2.885  1.1055 -0.3830  0.5508
15576TIP3    H268220   0.969   3.149   2.917  0.1882  1.2461 -1.5981
15577TIP3   OH268221   4.864   4.825   5.430  0.1842  0.0962  0.5834
15577TIP3    H168222   4.925   4.860   5.365  0.5702 -0.4295  0.6568
15577TIP3    H268223   4.794   4.787   5.378  0.0246  0.5022  0.4948
15578TIP3   OH268224   5.354   1.479  16.651  0.0034 -0.3459  0.0407
15578TIP3    H168225   5.279   1.450  16.703 -0.2871 -0.1090 -0.2444
15578TIP3    H268226   5.347   1.574  16.649  1.2376 -0.1875  1.4010
15579TIP3   OH268227   3.662   5.138  15.945  0.3316  0.2013 -0.4439
15579TIP3    H168228   3.644   5.128  15.852 -1.9255  0.8779 -0.1345
15579TIP3    H268229   3.728   5.207  15.950  1.1586 -0.4800 -1.5565
15580TIP3   OH268230   1.287   5.532   2.235 -0.3645  0.4672 -0.0293
15580TIP3    H168231   1.195   5.550   2.253 -0.6516 -0.9288  0.0087
15580TIP3    H268232   1.295   5.539   2.140 -0.1655  2.0235  0.0806
15581TIP3   OH268233   2.032   6.290   4.241  0.2968  0.5086  0.4432
15581TIP3    H168234   1.985   6.221   4.286 -0.1702  0.1405 -0.5837
15581TIP3    H268235   2.106   6.245   4.200  1.1485  0.9614  1.4296
15582TIP3   OH268236   0.411   1.773   0.101 -0.2488 -0.0954  0.6605
15582TIP3    H168237   0.440   1.864   0.100 -1.8962  0.5718 -3.0218
15582TIP3    H268238   0.478   1.726   0.051 -0.3693 -0.5473  0.9172
15583TIP3   OH268239   6.514   5.577  11.451  0.4403  0.1406 -0.2539
15583TIP3    H168240   6.553   5.536  11.373 -1.2067  0.5322 -1.3306
15583TIP3    H268241   6.509   5.506  11.515  0.3035 -0.6276 -1.0850
15584TIP3   OH268242   4.125   4.040   5.811  0.3337  0.5238 -0.0544
15584TIP3    H168243   4.079   4.089   5.879  1.3346  1.8763 -0.3099
15584TIP3    H268244   4.101   4.083   5.729 -1.5438 -1.6045 -0.7426
15585TIP3   OH268245   0.955   2.273  15.840  0.3608  0.1645 -0.1005
15585TIP3    H168246   0.981   2.217  15.767 -0.4126 -0.7269  0.2792
15585TIP3    H268247   1.021   2.258  15.907  0.6789  0.4403 -0.3489
15586TIP3   OH268248   5.113   2.419  12.558 -0.7196 -0.1622 -0.3678
15586TIP3    H168249   5.101   2.514  12.566  0.3585 -0.1429  1.9155
15586TIP3    H268250   5.046   2.381  12.615  0.0659 -0.6572  0.2545
15587TIP3   OH268251   4.964   1.203  11.703  0.1453  0.1693  0.1163
15587TIP3    H168252   4.899   1.274  11.699  0.1366  0.1163 -1.7558
15587TIP3    H268253   5.041   1.240  11.660  0.8168 -0.3088  0.9013
15588TIP3   OH268254   5.915   4.670  14.302 -0.1272 -0.0849  0.0656
15588TIP3    H168255   5.836   4.676  14.355  0.0127  0.8718  0.1867
15588TIP3    H268256   5.978   4.727  14.346 -0.3110  1.5398 -1.6184
15589TIP3   OH268257   3.700   3.032   2.022 -0.7722 -0.3018 -0.2613
15589TIP3    H168258   3.683   2.938   2.020 -1.6287 -0.1434 -1.0470
15589TIP3    H268259   3.741   3.050   1.937  1.7883 -0.3665  0.8558
15590TIP3   OH268260   0.994   4.694  13.098 -0.2209  0.4277 -0.3934
15590TIP3    H168261   1.083   4.717  13.071 -0.1779 -0.1873 -0.7890
15590TIP3    H268262   0.963   4.633  13.031 -0.5878 -0.1172  0.2549
15591TIP3   OH268263   3.227   3.361  13.202  0.3712 -0.0769 -0.0256
15591TIP3    H168264   3.204   3.398  13.287  0.5813  1.3312 -0.5553
15591TIP3    H268265   3.197   3.270  13.207 -0.8453  0.3489  1.0596
15592TIP3   OH268266   6.181   0.339   4.802  0.5530  0.1855 -0.0472
15592TIP3    H168267   6.174   0.278   4.876 -0.4970 -0.4036 -0.6158
15592TIP3    H268268   6.123   0.412   4.825  0.4418  0.1342 -0.1644
15593TIP3   OH268269   5.291   1.931   1.613  0.5100 -0.2748  0.2724
15593TIP3    H168270   5.295   1.966   1.524 -0.8595  0.6044  0.5120
15593TIP3    H268271   5.374   1.957   1.652  0.1143  1.6019  0.0050
15594TIP3   OH268272   1.566   6.672   2.843  0.2286 -0.2002  0.3314
15594TIP3    H168273   1.620   6.593   2.838  0.1885 -0.1487 -2.4635
15594TIP3    H268274   1.629   6.743   2.860  0.8649 -0.3490 -1.2551
15595TIP3   OH268275   2.414   3.065   2.474  0.5691 -0.2295  0.2323
15595TIP3    H168276   2.370   3.136   2.522 -1.0244 -0.3793 -0.9033
15595TIP3    H268277   2.477   3.111   2.418 -0.9724  0.4255 -1.0493
15596TIP3   OH268278   5.316   2.819  12.571 -0.0914  0.2464  0.6090
15596TIP3    H168279   5.370   2.837  12.493 -0.7940  0.8054  0.2419
15596TIP3    H268280   5.236   2.782  12.536 -0.3536  0.3648  1.0775
15597TIP3   OH268281   5.977   4.842   0.184  0.0735 -0.1802 -0.4975
15597TIP3    H168282   5.897   4.868   0.138 -0.8787  1.7952  2.0183
15597TIP3    H268283   6.047   4.888   0.137 -0.6674  0.5833 -0.8909
15598TIP3   OH268284   4.665   5.772   1.358  0.9416  0.3137 -0.0987
15598TIP3    H168285   4.604   5.826   1.409 -0.6438 -0.4414 -1.1423
15598TIP3    H268286   4.653   5.684   1.393  0.1314 -0.1429 -1.4605
15599TIP3   OH268287   1.509   2.956   2.096 -0.0949 -0.0966  0.1481
15599TIP3    H168288   1.529   2.864   2.116 -2.0597 -0.8983 -1.2379
15599TIP3    H268289   1.565   3.006   2.155  3.0484 -2.1112 -0.8827
15600TIP3   OH268290   3.215   2.369  13.650  0.1388 -0.1529  0.3447
15600TIP3    H168291   3.212   2.461  13.677 -2.2946 -0.0706 -0.0276
15600TIP3    H268292   3.129   2.352  13.613  1.2718 -1.9980 -1.6321
15601TIP3   OH268293   0.904   4.516   0.042 -0.0947  0.0942  0.0545
15601TIP3    H168294   0.935   4.579  -0.022  1.5942 -0.9866 -0.2798
15601TIP3    H268295   0.877   4.440  -0.010  1.6106 -0.9224  0.5451
15602TIP3   OH268296   0.850   3.411   4.969  0.5859 -0.2620 -0.7143
15602TIP3    H168297   0.873   3.325   4.934 -0.1472 -1.1207  0.8353
15602TIP3    H268298   0.793   3.393   5.043  0.7043  1.5565 -0.1254
15603TIP3   OH268299   0.938   5.344  11.963 -0.0693 -0.4450  0.3512
15603TIP3    H168300   0.906   5.268  11.913 -0.1021 -0.8900  1.0394
15603TIP3    H268301   0.891   5.339  12.046 -1.4202  1.3347 -0.2309
15604TIP3   OH268302   6.518   5.652  13.896  0.0039 -0.2251 -0.4616
15604TIP3    H168303   6.501   5.611  13.812 -1.9471  0.5991 -0.5250
15604TIP3    H268304   6.605   5.690  13.887  0.1566 -0.8386 -1.8100
15605TIP3   OH268305   1.392   4.840   6.179  0.3266 -0.0532  0.2755
15605TIP3    H168306   1.391   4.775   6.110 -1.6251 -1.2144  1.3185
15605TIP3    H268307   1.346   4.915   6.142 -1.2337 -0.8852  0.4767
15606TIP3   OH268308   2.027   0.698   3.408  0.4102 -0.4094  0.6548
15606TIP3    H168309   2.096   0.758   3.436 -0.7636 -0.3972  3.8558
15606TIP3    H268310   2.054   0.613   3.440 -0.1520 -0.7558  0.2255
15607TIP3   OH268311   2.340   2.462  11.818  0.1560  0.0951 -0.3442
15607TIP3    H168312   2.324   2.435  11.728 -0.0489  1.2194 -0.6632
15607TIP3    H268313   2.435   2.456  11.828  0.2139  0.2807 -0.7487
15608TIP3   OH268314   2.020   6.288  11.224  0.0183  0.3156 -0.1746
15608TIP3    H168315   1.989   6.198  11.212  0.5270  0.1453 -0.2337
15608TIP3    H268316   2.107   6.278  11.262  0.2920  0.7728 -0.6697
15609TIP3   OH268317   3.011   4.819  16.268 -0.0174 -0.4329  0.3173
15609TIP3    H168318   2.962   4.862  16.199 -3.5527 -2.8316  1.0634
15609TIP3    H268319   3.033   4.733  16.232  0.7241 -0.6329  1.1996
15610TIP3   OH268320   4.654   5.122  11.682  0.4969 -0.4469 -0.0869
15610TIP3    H168321   4.603   5.043  11.694  0.7530 -0.5713  0.1785
15610TIP3    H268322   4.696   5.111  11.597  0.1268 -0.3660 -0.2827
15611TIP3   OH268323   5.855   1.026  11.614 -0.4245  0.3448  0.0882
15611TIP3    H168324   5.838   0.938  11.649 -0.6310  0.2286 -0.2926
15611TIP3    H268325   5.924   1.061  11.670  1.4085 -0.9909 -1.2020
15612TIP3   OH268326   0.875   1.414  16.771  0.5350 -0.3673  0.2679
15612TIP3    H168327   0.794   1.457  16.745 -0.6065 -2.9827 -0.8512
15612TIP3    H268328   0.942   1.456  16.716 -0.4952 -0.0050 -0.7717
15613TIP3   OH268329   5.341   5.422   3.583  0.2026  0.3840 -0.1171
15613TIP3    H168330   5.342   5.507   3.627  2.7137 -0.0335  0.8304
15613TIP3    H268331   5.373   5.360   3.649  0.7674 -0.8622 -1.4939
15614TIP3   OH268332   0.771   1.244  16.275  0.4533 -0.4025  0.3287
15614TIP3    H168333   0.709   1.288  16.216  0.0532 -0.9812  0.3133
15614TIP3    H268334   0.848   1.228  16.221 -0.2570 -1.7699 -0.3239
15615TIP3   OH268335   0.966   5.623  15.635  0.0914 -0.6384 -0.2391
15615TIP3    H168336   1.002   5.696  15.686 -1.9962 -0.8658  1.6962
15615TIP3    H268337   0.978   5.650  15.544  1.0858  1.2512  0.3892
15616TIP3   OH268338   0.915   6.810  16.342  0.0749 -0.1294 -0.0459
15616TIP3    H168339   0.928   6.733  16.397 -1.7066 -1.0632 -0.8384
15616TIP3    H268340   0.855   6.866  16.393  0.5456  0.2633  0.0860
15617TIP3   OH268341   5.705   2.970  16.088 -0.1158 -0.1676 -0.0257
15617TIP3    H168342   5.624   3.009  16.056  0.0684 -1.0903 -1.7535
15617TIP3    H268343   5.698   2.974  16.183 -2.2387 -0.3728 -0.1317
15618TIP3   OH268344   4.409   4.419  13.082  0.1905 -0.2198  0.0470
15618TIP3    H168345   4.449   4.376  13.007 -1.4048 -1.2203 -0.2857
15618TIP3    H268346   4.316   4.423  13.061 -0.1974  0.1520  1.6529
15619TIP3   OH268347   3.332   3.690  15.417  0.5221  0.9161  0.2128
15619TIP3    H168348   3.320   3.759  15.483  1.4300 -0.2147  1.6160
15619TIP3    H268349   3.277   3.618  15.447  0.1589  0.7254 -0.8480
15620TIP3   OH268350   3.840   5.161  13.472  0.1524 -0.3950 -0.4791
15620TIP3    H168351   3.866   5.092  13.411 -1.5003  0.2995 -2.0938
15620TIP3    H268352   3.756   5.193  13.437  0.3602  1.7338  0.7851
15621TIP3   OH268353   5.094   5.975   0.592  0.0158  0.3402  0.0334
15621TIP3    H168354   5.028   6.042   0.607 -0.1901  0.4079 -1.1302
15621TIP3    H268355   5.095   5.924   0.673 -0.3504  1.2830  0.6452
15622TIP3   OH268356   4.006   1.204   3.276 -0.4205  0.0840  0.0598
15622TIP3    H168357   3.916   1.181   3.301 -1.0978  0.7899 -1.6107
15622TIP3    H268358   4.043   1.243   3.355 -1.4152 -0.6679  0.9298
15623TIP3   OH268359   4.508   6.688  12.266 -0.3082 -0.2410 -0.3724
15623TIP3    H168360   4.461   6.606  12.277 -1.2423  0.4490  0.9902
15623TIP3    H268361   4.483   6.718  12.178 -1.3298 -0.5697 -0.2098
15624TIP3   OH268362   4.268   1.110  12.615 -0.1955  0.3968  0.1372
15624TIP3    H168363   4.246   1.203  12.613  0.1415  0.4950  0.7281
15624TIP3    H268364   4.362   1.108  12.635 -0.0624 -0.0558 -0.5053
15625TIP3   OH268365   5.645   6.057  12.446 -0.8024 -0.5071 -0.1959
15625TIP3    H168366   5.717   6.081  12.388 -0.0129 -0.3345  0.8173
15625TIP3    H268367   5.663   5.965  12.469 -0.1023 -0.0645  1.1460
15626TIP3   OH268368   3.267   3.557  16.815 -0.0124  0.1470  0.1842
15626TIP3    H168369   3.321   3.597  16.883  1.1463  0.4497 -0.8892
15626TIP3    H268370   3.210   3.497  16.863  0.6654  0.4721  1.4424
15627TIP3   OH268371   2.630   3.369   1.914 -0.3136  0.4899  0.0199
15627TIP3    H168372   2.671   3.359   2.000 -3.0434  0.5444  1.4246
15627TIP3    H268373   2.699   3.346   1.852  1.6073 -0.0390  2.2162
15628TIP3   OH268374   1.660   4.887   1.313  0.1229 -0.0087  0.0776
15628TIP3    H168375   1.668   4.798   1.279 -1.5358 -1.0870  2.2778
15628TIP3    H268376   1.749   4.911   1.339  0.0796 -2.9923  3.8469
15629TIP3   OH268377   1.945   5.696  12.410  0.2409 -0.9076  0.3516
15629TIP3    H168378   1.975   5.766  12.469 -1.0161  0.2375 -0.3266
15629TIP3    H268379   1.851   5.709  12.403  0.3533 -1.0288 -1.8945
15630TIP3   OH268380   1.924   2.293   0.075  0.3340  0.6272 -0.1730
15630TIP3    H168381   1.944   2.367   0.017 -0.3443  1.6673  0.8670
15630TIP3    H268382   1.900   2.334   0.158  2.0390 -0.8267  1.1263
15631TIP3   OH268383   2.719   1.420   2.081 -0.5846  0.3248  0.7888
15631TIP3    H168384   2.763   1.462   2.007  0.4989 -0.2459  1.0825
15631TIP3    H268385   2.788   1.407   2.146 -1.3165 -0.0734  1.5091
15632TIP3   OH268386   6.691   1.944   5.216  0.0007 -0.2317 -0.2324
15632TIP3    H168387   6.769   1.948   5.161 -0.9951  0.2243 -1.6730
15632TIP3    H268388   6.647   1.864   5.188 -0.1237 -0.4070  0.4637
15633TIP3   OH268389   2.723   1.084   5.846  0.7156  0.3564  0.4155
15633TIP3    H168390   2.702   1.031   5.769 -0.1599  0.5644  0.4988
15633TIP3    H268391   2.642   1.084   5.897  1.2716  0.2581  1.3171
15634TIP3   OH268392   5.271   0.074   2.057  0.2772  0.9187  0.1072
15634TIP3    H168393   5.231   0.140   2.001 -1.8294  0.4648  0.9406
15634TIP3    H268394   5.246  -0.010   2.017  1.0145  0.6079  0.2811
15635TIP3   OH268395   0.143   4.579  14.414  0.1156  0.7550  0.0520
15635TIP3    H168396   0.048   4.576  14.407  0.0942  0.6726  0.3816
15635TIP3    H268397   0.174   4.543  14.330 -0.1420 -2.1497  1.0797
15636TIP3   OH268398   0.723   3.976   1.469  0.8270  0.1489 -0.8539
15636TIP3    H168399   0.803   3.923   1.474  1.0888  0.6416  0.5980
15636TIP3    H268400   0.665   3.938   1.535  0.5387  0.8846 -0.6799
15637TIP3   OH268401   1.301   1.351  11.160  0.2717 -0.3077 -0.1217
15637TIP3    H168402   1.362   1.419  11.131  2.5083 -2.2123 -0.2224
15637TIP3    H268403   1.258   1.321  11.080 -0.8997  1.0756 -0.0482
15638TIP3   OH268404   6.471   0.771  12.594 -0.3776 -0.6352  0.7013
15638TIP3    H168405   6.429   0.685  12.600  0.3686 -1.0546  0.1454
15638TIP3    H268406   6.549   0.756  12.540 -0.3424  0.4348  0.4236
15639TIP3   OH268407   5.008   2.999   4.971 -0.4656 -0.7500  0.0260
15639TIP3    H168408   4.965   2.930   5.023 -1.2811 -0.7184 -0.5864
15639TIP3    H268409   4.952   3.076   4.984  0.7487 -0.0213  1.1616
15640TIP3   OH268410   5.222   6.110  16.287 -0.1244 -0.3885  0.2112
15640TIP3    H168411   5.263   6.190  16.318  1.6158 -1.3381  0.5237
15640TIP3    H268412   5.238   6.110  16.192 -1.4130  0.3048 -0.0298
15641TIP3   OH268413   5.924   4.879   5.882 -0.1127 -0.1722 -0.0324
15641TIP3    H168414   5.861   4.882   5.955 -0.3504 -0.5630 -0.2193
15641TIP3    H268415   5.946   4.971   5.867 -2.1010  0.1868 -1.2029
15642TIP3   OH268416   2.634   4.791  13.156 -0.0383  0.6346  0.0154
15642TIP3    H168417   2.626   4.795  13.251 -3.2231 -0.1781 -0.1270
15642TIP3    H268418   2.677   4.707  13.139 -0.1449  0.4362  0.7061
15643TIP3   OH268419   3.903   1.304   4.752  0.4851 -0.2217 -0.2993
15643TIP3    H168420   3.895   1.327   4.844 -0.0355 -1.8678  0.1098
15643TIP3    H268421   3.958   1.372   4.714 -1.4047  1.9342  0.6324
15644TIP3   OH268422   2.904   3.170  14.644 -0.1598  0.7677 -0.3921
15644TIP3    H168423   2.921   3.198  14.734  1.3492  1.2093 -0.7849
15644TIP3    H268424   2.816   3.201  14.625 -0.4929  0.6918  0.9150
15645TIP3   OH268425   0.501   1.704  13.557 -0.1745  0.1674  0.1883
15645TIP3    H168426   0.584   1.752  13.564  1.6311 -2.3726 -1.9400
15645TIP3    H268427   0.456   1.745  13.484 -0.6490  1.2520  1.0532
15646TIP3   OH268428   3.641   3.830   1.835  0.2917 -0.1652  0.4439
15646TIP3    H168429   3.681   3.916   1.848 -0.7646  0.2403  1.1998
15646TIP3    H268430   3.636   3.820   1.740 -0.2294  0.9399  0.3358
15647TIP3   OH268431   2.156   4.264   2.064  0.0523 -0.3216  0.2702
15647TIP3    H168432   2.176   4.217   1.984 -2.1316  0.5068 -0.8317
15647TIP3    H268433   2.170   4.357   2.043 -0.6092 -0.0846  0.8154
15648TIP3   OH268434   4.038   5.448   1.195 -0.7288  0.3228 -1.0468
15648TIP3    H168435   4.096   5.492   1.133  2.0942 -1.0798  0.3753
15648TIP3    H268436   4.009   5.369   1.149  0.3363 -0.0847 -1.0461
15649TIP3   OH268437   5.105   1.993   5.376  0.0843  0.0112 -1.1028
15649TIP3    H168438   5.127   1.920   5.433 -1.3973  0.9321  0.7428
15649TIP3    H268439   5.190   2.024   5.343  1.3829  1.0633  2.6722
15650TIP3   OH268440   4.531   3.780  13.788  0.0580  0.8169 -0.3265
15650TIP3    H168441   4.577   3.814  13.711  0.8877 -0.5997 -0.4838
15650TIP3    H268442   4.601   3.758  13.849 -0.4164 -0.7440 -0.3070
15651TIP3   OH268443   4.705   1.223   2.625 -0.5495 -0.1521  0.2916
15651TIP3    H168444   4.675   1.314   2.628 -0.2701  0.1738 -2.7204
15651TIP3    H268445   4.656   1.184   2.553  1.1298 -1.6214 -0.1410
15652TIP3   OH268446   3.074   0.688   3.652 -0.2261  0.2724  0.2607
15652TIP3    H168447   3.055   0.602   3.691 -1.3448  0.0946 -0.6119
15652TIP3    H268448   3.126   0.667   3.574  0.1424  0.4620  0.4503
15653TIP3   OH268449   0.755   3.162   2.952  0.9331 -0.2427 -0.2433
15653TIP3    H168450   0.740   3.070   2.930  0.9830 -0.1861 -0.5163
15653TIP3    H268451   0.706   3.175   3.033  1.8650 -0.8094  0.4326
15654TIP3   OH268452   1.420   2.584  17.068  0.4429  0.4304 -0.2675
15654TIP3    H168453   1.379   2.556  17.150  0.3774 -1.6120 -0.9332
15654TIP3    H268454   1.512   2.559  17.078  0.1435 -1.2933 -1.3578
15655TIP3   OH268455   3.888   3.388   1.546 -0.1017 -0.3299 -0.3485
15655TIP3    H168456   3.829   3.341   1.605 -1.0559  0.0597 -0.9835
15655TIP3    H268457   3.905   3.326   1.475 -0.4333 -0.1401 -0.5966
15656TIP3   OH268458   4.806   5.870   1.949 -0.3140  0.1107 -0.2890
15656TIP3    H168459   4.885   5.902   1.993  0.0421  0.6011 -1.2562
15656TIP3    H268460   4.737   5.930   1.975 -0.5504 -0.7209  1.1204
15657TIP3   OH268461   6.515   4.966   3.714  0.7345  0.0755 -0.0502
15657TIP3    H168462   6.603   4.967   3.675  1.1964  0.3754  0.9806
15657TIP3    H268463   6.527   4.924   3.799 -0.2657 -0.5631 -0.2152
15658TIP3   OH268464   6.712   6.373   2.754  0.4290 -0.4075 -0.6996
15658TIP3    H168465   6.660   6.379   2.834  2.4663  0.9552  0.6077
15658TIP3    H268466   6.655   6.407   2.686  0.0347  2.4879  0.9299
15659TIP3   OH268467   3.944   3.629   6.836 -0.2502  0.7346  0.2426
15659TIP3    H168468   3.985   3.547   6.809  0.0591  0.9215  0.1444
15659TIP3    H268469   4.014   3.679   6.878 -0.4168  0.9773  0.2371
15660TIP3   OH268470   3.545   5.478   5.780 -0.3732  0.1106  0.1619
15660TIP3    H168471   3.483   5.540   5.819  2.2655  2.2189  1.3632
15660TIP3    H268472   3.551   5.407   5.844 -1.6960 -0.2503 -0.0925
15661TIP3   OH268473   2.753   3.216  10.308  0.1874  0.3310  0.6108
15661TIP3    H168474   2.707   3.179  10.383  1.4882 -0.3672  1.0910
15661TIP3    H268475   2.833   3.164  10.300  0.6963  1.2218 -0.4620
15662TIP3   OH268476   1.967   3.881   1.334 -0.2074  0.2088 -0.4281
15662TIP3    H168477   1.890   3.937   1.341  0.5391  1.2895 -0.5205
15662TIP3    H268478   1.971   3.859   1.241  0.6914  1.8207 -0.8145
15663TIP3   OH268479   2.094   2.574  15.878  1.0139  0.1219 -0.3993
15663TIP3    H168480   2.134   2.596  15.793  1.2924 -1.8210 -0.8072
15663TIP3    H268481   2.063   2.484  15.868 -1.6197  0.8042  0.6124
15664TIP3   OH268482   0.502   3.839   5.465  0.0928  0.2534  0.2106
15664TIP3    H168483   0.479   3.930   5.482  2.6528  0.9360  0.4471
15664TIP3    H268484   0.598   3.838   5.465  0.2518 -1.7322 -3.5367
15665TIP3   OH268485   4.984   2.943   2.807  0.0950 -0.4956 -0.5110
15665TIP3    H168486   4.979   3.025   2.856 -0.6248  0.9761 -2.8808
15665TIP3    H268487   4.916   2.888   2.846  0.0184  0.3254  0.5747
15666TIP3   OH268488   6.407   6.709  15.203  0.1910 -0.3100 -0.0979
15666TIP3    H168489   6.455   6.681  15.281 -2.8017  3.5261  3.5947
15666TIP3    H268490   6.326   6.657  15.205 -0.0947  0.1220 -0.4213
15667TIP3   OH268491   3.163   3.053   4.489  0.0549  0.2669 -0.0898
15667TIP3    H168492   3.157   2.958   4.483  0.1969  0.2189  0.4640
15667TIP3    H268493   3.253   3.073   4.463  0.4093  0.1360  1.0024
15668TIP3   OH268494   4.762   5.708   5.392  0.3172  0.3484 -0.6826
15668TIP3    H168495   4.727   5.793   5.365  0.7819  0.5282 -0.7357
15668TIP3    H268496   4.798   5.724   5.479 -0.2478  0.0238 -0.3832
15669TIP3   OH268497   6.519   0.423  13.266  0.1589 -0.3548  0.1226
15669TIP3    H168498   6.537   0.450  13.176 -1.4336 -0.8513 -0.3966
15669TIP3    H268499   6.425   0.439  13.277 -0.2221 -2.6739  0.8197
15670TIP3   OH268500   1.753   1.547  13.889  0.1986 -0.0744 -0.3225
15670TIP3    H168501   1.699   1.476  13.854 -1.9828  1.3895 -0.1486
15670TIP3    H268502   1.757   1.611  13.818  2.2214 -0.3566 -0.5132
15671TIP3   OH268503   4.800   1.176  14.594 -0.3129  1.1500 -0.2291
15671TIP3    H168504   4.769   1.086  14.596 -1.0623  1.3778 -1.0062
15671TIP3    H268505   4.890   1.170  14.562 -0.1415  0.6322  0.3276
15672TIP3   OH268506   2.737   4.426  10.871 -0.2919 -0.1318  0.3770
15672TIP3    H168507   2.829   4.453  10.870 -0.2681 -0.1556  1.2518
15672TIP3    H268508   2.730   4.364  10.799  0.2505  0.2828 -0.0445
15673TIP3   OH268509   3.800   3.982   0.350  0.2820  0.1491  0.0073
15673TIP3    H168510   3.857   3.911   0.378  0.2839  0.1824  0.0877
15673TIP3    H268511   3.859   4.055   0.332  0.2557  0.2156  0.1895
15674TIP3   OH268512   3.668   6.784   5.138 -0.3105 -0.1304  0.5222
15674TIP3    H168513   3.710   6.698   5.139 -0.5587 -0.3088 -1.0566
15674TIP3    H268514   3.714   6.834   5.205  1.2278 -0.8627  0.0649
15675TIP3   OH268515   0.686   3.637   4.142  0.7805 -0.0902  0.4334
15675TIP3    H168516   0.659   3.618   4.232  1.7343  2.4852  1.3607
15675TIP3    H268517   0.768   3.589   4.131  1.3205  0.5630  1.4259
15676TIP3   OH268518   0.458   4.808  12.782 -0.3040 -0.5293  0.1378
15676TIP3    H168519   0.537   4.755  12.785  1.3102  1.7392 -0.1641
15676TIP3    H268520   0.420   4.800  12.870  2.8086  1.9326  1.8746
15677TIP3   OH268521   3.043   3.043   6.278  0.4812 -0.5608 -0.2884
15677TIP3    H168522   3.107   2.973   6.266 -0.6123 -1.2445 -2.5612
15677TIP3    H268523   3.069   3.110   6.214 -0.2298 -0.1913 -0.1940
15678TIP3   OH268524   5.168   3.895   2.009 -0.6652 -0.3272 -0.0492
15678TIP3    H168525   5.259   3.908   1.984 -0.1248 -0.2707  1.7814
15678TIP3    H268526   5.165   3.807   2.047 -1.8600 -1.1833 -1.9763
15679TIP3   OH268527   2.048   2.016  12.979 -0.6040  0.2043 -0.0957
15679TIP3    H168528   1.982   2.022  13.048 -0.4481 -1.2822  0.2005
15679TIP3    H268529   2.126   2.058  13.016 -0.3944 -0.9253  0.8223
15680TIP3   OH268530   6.390   2.290  14.346 -0.1459  0.0824  0.0588
15680TIP3    H168531   6.478   2.323  14.328 -0.0698 -0.2431 -0.1850
15680TIP3    H268532   6.352   2.354  14.407  0.9604 -0.8239  1.7712
15681TIP3   OH268533   3.016   6.369  10.201  0.0845  0.6377  0.2949
15681TIP3    H168534   2.972   6.320  10.271  1.2651  0.9332  1.2722
15681TIP3    H268535   3.089   6.313  10.174 -1.0708 -0.0558 -1.6345
15682TIP3   OH268536   3.917   5.511   1.423 -0.6018 -0.8462  0.6985
15682TIP3    H168537   3.971   5.465   1.487  1.6352  1.1433  0.3470
15682TIP3    H268538   3.959   5.493   1.339 -0.1451  1.1377  0.4696
15683TIP3   OH268539   1.835   0.402  12.419  0.4130  0.2031 -0.4562
15683TIP3    H168540   1.881   0.481  12.447  0.7282 -0.2137  0.2228
15683TIP3    H268541   1.880   0.376  12.338  0.9988  0.1277 -0.1144
15684TIP3   OH268542   2.957   6.777   6.535 -0.4735 -0.3219 -0.6877
15684TIP3    H168543   2.990   6.693   6.565  0.1221 -0.1003 -0.7003
15684TIP3    H268544   3.007   6.842   6.585  1.1897  0.0836 -2.7210
15685TIP3   OH268545   3.464   4.740   5.001 -0.6368 -0.2784  0.8653
15685TIP3    H168546   3.452   4.808   5.067  0.7976 -0.4783  1.3708
15685TIP3    H268547   3.381   4.737   4.955 -0.5876  2.2469  0.4229
15686TIP3   OH268548   0.231   6.735  12.975 -0.3818  0.0431 -0.1102
15686TIP3    H168549   0.267   6.709  12.890 -1.3714 -0.0055 -0.5309
15686TIP3    H268550   0.186   6.818  12.959  1.1750  1.1341  0.8344
15687TIP3   OH268551   3.250   0.003  13.128 -0.0666  0.3205  0.7016
15687TIP3    H168552   3.324  -0.056  13.144 -0.0455  0.4644  1.1487
15687TIP3    H268553   3.174  -0.043  13.163 -0.2647 -0.0062 -0.1242
15688TIP3   OH268554   4.430   1.861  14.831  0.2029 -0.3551  0.4825
15688TIP3    H168555   4.474   1.912  14.899 -0.1476 -0.0373  0.4759
15688TIP3    H268556   4.425   1.772  14.866 -0.8324  0.0021  1.2879
15689TIP3   OH268557   0.561   3.961  15.731  0.2009 -0.5812  0.4304
15689TIP3    H168558   0.634   3.899  15.723  1.0914  0.4169  0.7059
15689TIP3    H268559   0.544   3.990  15.641  2.2404  1.5245  0.6324
15690TIP3   OH268560   1.662   6.093  11.098 -0.0649  0.0329 -0.4746
15690TIP3    H168561   1.753   6.071  11.117 -0.0646  0.9128  0.6473
15690TIP3    H268562   1.666   6.180  11.058 -0.3385 -0.3744 -1.4065
15691TIP3   OH268563   2.594   3.898   1.751 -0.4834 -0.4110  0.9740
15691TIP3    H168564   2.657   3.946   1.698  0.0297 -0.5840  1.4177
15691TIP3    H268565   2.621   3.807   1.744 -2.8028 -1.0318 -1.7515
15692TIP3   OH268566   4.123   2.488  13.382  0.8707 -0.0337  0.0681
15692TIP3    H168567   4.089   2.436  13.455 -0.0541  1.1818  0.5412
15692TIP3    H268568   4.204   2.527  13.416  0.0128  1.1905  0.7573
15693TIP3   OH268569   1.682   5.092   5.442 -0.4585  0.5670  0.1192
15693TIP3    H168570   1.611   5.132   5.493 -0.8800 -0.3469  0.2733
15693TIP3    H268571   1.657   5.000   5.435  1.6162 -0.2272  1.8185
15694TIP3   OH268572   0.539   2.939  12.570  0.6736 -0.3674 -0.1138
15694TIP3    H168573   0.578   2.859  12.536  1.1200  0.4913 -1.7301
15694TIP3    H268574   0.583   3.010  12.522  0.2965  0.8525  1.2629
15695TIP3   OH268575   0.291   0.477  16.330  0.0328 -0.0650  0.0543
15695TIP3    H168576   0.208   0.431  16.317 -0.3471  0.7269 -0.4530
15695TIP3    H268577   0.321   0.449  16.416 -1.2970  0.4141  0.7079
15696TIP3   OH268578   3.599   2.560   4.999 -0.1017  0.4847 -0.4488
15696TIP3    H168579   3.544   2.568   4.921  1.1303  0.4863 -1.3439
15696TIP3    H268580   3.686   2.583   4.969  0.3554  0.7356  1.0031
15697TIP3   OH268581   2.327   5.837   1.935  0.0945  0.2430  0.5000
15697TIP3    H168582   2.330   5.815   1.842 -0.2241  2.9421 -0.2302
15697TIP3    H268583   2.373   5.765   1.978 -1.4608 -2.0762 -1.4923
15698TIP3   OH268584   1.117   1.301  13.929 -0.4725  0.3097 -1.1306
15698TIP3    H168585   1.113   1.364  13.858 -2.3697  1.8050  0.1940
15698TIP3    H268586   1.169   1.344  13.997 -0.0693 -0.4115 -0.9668
15699TIP3   OH268587   6.790   5.406  11.295 -0.3167  0.0855 -0.2864
15699TIP3    H168588   6.799   5.322  11.339 -0.0252  0.5387  0.5399
15699TIP3    H268589   6.872   5.452  11.313 -1.4269  1.5352  1.4436
15700TIP3   OH268590   4.191   6.554   5.784 -0.3170 -0.4406  0.1359
15700TIP3    H168591   4.251   6.498   5.832  0.1069  0.5452  0.7827
15700TIP3    H268592   4.218   6.546   5.693  0.3079 -0.5909  0.3317
15701TIP3   OH268593   6.361   1.142  16.860 -0.0978  0.0178  0.5916
15701TIP3    H168594   6.427   1.076  16.882  2.4232  2.5606  1.2611
15701TIP3    H268595   6.347   1.190  16.941 -0.8800  1.1131 -0.1658
15702TIP3   OH268596   0.408   2.697   6.800  0.0297  0.2237 -0.1252
15702TIP3    H168597   0.409   2.792   6.814 -1.0461  0.1554  0.5693
15702TIP3    H268598   0.331   2.667   6.848  0.0462 -0.9402 -0.7961
15703TIP3   OH268599   2.262   0.773   3.008  0.4260 -0.0010 -0.1569
15703TIP3    H168600   2.168   0.792   3.003 -0.0540 -2.2373 -1.1843
15703TIP3    H268601   2.301   0.852   3.045 -1.7168  1.4046 -0.7174
15704TIP3   OH268602   1.594   5.870   5.666 -0.0266 -0.2100 -0.5054
15704TIP3    H168603   1.637   5.950   5.636 -1.9143  0.6386 -1.0397
15704TIP3    H268604   1.649   5.799   5.632  1.4175  0.8192 -0.4138
15705TIP3   OH268605   0.704   5.822  12.533 -0.4386  1.0044  0.5319
15705TIP3    H168606   0.779   5.870  12.568  1.5806 -0.5957 -1.3475
15705TIP3    H268607   0.710   5.736  12.575 -0.6981  0.5871 -0.2666
15706TIP3   OH268608   4.814   1.774   2.044 -0.0913 -0.1345  0.3511
15706TIP3    H168609   4.722   1.799   2.036  0.2341  0.6283 -1.4870
15706TIP3    H268610   4.852   1.794   1.958  2.1479  0.9909  1.5283
15707TIP3   OH268611   2.928   4.824  12.923 -0.3285  0.5250  0.5239
15707TIP3    H168612   2.912   4.730  12.917  0.6200  0.4094 -0.5740
15707TIP3    H268613   2.843   4.865  12.910 -0.6396 -0.1636  0.3871
15708TIP3   OH268614   2.712   6.361   5.788 -0.2824  0.6544  0.1555
15708TIP3    H168615   2.736   6.278   5.830  0.9738  0.6129 -0.5922
15708TIP3    H268616   2.647   6.336   5.722 -1.1669  0.5198  1.0501
15709TIP3   OH268617   6.468   5.672   1.813 -0.1715  0.3475  0.5189
15709TIP3    H168618   6.484   5.589   1.768  0.5633  1.2781 -1.0571
15709TIP3    H268619   6.530   5.672   1.886  1.1920  0.2813 -0.5840
15710TIP3   OH268620   2.251   0.814   4.153 -0.1742  0.4020  0.0754
15710TIP3    H168621   2.157   0.807   4.138 -0.1247 -0.2064  0.0237
15710TIP3    H268622   2.268   0.757   4.227  0.3874 -0.7466 -0.9106
15711TIP3   OH268623   2.404   6.708   4.677 -0.2118 -0.2488 -0.0141
15711TIP3    H168624   2.449   6.625   4.695  1.2532  0.6498  0.6438
15711TIP3    H268625   2.445   6.771   4.736 -0.5849  1.1743 -1.2097
15712TIP3   OH268626   2.346   0.824   5.277 -0.7317 -0.0988 -0.1739
15712TIP3    H168627   2.312   0.834   5.366 -1.7906 -0.4626 -0.5171
15712TIP3    H268628   2.271   0.843   5.220 -0.0947  0.0415 -0.9903
15713TIP3   OH268629   2.938   1.962  16.969  0.1227 -0.6249  0.4432
15713TIP3    H168630   2.978   2.045  16.997  0.9219 -0.3333 -1.3752
15713TIP3    H268631   2.849   1.966  17.002  0.4815  0.4735  1.3310
15714TIP3   OH268632   1.181   0.090  11.456  0.1987  0.2723  0.2771
15714TIP3    H168633   1.089   0.092  11.431  0.4659  0.2773 -0.7607
15714TIP3    H268634   1.191   0.165  11.515 -0.4373  0.3347  0.3112
15715TIP3   OH268635   4.535   4.982   4.184 -0.4785  0.1752 -0.4686
15715TIP3    H168636   4.567   5.061   4.229  2.0389  0.3839 -2.4280
15715TIP3    H268637   4.441   4.983   4.199 -0.2981  2.5548  1.0951
15716TIP3   OH268638   6.532   2.787  11.578  0.4324  0.1831 -0.4282
15716TIP3    H168639   6.533   2.771  11.484  0.7643 -1.1492 -0.2181
15716TIP3    H268640   6.587   2.864  11.590  3.0518 -1.4716 -1.0479
15717TIP3   OH268641   4.245   1.986  15.794  0.6576 -0.3166 -0.6388
15717TIP3    H168642   4.190   1.911  15.817  0.8799  0.2777  2.2877
15717TIP3    H268643   4.185   2.047  15.751 -0.1443 -1.0924 -0.6450
15718TIP3   OH268644   2.824   3.788   3.176 -0.1702 -0.2157  0.0869
15718TIP3    H168645   2.878   3.764   3.251 -0.7965  0.9939  0.9627
15718TIP3    H268646   2.824   3.710   3.120  1.4685 -0.6459  0.6438
15719TIP3   OH268647   3.283   0.766   1.892 -0.2381 -0.0824 -0.0056
15719TIP3    H168648   3.365   0.751   1.846  0.2412 -1.2020  1.1636
15719TIP3    H268649   3.293   0.854   1.930 -0.6133  0.8335 -1.8688
15720TIP3   OH268650   5.937   0.662   2.227  0.1198 -0.5804 -0.3572
15720TIP3    H168651   6.012   0.677   2.170 -0.1029 -0.3492 -0.5959
15720TIP3    H268652   5.884   0.741   2.218  1.0152  0.2827  1.6450
15721TIP3   OH268653   2.022   5.044  16.007 -0.1136  0.1126  0.2835
15721TIP3    H168654   2.007   4.988  16.083  1.1165  0.4084  0.7651
15721TIP3    H268655   1.963   5.118  16.019 -2.2913 -1.3249 -0.7056
15722TIP3   OH268656   6.096   1.751  15.086 -0.5285  0.1831 -0.4732
15722TIP3    H168657   6.112   1.798  15.004 -0.6882 -0.0169 -0.6187
15722TIP3    H268658   6.095   1.820  15.153 -3.2121  0.7428 -0.9622
15723TIP3   OH268659   1.343   1.526  14.821 -0.1794  0.1405 -0.4100
15723TIP3    H168660   1.304   1.518  14.734 -0.0162 -1.1599 -0.3729
15723TIP3    H268661   1.405   1.453  14.826  0.5906  0.8344  0.3981
15724TIP3   OH268662   3.713   5.315   0.079 -0.1815  0.3926 -0.0422
15724TIP3    H168663   3.639   5.285   0.026  1.7333 -2.5514 -1.3149
15724TIP3    H268664   3.751   5.386   0.028 -1.7202  1.5347  0.3337
15725TIP3   OH268665   0.556   0.390   0.880  0.0513  0.2414  0.8267
15725TIP3    H168666   0.462   0.407   0.867 -0.1977 -0.1650  1.9873
15725TIP3    H268667   0.598   0.474   0.863 -0.3012 -0.0037 -1.5957
15726TIP3   OH268668   1.138   3.142  11.733 -0.5048 -0.0810 -0.2294
15726TIP3    H168669   1.207   3.178  11.677 -0.7886  0.0756 -0.4895
15726TIP3    H268670   1.132   3.050  11.708 -0.2273 -0.1512 -0.0363
15727TIP3   OH268671   6.328   3.730  11.837 -0.3189 -0.0077  0.6569
15727TIP3    H168672   6.283   3.814  11.832 -0.3782 -0.1227 -1.0445
15727TIP3    H268673   6.258   3.666  11.847 -0.5475 -0.1306 -1.3870
15728TIP3   OH268674   3.856   5.479  13.749  0.4369  0.2858 -0.3083
15728TIP3    H168675   3.766   5.477  13.780  0.0248 -0.0987 -1.5129
15728TIP3    H268676   3.901   5.411  13.800  0.1011  0.5806  0.3983
15729TIP3   OH268677   1.568   4.336   1.827  0.2463  0.1689  0.4987
15729TIP3    H168678   1.570   4.422   1.786  1.4767  0.3185  0.8305
15729TIP3    H268679   1.482   4.300   1.803 -0.4221  1.6039  0.6299
15730TIP3   OH268680   6.585   3.677   4.918 -0.0117 -0.2209  0.7209
15730TIP3    H168681   6.607   3.672   4.825  0.5880  0.0945  0.8374
15730TIP3    H268682   6.664   3.648   4.963  0.4112  1.5073  1.1656
15731TIP3   OH268683   4.112   1.361  15.017 -0.7430 -0.8347 -0.4833
15731TIP3    H168684   4.054   1.293  15.050 -0.4605 -0.1306  1.5938
15731TIP3    H268685   4.183   1.366  15.081 -1.0478  1.7798 -0.2127
15732TIP3   OH268686   5.887   4.130   5.325  0.0168 -0.5116 -0.0585
15732TIP3    H168687   5.879   4.076   5.404  0.8784 -0.4028  0.1103
15732TIP3    H268688   5.971   4.104   5.287  0.4567  0.7162  0.0371
15733TIP3   OH268689   4.595   0.073  15.734  0.3376  0.3484 -0.4050
15733TIP3    H168690   4.500   0.080  15.741  0.1363 -1.9525  0.2154
15733TIP3    H268691   4.609   0.022  15.654  0.8402 -1.7079  0.9183
15734TIP3   OH268692   2.164   3.842   2.568  0.0931  0.1866 -0.2710
15734TIP3    H168693   2.184   3.767   2.512 -2.8589 -0.5373 -0.4923
15734TIP3    H268694   2.086   3.816   2.616  1.2573  1.6321  2.6569
15735TIP3   OH268695   1.006   2.239  13.493  1.3646  0.1490  0.2734
15735TIP3    H168696   0.959   2.159  13.470  1.3716  0.4942 -0.9983
15735TIP3    H268697   0.941   2.293  13.539 -0.0137  1.2296 -2.7088
15736TIP3   OH268698   4.552   6.279   2.659  0.0121  0.4842 -0.1311
15736TIP3    H168699   4.580   6.358   2.613  0.6566  1.1785  1.3939
15736TIP3    H268700   4.479   6.308   2.714 -0.2429 -0.1609 -0.1220
15737TIP3   OH268701   1.890   6.542   4.343  0.1175  0.0609 -0.4257
15737TIP3    H168702   1.861   6.470   4.400  1.5386 -0.5029 -0.3749
15737TIP3    H268703   1.861   6.516   4.255 -2.3182  1.0618  0.0055
15738TIP3   OH268704   6.109   3.826  12.222  0.4620 -0.7475 -0.1982
15738TIP3    H168705   6.029   3.784  12.187  0.2484 -2.0077  1.6450
15738TIP3    H268706   6.110   3.913  12.182  0.0477 -1.9013 -2.9609
15739TIP3   OH268707   0.250   6.140  11.961 -0.5946  0.1596  0.2210
15739TIP3    H168708   0.265   6.205  12.028  1.6509 -0.7771  0.7045
15739TIP3    H268709   0.193   6.075  12.002  0.8934 -0.4882  1.3011
15740TIP3   OH268710   0.935   2.068  11.684 -0.4256 -0.3353 -0.4072
15740TIP3    H168711   0.900   1.980  11.668  0.3584 -0.2970 -2.7477
15740TIP3    H268712   0.989   2.059  11.762 -2.0271 -1.4107  0.6281
15741TIP3   OH268713   4.234   3.727   4.978  0.4813  0.2794 -0.5286
15741TIP3    H168714   4.202   3.758   5.063 -0.5280 -0.4902 -0.6148
15741TIP3    H268715   4.161   3.742   4.918  1.4164  1.4387 -1.4271
15742TIP3   OH268716   2.474   4.601   2.939 -0.1994  0.3200  0.1445
15742TIP3    H168717   2.460   4.626   3.030  2.5259  0.4864  0.5759
15742TIP3    H268718   2.556   4.552   2.939 -0.3558 -0.0723 -2.1662
15743TIP3   OH268719   6.498   5.051  10.708  0.3137  0.2194 -0.0382
15743TIP3    H168720   6.576   4.995  10.719  0.7553  0.8412  0.0631
15743TIP3    H268721   6.480   5.048  10.614 -1.3058 -2.2427  0.2577
15744TIP3   OH268722   4.153   4.464  11.395 -0.2482 -0.0601 -0.0598
15744TIP3    H168723   4.078   4.506  11.439 -0.4853  1.3548 -1.6958
15744TIP3    H268724   4.153   4.502  11.308  0.3657 -2.5535 -1.2253
15745TIP3   OH268725   5.288   4.180  11.785  0.2238  0.1505 -0.2743
15745TIP3    H168726   5.241   4.237  11.846  1.0205  2.1556 -1.4428
15745TIP3    H268727   5.232   4.179  11.707  1.0274  0.7384 -0.8676
15746TIP3   OH268728   2.464   0.542   1.023  0.8905  0.2080 -0.4707
15746TIP3    H168729   2.437   0.508   0.937  2.7901 -1.1398 -0.6201
15746TIP3    H268730   2.445   0.470   1.084  0.1780  0.8965  0.1298
15747TIP3   OH268731   2.492   2.895  12.739  0.1301  0.1698 -0.4056
15747TIP3    H168732   2.551   2.822  12.756  0.8399  0.6128 -0.8444
15747TIP3    H268733   2.545   2.955  12.686 -0.4095  1.0277  0.0091
15748TIP3   OH268734   4.317   5.767   4.697 -0.0442 -0.3095 -0.1113
15748TIP3    H168735   4.378   5.839   4.712 -0.0273 -0.3568  0.0490
15748TIP3    H268736   4.369   5.699   4.654 -0.1712 -0.0440 -0.6918
15749TIP3   OH268737   1.617   6.198  17.066  0.5756  0.4996 -0.2342
15749TIP3    H168738   1.648   6.286  17.049  0.5687  0.1017 -2.6392
15749TIP3    H268739   1.522   6.204  17.062  0.1932  1.1547  4.2402
15750TIP3   OH268740   1.427   1.315   4.352  0.3629 -0.5404  0.2411
15750TIP3    H168741   1.339   1.315   4.314  0.1300 -1.4281  0.7437
15750TIP3    H268742   1.433   1.396   4.401  0.7090  0.7136 -1.7369
15751TIP3   OH268743   4.284   3.330  11.448  0.0291 -0.4888  0.3064
15751TIP3    H168744   4.327   3.370  11.373  1.4776  1.4671  2.0423
15751TIP3    H268745   4.304   3.237  11.440  2.0981 -0.0279 -0.5647
15752TIP3   OH268746   2.116   6.494  15.023  0.0964 -0.2841  0.3822
15752TIP3    H168747   2.025   6.498  15.052 -0.8370 -1.6026 -2.0618
15752TIP3    H268748   2.165   6.467  15.101 -1.5950  0.3714  1.7246
15753TIP3   OH268749   4.801   4.462  16.153  0.7107 -0.3384  0.0543
15753TIP3    H168750   4.853   4.541  16.139  0.0438  0.0588 -0.2103
15753TIP3    H268751   4.801   4.418  16.068  1.1291 -0.6596  0.2147
15754TIP3   OH268752   0.689   5.101  16.077 -0.5875 -0.0492 -0.0725
15754TIP3    H168753   0.754   5.102  16.146 -0.2094 -0.1638 -0.4245
15754TIP3    H268754   0.714   5.172  16.018 -1.0712  0.2329  0.0535
15755TIP3   OH268755   0.954   1.702  14.871 -0.0259  0.3563 -0.4583
15755TIP3    H168756   0.980   1.654  14.950  0.4786  2.6675  0.8893
15755TIP3    H268757   0.860   1.718  14.882 -0.6273 -1.8513 -1.8410
15756TIP3   OH268758   2.741   3.001  11.274  0.6277 -0.2885 -0.2142
15756TIP3    H168759   2.660   2.955  11.252  0.9901 -1.0609  0.0243
15756TIP3    H268760   2.804   2.971  11.209  0.4490  1.1660 -1.0837
15757TIP3   OH268761   1.796   4.637   0.493 -0.5672 -0.0696 -0.4574
15757TIP3    H168762   1.744   4.717   0.497 -4.5577 -2.4336  0.0345
15757TIP3    H268763   1.809   4.613   0.585  1.2655  0.2948 -0.5803
15758TIP3   OH268764   0.553   4.566  15.019  0.0209 -0.4289 -0.5269
15758TIP3    H168765   0.574   4.555  14.926 -0.4430  1.5096 -0.9072
15758TIP3    H268766   0.480   4.506  15.035 -0.2789 -0.3602 -1.5623
15759TIP3   OH268767   1.611   3.895   0.807  0.4270 -0.2369 -0.8273
15759TIP3    H168768   1.590   3.972   0.754  0.4200 -0.3535 -0.9978
15759TIP3    H268769   1.566   3.823   0.762  0.2558 -0.3054 -0.5467
15760TIP3   OH268770   2.750   0.306  13.029 -0.3121  0.8986 -0.0107
15760TIP3    H168771   2.793   0.333  13.110 -0.3990 -0.5133  0.5319
15760TIP3    H268772   2.821   0.271  12.974 -0.6196 -0.9375  0.6765
15761TIP3   OH268773   0.640   1.734   2.602 -0.3909  0.2293 -0.1178
15761TIP3    H168774   0.674   1.799   2.541  1.2189  0.3361  0.8590
15761TIP3    H268775   0.589   1.785   2.666 -0.7935  0.2838 -0.4742
15762TIP3   OH268776   1.538   2.377  14.326  0.0739  0.3618  0.5049
15762TIP3    H168777   1.449   2.412  14.318 -0.2115 -0.2930  0.6883
15762TIP3    H268778   1.595   2.448  14.299 -0.5052  0.8421  0.5287
15763TIP3   OH268779   3.268   3.298  12.350 -0.2203  0.1481  0.6019
15763TIP3    H168780   3.192   3.241  12.344  0.6947 -0.9176 -2.8510
15763TIP3    H268781   3.315   3.268  12.428 -0.6687 -2.6931 -0.1341
15764TIP3   OH268782   5.161   4.996   0.749  0.8603  0.4373 -0.3578
15764TIP3    H168783   5.140   5.075   0.799  0.2275  0.4548 -0.6429
15764TIP3    H268784   5.255   5.003   0.730  1.3082  0.0290  1.5250
15765TIP3   OH268785   5.507   6.223  11.821  0.3395 -0.0895 -0.3162
15765TIP3    H168786   5.417   6.237  11.792 -0.5773 -2.5820  0.9851
15765TIP3    H268787   5.506   6.136  11.860  2.8849  0.5609  1.4736
15766TIP3   OH268788   2.391   1.262  13.303  0.6877  0.1737  0.0404
15766TIP3    H168789   2.485   1.281  13.296  0.4150  1.1037 -1.6179
15766TIP3    H268790   2.373   1.206  13.228 -0.2759  0.8847 -0.2752
15767TIP3   OH268791   0.160   0.292  16.641 -0.4690  0.1420  0.3817
15767TIP3    H168792   0.145   0.386  16.631 -0.1111  0.5486  2.9127
15767TIP3    H268793   0.246   0.276  16.602  0.1393  1.1750  1.2614
15768TIP3   OH268794   6.114   1.056  16.141 -0.1909 -0.1580  0.0579
15768TIP3    H168795   6.041   1.029  16.086 -0.6674 -0.5668  0.8632
15768TIP3    H268796   6.103   1.005  16.222 -0.0293  1.0686  0.8825
15769TIP3   OH268797   1.748   6.589  12.292  0.1289  0.5003  0.0160
15769TIP3    H168798   1.706   6.514  12.334 -2.2390  0.4278 -2.2194
15769TIP3    H268799   1.703   6.665  12.330  0.8881  0.6830  0.5740
15770TIP3   OH268800   4.743   2.577  16.375 -0.5189 -0.1379  0.5080
15770TIP3    H168801   4.821   2.616  16.335 -0.6347  0.2221  0.6372
15770TIP3    H268802   4.701   2.649  16.422  0.4176 -0.8732  2.5804
15771TIP3   OH268803   0.812   6.750  16.952 -0.0279  0.5661 -0.8233
15771TIP3    H168804   0.718   6.764  16.965 -0.4394 -0.8674 -2.0389
15771TIP3    H268805   0.847   6.736  17.040 -0.9287  1.1772 -0.3569
15772TIP3   OH268806   4.994   0.803   4.422 -0.0208  0.0922  0.2197
15772TIP3    H168807   5.062   0.814   4.355 -0.1040 -1.6581 -0.2112
15772TIP3    H268808   4.990   0.887   4.467 -1.8501  2.3820 -3.6731
15773TIP3   OH268809   6.075   5.175   4.370 -0.0155  0.3734 -0.0408
15773TIP3    H168810   6.107   5.178   4.279  0.2294  1.4885  0.0752
15773TIP3    H268811   5.983   5.201   4.363 -0.2486 -0.4460 -0.0752
15774TIP3   OH268812   5.843   4.923  12.744  0.3148  0.2702  0.3071
15774TIP3    H168813   5.755   4.886  12.755 -0.0559  0.9137 -0.3618
15774TIP3    H268814   5.885   4.912  12.830 -0.7012  0.6527  0.8753
15775TIP3   OH268815   2.509   2.409   0.793 -0.1437 -0.4126  0.0742
15775TIP3    H168816   2.423   2.399   0.834  0.5215 -1.0283  1.4110
15775TIP3    H268817   2.564   2.345   0.839  1.4419  1.1730  0.4906
15776TIP3   OH268818   1.939   1.169  12.871 -0.8706 -0.1094  0.0986
15776TIP3    H168819   1.877   1.232  12.833  0.2443  0.6881 -0.4571
15776TIP3    H268820   1.970   1.212  12.950  1.5043  1.0766 -1.3704
15777TIP3   OH268821   6.230   2.657  12.658 -0.0849 -0.3998 -0.7146
15777TIP3    H168822   6.266   2.606  12.730 -0.9310 -1.1273 -0.7941
15777TIP3    H268823   6.151   2.697  12.695 -0.5478 -0.8136 -1.2392
15778TIP3   OH268824   1.778   5.932   2.671  0.1629  0.3792  0.0546
15778TIP3    H168825   1.706   5.925   2.608 -0.5019  0.8218  0.7350
15778TIP3    H268826   1.844   5.984   2.626 -0.7116  1.5387  0.0557
15779TIP3   OH268827   2.050   0.993  16.405 -0.5502 -0.7168 -0.4488
15779TIP3    H168828   2.128   0.949  16.439  1.0076  2.2421  0.0764
15779TIP3    H268829   2.059   0.986  16.310  0.5663 -0.0973 -0.4028
15780TIP3   OH268830   5.340   2.573  11.146  0.6337  0.4647  0.1064
15780TIP3    H168831   5.264   2.626  11.123  1.3116  0.6404 -1.8989
15780TIP3    H268832   5.334   2.496  11.090  0.8214 -0.5622  1.4495
15781TIP3   OH268833   6.463   4.447   1.019 -0.1529 -0.5219 -0.5572
15781TIP3    H168834   6.551   4.459   0.984  0.7009  1.1354  1.8602
15781TIP3    H268835   6.415   4.525   0.991 -0.3317 -0.6064 -0.4912
15782TIP3   OH268836   1.650   5.878  15.006  0.3174 -0.4813 -0.6203
15782TIP3    H168837   1.607   5.929  15.074  2.3044 -0.1746  0.4741
15782TIP3    H268838   1.658   5.939  14.932 -2.6115 -1.0676 -1.5389
15783TIP3   OH268839   1.869   2.711  16.450  0.0565  0.3970  0.1952
15783TIP3    H168840   1.835   2.800  16.447 -2.0500 -0.2482  2.0277
15783TIP3    H268841   1.793   2.658  16.474  1.3931 -1.8290 -0.2561
15784TIP3   OH268842   4.437   1.976   5.113  0.3175 -0.0026  0.3219
15784TIP3    H168843   4.386   2.009   5.187  0.4167  2.0143 -0.4341
15784TIP3    H268844   4.529   1.993   5.137  0.4072 -0.2052  0.1308
15785TIP3   OH268845   1.258   5.915  13.721 -0.8058  0.5113 -0.5948
15785TIP3    H168846   1.216   5.831  13.703  1.2587 -0.5544 -0.8393
15785TIP3    H268847   1.264   5.958  13.636  2.1028 -1.1530 -1.3848
15786TIP3   OH268848   6.750   2.569   6.097  0.0849  0.0066 -0.0461
15786TIP3    H168849   6.670   2.546   6.144 -0.8835 -0.1784 -1.7294
15786TIP3    H268850   6.785   2.485   6.067 -0.7025  0.2710 -1.8190
15787TIP3   OH268851   3.983   4.345  16.755  0.4398 -0.3232  0.1674
15787TIP3    H168852   4.050   4.343  16.687 -0.0259 -0.1368 -0.3010
15787TIP3    H268853   4.030   4.371  16.834  0.8327  0.2937 -0.2636
15788TIP3   OH268854   6.576   0.939   1.808 -0.7575  0.1281 -0.5401
15788TIP3    H168855   6.615   1.006   1.751 -3.0480  0.2522 -2.1038
15788TIP3    H268856   6.502   0.983   1.849  0.9270  0.1038  2.8866
15789TIP3   OH268857   1.869   3.403  15.377 -0.0156  0.0844 -0.1583
15789TIP3    H168858   1.900   3.313  15.371 -1.7612 -0.4988 -1.0824
15789TIP3    H268859   1.774   3.395  15.383 -0.3797  1.8969 -2.2216
15790TIP3   OH268860   0.867   0.979   2.312 -0.6593 -0.2521 -0.0762
15790TIP3    H168861   0.792   0.921   2.325 -0.5729 -0.4097 -0.2874
15790TIP3    H268862   0.930   0.950   2.378 -0.3008 -0.9226 -0.6995
15791TIP3   OH268863   0.175   2.201   1.688  0.2990  0.2642 -0.7183
15791TIP3    H168864   0.120   2.280   1.690 -0.2587 -0.1146 -1.1096
15791TIP3    H268865   0.239   2.216   1.758 -0.1383  0.8196 -0.4252
15792TIP3   OH268866   5.883   6.830  11.961  0.0927  0.6460 -0.1983
15792TIP3    H168867   5.966   6.815  12.006  0.9061  1.9160 -1.1908
15792TIP3    H268868   5.905   6.830  11.868 -1.1828  0.1499 -0.5214
15793TIP3   OH268869   0.744   4.865   2.199 -0.2377 -0.0544 -0.1709
15793TIP3    H168870   0.741   4.883   2.105 -1.0996  3.0138  0.3026
15793TIP3    H268871   0.837   4.866   2.221 -0.0551  2.8298 -0.5708
15794TIP3   OH268872   6.750   6.726  14.883  0.6180 -0.2742 -0.7611
15794TIP3    H168873   6.776   6.803  14.933 -0.0559 -0.7996  0.4683
15794TIP3    H268874   6.656   6.736  14.870 -0.1524 -2.2117  2.0780
15795TIP3   OH268875   5.349   0.758  13.779  0.2475  0.8256 -0.0038
15795TIP3    H168876   5.368   0.666  13.763 -0.6194  0.6446 -0.0453
15795TIP3    H268877   5.337   0.765  13.874 -1.3789  0.5283 -0.1431
15796TIP3   OH268878   1.959   0.183   4.546 -0.4122 -0.4685 -0.1322
15796TIP3    H168879   1.943   0.248   4.478 -2.1459 -0.5708  0.1372
15796TIP3    H268880   2.006   0.113   4.501  0.0270  0.2319 -0.7961
15797TIP3   OH268881   4.251   0.435  15.355  0.2943  0.2253 -0.4629
15797TIP3    H168882   4.247   0.481  15.439  1.5409  0.4681 -0.5193
15797TIP3    H268883   4.233   0.504  15.290 -3.9601 -0.4906 -0.3824
15798TIP3   OH268884   3.375   1.747  16.599 -0.3661 -0.7680  0.1453
15798TIP3    H168885   3.339   1.662  16.626  1.0268 -1.1503  0.9082
15798TIP3    H268886   3.447   1.762  16.660 -0.4842  0.9042 -0.0889
15799TIP3   OH268887   2.306   6.320   3.888  0.2906 -0.4331  0.7059
15799TIP3    H168888   2.336   6.289   3.803  1.2774  0.8549  0.5476
15799TIP3    H268889   2.375   6.380   3.917 -0.6991  0.2327  1.7596
15800TIP3   OH268890   0.609   4.999  11.502  0.1226  0.4765  0.8220
15800TIP3    H168891   0.668   4.927  11.527 -1.8975 -0.6740  2.5983
15800TIP3    H268892   0.581   4.977  11.413  0.7323 -0.0794  0.7557
15801TIP3   OH268893   1.050   5.790  13.278 -0.1346  0.7162 -0.1541
15801TIP3    H168894   1.010   5.815  13.361 -1.0041  0.9875 -0.6335
15801TIP3    H268895   1.004   5.710  13.252 -2.1011  2.2752 -1.8405
15802TIP3   OH268896   3.710   4.678   5.475 -0.3434  0.1547 -0.1039
15802TIP3    H168897   3.651   4.652   5.404  0.4696  0.8702 -1.0866
15802TIP3    H268898   3.668   4.754   5.515 -0.2326  0.5072 -0.6383
15803TIP3   OH268899   6.407   6.427   0.750 -0.6701 -0.1128  0.1323
15803TIP3    H168900   6.346   6.480   0.698 -1.0902  0.3458  1.0711
15803TIP3    H268901   6.485   6.481   0.758 -0.0478 -0.7573 -1.1919
15804TIP3   OH268902   2.905   5.596   6.024 -0.3751  0.0488  0.7699
15804TIP3    H168903   2.898   5.692   6.030  2.3789  0.3807  0.1941
15804TIP3    H268904   2.913   5.567   6.115  0.2948  0.5670  0.8904
15805TIP3   OH268905   4.690   1.521  16.394  0.0611  0.4854  0.4401
15805TIP3    H168906   4.603   1.559  16.408 -0.0530  0.0919  0.8082
15805TIP3    H268907   4.740   1.544  16.472 -0.1631 -0.5452  0.8980
15806TIP3   OH268908   6.699   0.020   2.524  0.8389  0.2682 -0.3535
15806TIP3    H168909   6.665  -0.018   2.606 -0.3364  0.6697 -0.6393
15806TIP3    H268910   6.689  -0.051   2.460 -0.9482  0.8689 -0.7874
15807TIP3   OH268911   3.806   6.337   0.492  0.0206  0.4871  0.1513
15807TIP3    H168912   3.823   6.290   0.411 -0.2998 -0.9220  0.8714
15807TIP3    H268913   3.861   6.293   0.557  0.8162  2.0446  0.5768
15808TIP3   OH268914   5.645   2.857  14.355 -0.1634  0.2656 -0.0433
15808TIP3    H168915   5.592   2.836  14.278 -0.5423 -0.5126  0.4255
15808TIP3    H268916   5.712   2.789  14.358  0.9117  1.2404 -0.6336
15809TIP3   OH268917   5.644   2.084   1.472  0.0278  0.3015  0.2072
15809TIP3    H168918   5.715   2.148   1.481 -0.6193  0.9092  1.1973
15809TIP3    H268919   5.564   2.135   1.487 -0.8078  0.0191 -2.6473
15810TIP3   OH268920   4.178   4.264   2.818  0.1037 -0.1413  0.2766
15810TIP3    H168921   4.267   4.277   2.850 -0.2833  0.0763  1.3284
15810TIP3    H268922   4.151   4.351   2.787  0.3012 -0.2389 -0.1744
15811TIP3   OH268923   0.756   3.761   0.133  0.6976  0.3135 -0.3494
15811TIP3    H168924   0.803   3.679   0.146  1.1231  0.3847 -1.3656
15811TIP3    H268925   0.820   3.819   0.092  0.1878  0.9208 -0.2916
15812TIP3   OH268926   3.881   0.830  10.832 -0.0375 -0.0565 -0.4399
15812TIP3    H168927   3.897   0.762  10.897  1.6426  0.7406  0.0212
15812TIP3    H268928   3.917   0.795  10.751  0.8318  0.2738 -0.2014
15813TIP3   OH268929   4.017   6.443   3.442  0.3008  0.1447 -0.2360
15813TIP3    H168930   3.951   6.375   3.453  1.2130 -0.7777 -0.4047
15813TIP3    H268931   3.999   6.480   3.355 -0.3572  0.3290 -0.0347
15814TIP3   OH268932   1.703   5.826  11.689 -0.5316  0.1270 -0.2814
15814TIP3    H168933   1.795   5.810  11.665 -0.2874  0.2858  0.5182
15814TIP3    H268934   1.702   5.820  11.785 -1.3836  0.0053 -0.2891
15815TIP3   OH268935   5.192   2.154   2.329 -0.1810  0.1890  0.0361
15815TIP3    H168936   5.230   2.066   2.327  0.0044  0.2400 -2.5384
15815TIP3    H268937   5.161   2.168   2.239  0.2018  2.9284  0.2547
15816TIP3   OH268938   5.250   2.319  12.305 -0.2807  0.1936 -0.2512
15816TIP3    H168939   5.237   2.229  12.272 -0.4923  0.1876 -0.1493
15816TIP3    H268940   5.188   2.328  12.377 -0.8057  0.6806 -0.7549
15817TIP3   OH268941   4.577   4.784   0.248  0.0544  0.5527  0.4832
15817TIP3    H168942   4.529   4.709   0.213  0.9661  0.7553 -1.2969
15817TIP3    H268943   4.648   4.798   0.186  0.5448  2.2184  1.3698
15818TIP3   OH268944   4.652   1.115   5.158 -0.0085  0.4659 -0.6561
15818TIP3    H168945   4.710   1.095   5.084 -0.0703 -0.3191 -0.5014
15818TIP3    H268946   4.648   1.033   5.208 -1.3603  0.4635 -0.7399
15819TIP3   OH268947   5.953   3.128   5.431  0.3975  0.4926  0.5794
15819TIP3    H168948   6.034   3.099   5.473  1.3925  0.7447 -1.0361
15819TIP3    H268949   5.942   3.219   5.460  0.5625  0.3729  1.0106
15820TIP3   OH268950   4.011   0.664   4.485 -0.0115 -0.1383 -0.3178
15820TIP3    H168951   4.037   0.605   4.556 -0.3931 -0.2085 -0.2359
15820TIP3    H268952   4.053   0.747   4.506  0.8436 -0.4807 -0.6314
15821TIP3   OH268953   5.396   2.692   1.330  0.1694  0.1071  0.2470
15821TIP3    H168954   5.323   2.754   1.321  1.0473  0.9396 -1.9303
15821TIP3    H268955   5.405   2.653   1.243  1.0833 -1.4568  1.0017
15822TIP3   OH268956   3.727   1.224  13.963 -0.4541  0.1038 -0.4406
15822TIP3    H168957   3.648   1.277  13.946  0.0654  0.5033 -1.7556
15822TIP3    H268958   3.787   1.284  14.007 -0.3601  0.2366 -0.7425
15823TIP3   OH268959   6.842   3.539  15.730 -0.1921  0.3100  0.4696
15823TIP3    H168960   6.860   3.628  15.762 -2.2210  1.0404 -0.2723
15823TIP3    H268961   6.754   3.519  15.764  0.7914 -2.0254  1.8534
15824TIP3   OH268962   6.552   1.455  12.358  0.7941  0.9186  0.4169
15824TIP3    H168963   6.562   1.452  12.453  1.6535  0.5814  0.3196
15824TIP3    H268964   6.482   1.519  12.344 -1.5029 -1.2171  1.4034
15825TIP3   OH268965   2.762   0.305   2.404  0.5890  0.0604 -0.4445
15825TIP3    H168966   2.783   0.313   2.497 -1.4057 -0.6910  0.0999
15825TIP3    H268967   2.709   0.383   2.385 -0.8901 -0.9042 -0.3761
15826TIP3   OH268968   2.060   2.469  11.865 -0.0935  0.3743 -0.6702
15826TIP3    H168969   2.148   2.505  11.851  0.9750 -1.4930  0.7279
15826TIP3    H268970   2.039   2.422  11.785 -0.4956  2.0519 -1.5866
15827TIP3   OH268971   6.373   1.476  16.822 -0.5496  0.1021 -0.3320
15827TIP3    H168972   6.416   1.559  16.801 -1.4642  0.5735 -0.3734
15827TIP3    H268973   6.308   1.465  16.753 -2.5206  0.8897  1.3196
15828TIP3   OH268974   5.930   1.403  14.008 -0.1053  0.3198  0.1841
15828TIP3    H168975   5.943   1.390  14.102  0.5743 -0.0929  0.0373
15828TIP3    H268976   6.007   1.452  13.980  0.0280 -0.1475 -0.2790
15829TIP3   OH268977   4.105   0.899  13.586 -0.3716  0.1253  0.1741
15829TIP3    H168978   4.102   0.862  13.674  1.5355 -0.9698 -0.1554
15829TIP3    H268979   4.128   0.824  13.530  0.1935  1.1481 -0.9949
15830TIP3   OH268980   5.805   2.177  16.199 -0.1282  0.3939  0.5682
15830TIP3    H168981   5.823   2.262  16.240 -0.5384  1.0877 -0.6311
15830TIP3    H268982   5.889   2.131  16.199 -0.3317 -0.1256  3.1862
15831TIP3   OH268983   6.644   6.203  14.633  0.1024  0.5379 -0.2990
15831TIP3    H168984   6.709   6.227  14.567  0.3451 -0.3328 -0.4005
15831TIP3    H268985   6.599   6.284  14.654  0.3764  0.9215 -1.1572
15832TIP3   OH268986   2.305   3.217   2.209  0.2991 -0.4577  0.1276
15832TIP3    H168987   2.318   3.138   2.156  0.3983 -1.1499  1.1721
15832TIP3    H268988   2.392   3.257   2.214  0.2111 -0.1635 -0.5703
15833TIP3   OH268989   5.424   6.174   1.362  0.4286 -0.4048  0.1103
15833TIP3    H168990   5.421   6.100   1.423 -0.5540 -1.3534 -1.0130
15833TIP3    H268991   5.361   6.237   1.397  2.3538  0.6316  1.8883
15834TIP3   OH268992   4.848   1.416   0.001 -0.8906 -0.2783  0.0723
15834TIP3    H168993   4.819   1.359   0.072 -0.5385 -1.1952 -0.5032
15834TIP3    H268994   4.942   1.426   0.015 -0.6222 -1.3245 -0.8383
15835TIP3   OH268995   2.327   3.006  14.225  0.3537  0.3797 -0.0628
15835TIP3    H168996   2.281   2.957  14.294 -0.4166  1.3384  0.1268
15835TIP3    H268997   2.276   2.989  14.146  0.2963  0.5806 -0.0685
15836TIP3   OH268998   2.370   4.669  11.027  0.4086 -0.0025  0.6176
15836TIP3    H168999   2.318   4.750  11.023  1.7408  0.9578  1.8615
15836TIP3    H269000   2.436   4.680  10.958  0.4343 -0.1549  0.6172
15837TIP3   OH269001   1.765   3.880  11.618  0.6957  0.6374  0.2717
15837TIP3    H169002   1.812   3.922  11.546  0.3536 -0.0462 -0.3664
15837TIP3    H269003   1.831   3.826  11.662  0.6002 -0.0757 -0.4317
15838TIP3   OH269004   3.780   3.963   3.432 -0.4427  0.5608  0.1433
15838TIP3    H169005   3.744   3.929   3.514  2.5720  1.1343  1.8582
15838TIP3    H269006   3.825   3.888   3.392  1.7098  1.1681  1.2643
15839TIP3   OH269007   0.579   6.066  12.604  0.5490 -0.1993 -0.0755
15839TIP3    H169008   0.627   6.002  12.551  0.2136 -0.1345 -0.4616
15839TIP3    H269009   0.514   6.102  12.544 -0.7820 -1.1350  0.7554
15840TIP3   OH269010   2.021   0.974  16.106  0.7010  0.2110 -0.0861
15840TIP3    H169011   2.108   0.945  16.079  0.3102 -0.7318 -0.3701
15840TIP3    H269012   1.960   0.925  16.050  0.0099  2.0080 -0.9881
15841TIP3   OH269013   3.214   0.082  11.342  0.0407 -0.2106 -0.4860
15841TIP3    H169014   3.189   0.115  11.428 -1.0296 -1.0272 -0.4519
15841TIP3    H269015   3.178  -0.007  11.340  0.0628 -0.2108 -1.7626
15842TIP3   OH269016   4.042   2.666   5.200 -0.2053  0.0205 -0.1595
15842TIP3    H169017   3.961   2.704   5.233  0.3498  2.4851 -1.3617
15842TIP3    H269018   4.014   2.598   5.139 -1.2909 -0.6221  1.0230
15843TIP3   OH269019   3.198   0.829   6.069 -0.3095  0.3859 -0.2548
15843TIP3    H169020   3.234   0.771   6.003  1.8708  2.8326 -1.4117
15843TIP3    H269021   3.199   0.777   6.150  2.3153 -0.9633 -1.0367
15844TIP3   OH269022   1.829   2.980  13.072 -0.2077  0.1558 -1.0043
15844TIP3    H169023   1.752   2.944  13.029 -0.8601  2.4549 -1.9195
15844TIP3    H269024   1.794   3.040  13.138  0.8086  0.4825 -0.7448
15845TIP3   OH269025   1.983   2.829  10.503 -0.4676 -0.4327 -0.2710
15845TIP3    H169026   2.016   2.835  10.414 -2.6413 -1.4189 -1.2040
15845TIP3    H269027   1.991   2.918  10.537  0.9510 -0.1690 -1.2049
15846TIP3   OH269028   3.718   5.032   4.718 -0.7598  0.2702 -0.9901
15846TIP3    H169029   3.680   4.982   4.790  1.2526  0.9348  0.6533
15846TIP3    H269030   3.696   5.123   4.737 -1.4780  0.3456 -2.0774
15847TIP3   OH269031   2.292   1.493  14.322  0.3660  0.1211 -0.3672
15847TIP3    H169032   2.275   1.482  14.229  0.4280  0.5282 -0.4273
15847TIP3    H269033   2.377   1.538  14.326  0.9615 -0.9987 -0.0889
15848TIP3   OH269034   1.562   6.173  10.202 -0.1219  0.6541 -0.5044
15848TIP3    H169035   1.632   6.219  10.248 -0.0961  2.0841 -1.8533
15848TIP3    H269036   1.484   6.189  10.254  0.4154 -0.4298  0.6833
15849TIP3   OH269037   4.872   2.461  12.690  0.1347  1.1088 -0.4414
15849TIP3    H169038   4.866   2.505  12.775  2.6699  0.8099 -0.0470
15849TIP3    H269039   4.816   2.513  12.633 -0.5190  2.1533  1.0641
15850TIP3   OH269040   2.178   3.210  14.912 -0.4538  0.2983 -0.2685
15850TIP3    H169041   2.262   3.240  14.945 -0.6759  0.2234  0.3828
15850TIP3    H269042   2.176   3.238  14.820 -0.8414  2.7307  0.4001
15851TIP3   OH269043   6.086   1.422  13.612 -0.1696  0.1239 -0.1862
15851TIP3    H169044   6.108   1.457  13.526  0.4492 -0.2842 -0.2008
15851TIP3    H269045   6.008   1.470  13.638 -1.3622 -0.9255 -1.6980
15852TIP3   OH269046   4.034   4.580   4.488  0.1954 -0.5383 -0.8089
15852TIP3    H169047   4.067   4.669   4.484 -1.4554  0.0895 -1.1276
15852TIP3    H269048   4.045   4.555   4.580  0.1181  0.2014 -0.5914
15853TIP3   OH269049   1.119   2.190   0.494 -0.0898 -0.1400  0.2334
15853TIP3    H169050   1.084   2.101   0.483  2.0256 -0.9063 -0.8603
15853TIP3    H269051   1.133   2.221   0.404  2.7926 -0.2742  0.5495
15854TIP3   OH269052   1.276   4.786   0.876  0.6979 -0.1337 -0.0184
15854TIP3    H169053   1.198   4.801   0.931  0.2417 -0.4698 -0.5572
15854TIP3    H269054   1.350   4.798   0.936  0.2142 -0.4022  0.6568
15855TIP3   OH269055   0.013   6.611  13.075 -0.0688 -0.1771  0.2002
15855TIP3    H169056  -0.041   6.608  12.996 -0.8706  2.7457  0.5048
15855TIP3    H269057   0.086   6.669  13.052  2.4356 -3.0611  0.1971
15856TIP3   OH269058   4.659   0.729   1.680 -0.2948 -0.0247  0.7179
15856TIP3    H169059   4.747   0.736   1.717 -0.2362 -4.5802  2.0904
15856TIP3    H269060   4.603   0.774   1.743  0.7016 -0.3814  1.8996
15857TIP3   OH269061   2.728   5.512  16.337  0.4650 -0.4708  0.2371
15857TIP3    H169062   2.678   5.570  16.394  0.4004 -1.1936  0.9353
15857TIP3    H269063   2.669   5.439  16.319  1.3335 -1.4708  1.3001
15858TIP3   OH269064   2.055   2.879   1.137  0.3706 -0.2037  0.0079
15858TIP3    H169065   1.976   2.914   1.096 -0.8991 -0.8439  1.7473
15858TIP3    H269066   2.127   2.922   1.092 -0.9444  0.2090 -1.8288
15859TIP3   OH269067   1.096   2.801   0.370  0.1694  0.0560 -0.0531
15859TIP3    H169068   1.071   2.759   0.452  0.0361 -0.2504 -0.2464
15859TIP3    H269069   1.190   2.819   0.379 -0.1555  1.4510  0.7794
15860TIP3   OH269070   6.306   6.566   4.792  0.1603 -0.4217 -0.4186
15860TIP3    H169071   6.344   6.486   4.756 -0.4900 -1.1056  0.3583
15860TIP3    H269072   6.380   6.614   4.827  0.5944 -0.5493 -1.1444
15861TIP3   OH269073   5.986   3.886   4.358  0.1785  0.2131 -0.2270
15861TIP3    H169074   5.957   3.804   4.316  0.9630 -0.1577 -0.0584
15861TIP3    H269075   5.907   3.920   4.400  0.1156 -1.1655  0.8562
15862TIP3   OH269076   4.240   1.777  16.485 -0.0826  0.8206 -0.1782
15862TIP3    H169077   4.208   1.853  16.534 -0.2222  0.3699  0.4442
15862TIP3    H269078   4.165   1.749  16.432 -0.1739  0.8377 -0.0581
15863TIP3   OH269079   1.082   4.922  14.897 -0.1771  0.8565 -0.2631
15863TIP3    H169080   1.139   4.965  14.961 -1.2069  0.4550  0.9575
15863TIP3    H269081   1.012   4.883  14.949  0.0012 -1.1934 -1.4515
15864TIP3   OH269082   5.424   1.705  13.816 -0.1902 -0.1391  0.4783
15864TIP3    H169083   5.454   1.624  13.857  0.1465 -1.2889 -1.8575
15864TIP3    H269084   5.378   1.676  13.737 -0.5997  1.9379 -0.0931
15865TIP3   OH269085   5.004   2.742  11.851 -0.5015 -0.4962  0.0631
15865TIP3    H169086   4.926   2.721  11.902  0.5588 -1.3058  1.4584
15865TIP3    H269087   5.030   2.660  11.811 -0.9500  0.0010 -1.2792
15866TIP3   OH269088   0.985   6.728   0.842  0.2582 -0.2243  0.5900
15866TIP3    H169089   1.014   6.725   0.751  0.0111  0.2226  0.4916
15866TIP3    H269090   0.925   6.655   0.851  1.0764 -0.8986  0.6788
15867TIP3   OH269091   4.970   4.730   4.149 -0.8471 -0.6959  0.3119
15867TIP3    H169092   5.004   4.778   4.225  1.3827 -2.1857  0.3431
15867TIP3    H269093   4.966   4.639   4.178 -1.4091 -1.0632 -0.8841
15868TIP3   OH269094   3.146   1.925  14.611  0.1106  0.1973  0.1312
15868TIP3    H169095   3.240   1.943  14.613  0.2174 -0.3541  0.2830
15868TIP3    H269096   3.106   2.005  14.644  0.6763 -0.5730  2.8928
15869TIP3   OH269097   1.408   4.494   4.427  0.2403 -0.5125  0.4026
15869TIP3    H169098   1.416   4.512   4.520 -0.1550  1.8132  0.0298
15869TIP3    H269099   1.471   4.553   4.385  0.9000 -1.9905 -0.8038
15870TIP3   OH269100   6.774   0.168  16.551 -0.5132  0.0640 -0.2058
15870TIP3    H169101   6.847   0.186  16.611 -0.7428  0.9524 -0.1748
15870TIP3    H269102   6.774   0.073  16.541 -1.1916 -0.2449  2.1156
15871TIP3   OH269103   6.051   4.000   0.794 -0.1695 -0.5810  0.3710
15871TIP3    H169104   5.975   3.988   0.851  0.0449 -0.0897  0.7708
15871TIP3    H269105   6.119   3.945   0.833 -0.3681 -1.1675 -0.0938
15872TIP3   OH269106   4.093   4.136  11.430  0.1590 -0.0562  0.1368
15872TIP3    H169107   4.048   4.057  11.402  0.6529  0.7084 -3.1539
15872TIP3    H269108   4.031   4.207  11.413  0.1944  0.4540  1.8735
15873TIP3   OH269109   5.129   2.215  11.364 -0.0273  0.5021  0.4807
15873TIP3    H169110   5.145   2.249  11.276  0.4844 -0.9896 -0.0349
15873TIP3    H269111   5.197   2.254  11.419 -0.5415  1.6902  0.3150
15874TIP3   OH269112   4.808   2.144  14.073 -0.3272 -0.6565  0.0287
15874TIP3    H169113   4.800   2.212  14.140 -0.7756 -1.6705  1.0397
15874TIP3    H269114   4.730   2.090  14.084 -0.8758 -0.3530 -1.9253
15875TIP3   OH269115   3.992   6.218   0.714 -0.4373 -0.2160 -0.1082
15875TIP3    H169116   4.024   6.137   0.754  0.2731 -0.2726 -0.7467
15875TIP3    H269117   4.048   6.229   0.637 -1.8977 -0.2393 -1.2087
15876TIP3   OH269118   5.204   5.433  12.662  0.0043  0.1880  0.3519
15876TIP3    H169119   5.147   5.363  12.630 -1.1229 -0.4899  3.4154
15876TIP3    H269120   5.153   5.513  12.649  0.0618  0.0841 -0.5416
15877TIP3   OH269121   1.339   0.055  14.604  0.1588 -0.2638  0.3178
15877TIP3    H169122   1.249   0.023  14.592  1.1587 -2.6170 -1.7387
15877TIP3    H269123   1.353   0.051  14.699 -1.7180 -0.4337  0.6242
15878TIP3   OH269124   3.373   3.135   6.279  0.3193 -0.7287  0.1081
15878TIP3    H169125   3.469   3.140   6.276  0.3680  1.2646  2.1525
15878TIP3    H269126   3.350   3.171   6.365 -2.1615 -3.6753  0.8616
15879TIP3   OH269127   1.525   1.620  13.161  0.6648 -0.6771 -0.3149
15879TIP3    H169128   1.566   1.625  13.247 -0.3029  2.6954  0.0871
15879TIP3    H269129   1.594   1.649  13.100  0.5290 -0.3499 -0.3149
15880TIP3   OH269130   3.976   2.020  10.505  0.7404  0.2704  0.4708
15880TIP3    H169131   3.995   2.102  10.551 -1.0063  0.8620  0.2126
15880TIP3    H269132   3.886   2.030  10.474 -0.2919 -2.5524  2.1974
15881TIP3   OH269133   5.115   2.828   5.278  0.4807  0.0572 -0.1291
15881TIP3    H169134   5.092   2.737   5.256  1.9348 -0.9138  2.0640
15881TIP3    H269135   5.053   2.852   5.347  0.3346  0.6247 -0.4537
15882TIP3   OH269136   0.499   6.638   0.837 -0.1790 -0.4868 -0.2193
15882TIP3    H169137   0.536   6.550   0.830 -0.8359 -0.8663  0.8238
15882TIP3    H269138   0.469   6.644   0.928  0.4997  1.0797 -0.0724
15883TIP3   OH269139   6.074   5.158   4.772  0.0069  0.3506  0.4596
15883TIP3    H169140   6.037   5.246   4.782 -0.8037  0.0610  0.1079
15883TIP3    H269141   5.998   5.101   4.757  0.5671 -0.3129  0.0320
15884TIP3   OH269142   4.853   5.604   1.636 -0.3263 -0.3391  0.0340
15884TIP3    H169143   4.916   5.569   1.700 -0.4997  0.4459  0.6396
15884TIP3    H269144   4.906   5.659   1.579 -0.2030 -0.9021 -0.4108
15885TIP3   OH269145   5.191   3.391   2.418  0.2039  0.4327  0.0423
15885TIP3    H169146   5.104   3.360   2.443  0.9238 -1.6500  0.1770
15885TIP3    H269147   5.190   3.484   2.440 -2.4428  0.8141 -1.2818
15886TIP3   OH269148   2.960   2.940  14.499  0.4679 -0.1326  0.5692
15886TIP3    H169149   2.996   2.978  14.418 -2.3134  1.1466 -0.1752
15886TIP3    H269150   2.965   3.012  14.562 -0.6795  0.0645  0.4538
15887TIP3   OH269151   6.490   2.833   4.667  0.0768 -0.4965 -0.2917
15887TIP3    H169152   6.540   2.752   4.675  0.0278 -0.4710  0.3184
15887TIP3    H269153   6.552   2.902   4.691  0.4715 -0.2283 -1.9605
15888TIP3   OH269154   1.520   1.641  15.305  0.2814  0.5548 -0.2389
15888TIP3    H169155   1.507   1.705  15.375  1.1520 -0.9061  1.3013
15888TIP3    H269156   1.435   1.639  15.260 -1.1431 -0.1566  2.2490
15889TIP3   OH269157   1.143   0.458   0.222 -0.5165 -0.3114 -0.0830
15889TIP3    H169158   1.074   0.515   0.189 -0.4856 -0.4065 -0.3145
15889TIP3    H269159   1.139   0.380   0.166 -0.4337 -0.4531  0.1082
15890TIP3   OH269160   5.896   0.529   3.178  1.0553 -0.0453  0.0753
15890TIP3    H169161   5.890   0.620   3.151  0.9260  0.2093  0.9369
15890TIP3    H269162   5.976   0.525   3.230  0.5672 -0.2021  0.8355
15891TIP3   OH269163   0.215   1.250   3.668 -0.4209 -0.0333 -0.0051
15891TIP3    H169164   0.186   1.212   3.750 -0.4154 -0.2849 -0.1184
15891TIP3    H269165   0.193   1.343   3.675 -0.4382 -0.0582  0.2709
15892TIP3   OH269166   5.287   4.534   1.480  0.2876  0.0804  0.4151
15892TIP3    H169167   5.303   4.480   1.403  2.6522  1.5789 -0.2448
15892TIP3    H269168   5.343   4.610   1.468 -2.6878  2.6358  1.4074
15893TIP3   OH269169   2.825   6.096  16.313  0.3226 -0.2493 -0.1906
15893TIP3    H169170   2.775   6.081  16.233 -2.8911 -0.2425  1.6385
15893TIP3    H269171   2.834   6.191  16.318 -1.3529 -0.0920  0.4316
15894TIP3   OH269172   6.470   0.008  14.994 -0.1381  0.1300 -0.2894
15894TIP3    H169173   6.471  -0.044  15.075  0.4243  1.4559  0.5874
15894TIP3    H269174   6.379   0.003  14.964 -0.5622  0.2839  0.8803
15895TIP3   OH269175   5.796   4.195   2.099  0.1052 -0.5876 -0.4846
15895TIP3    H169176   5.784   4.267   2.161  0.2105 -1.8191  1.0281
15895TIP3    H269177   5.867   4.225   2.042 -1.1126  1.2621 -1.1208
15896TIP3   OH269178   5.181   1.083   3.506 -1.1272 -0.2797 -0.0572
15896TIP3    H169179   5.224   1.069   3.590  0.6835  0.1932 -0.8508
15896TIP3    H269180   5.135   1.166   3.515  2.5133  2.0205 -0.7398
15897TIP3   OH269181   1.919   6.027  11.046 -0.0561 -0.5220 -0.1439
15897TIP3    H169182   2.001   5.980  11.058 -0.5849 -1.4165  0.0373
15897TIP3    H269183   1.916   6.048  10.953  0.5094 -0.2242 -0.0988
15898TIP3   OH269184   2.799   1.401   4.770 -0.1129  0.1546 -0.0024
15898TIP3    H169185   2.713   1.434   4.796  0.7064  1.3154  1.4183
15898TIP3    H269186   2.780   1.325   4.715 -2.0363 -0.5084  1.4582
15899TIP3   OH269187   0.973   1.425  12.102  0.2723 -0.0375  0.1722
15899TIP3    H169188   1.066   1.410  12.088  0.3750  1.2281 -0.6977
15899TIP3    H269189   0.932   1.339  12.086  1.1071 -0.1715 -1.4874
15900TIP3   OH269190   4.268   0.764  11.860  0.0639 -0.0212 -0.2183
15900TIP3    H169191   4.195   0.767  11.798  0.0973 -0.5847 -0.2910
15900TIP3    H269192   4.240   0.700  11.925  0.9900 -1.1305 -0.8830
15901TIP3   OH269193   2.945   6.431   1.859 -0.0562 -0.2534 -0.3098
15901TIP3    H169194   2.991   6.367   1.805 -0.5483 -0.2343 -0.7487
15901TIP3    H269195   2.854   6.403   1.859 -0.2564  0.3791 -0.4059
15902TIP3   OH269196   4.445   4.856   4.999 -0.1748 -0.7397  0.5892
15902TIP3    H169197   4.370   4.859   4.939  1.1465 -2.4864 -1.2592
15902TIP3    H269198   4.425   4.784   5.059 -0.0931 -1.0637  0.2329
15903TIP3   OH269199   2.040   0.128  11.056 -0.1391  0.2837 -0.5437
15903TIP3    H169200   2.102   0.063  11.090 -0.7587  0.8183  1.7767
15903TIP3    H269201   2.093   0.207  11.045 -0.4247  0.8825  1.9133
15904TIP3   OH269202   6.506   0.756   1.146  0.2458  0.8418 -0.7026
15904TIP3    H169203   6.589   0.748   1.193  0.0413  0.4930 -0.3899
15904TIP3    H269204   6.453   0.815   1.200 -0.8611 -1.3900  0.8141
15905TIP3   OH269205   5.540   0.891   6.420 -0.4661  0.1585 -0.0418
15905TIP3    H169206   5.494   0.829   6.476  0.0657 -0.2095 -0.0051
15905TIP3    H269207   5.612   0.924   6.474 -1.3203  1.5635  0.2777
15906TIP3   OH269208   4.395   2.045   3.931  0.0531 -0.4997 -0.3983
15906TIP3    H169209   4.483   2.022   3.901  0.1975  0.7199 -0.9709
15906TIP3    H269210   4.336   1.996   3.874  0.3468  0.6124 -1.7058
15907TIP3   OH269211   6.173   2.580   2.523 -0.2578  0.6544 -0.2899
15907TIP3    H169212   6.115   2.655   2.509 -1.3563 -0.5721 -3.1828
15907TIP3    H269213   6.238   2.586   2.453 -0.3934 -1.0164 -0.6267
15908TIP3   OH269214   6.583   4.727  11.336  0.5234 -0.1734 -0.3243
15908TIP3    H169215   6.652   4.726  11.401 -0.2575  0.6712  0.5497
15908TIP3    H269216   6.594   4.645  11.287  3.1883  0.6949 -1.3793
15909TIP3   OH269217   2.763   6.071  13.615  0.1617 -0.5688 -0.4355
15909TIP3    H169218   2.726   5.984  13.628 -3.5825  1.1001  1.4034
15909TIP3    H269219   2.768   6.082  13.520 -1.2555 -2.0474 -0.7104
15910TIP3   OH269220   2.662   5.730   1.544  1.0399 -0.3349  0.1829
15910TIP3    H169221   2.599   5.673   1.501  1.4507 -0.8983  0.3078
15910TIP3    H269222   2.700   5.675   1.613  2.1044 -0.2032 -0.2868
15911TIP3   OH269223   1.899   1.139   5.663 -0.0799  0.3880 -0.6034
15911TIP3    H169224   1.910   1.157   5.756  1.0126  0.3529 -0.7219
15911TIP3    H269225   1.809   1.167   5.644 -1.0244 -1.4484  0.8752
15912TIP3   OH269226   4.762   4.159  16.442  0.3321  0.0846 -0.8902
15912TIP3    H169227   4.847   4.145  16.485  0.1375 -1.1636 -0.8820
15912TIP3    H269228   4.697   4.134  16.507 -0.0617  1.0917 -0.8778
15913TIP3   OH269229   3.959   0.373   3.580 -0.3499  0.1040 -0.4067
15913TIP3    H169230   3.911   0.451   3.552 -0.8705  0.6072  1.7259
15913TIP3    H269231   3.939   0.307   3.513 -3.2142  0.6115 -0.1983
15914TIP3   OH269232   5.173   4.020   4.036 -0.0380 -0.4303  0.6964
15914TIP3    H169233   5.158   4.035   4.129  2.0931  0.3078  0.9755
15914TIP3    H269234   5.268   4.007   4.029 -0.2969 -1.6682 -1.2189
15915TIP3   OH269235   4.814   4.231  13.260  0.0646  0.2499 -0.4361
15915TIP3    H169236   4.819   4.179  13.179 -1.5226 -0.5839 -0.0444
15915TIP3    H269237   4.803   4.321  13.230  0.0288  0.0114 -1.1558
15916TIP3   OH269238   2.809   1.779  16.631  0.6221  0.5817  0.2855
15916TIP3    H169239   2.759   1.708  16.672 -0.4186  0.0585 -1.7329
15916TIP3    H269240   2.900   1.751  16.637  0.7826  1.4847  3.9170
15917TIP3   OH269241   5.502   2.394   5.080 -0.0561 -0.3450  0.4349
15917TIP3    H169242   5.478   2.332   5.011  0.0997  0.3389 -0.2501
15917TIP3    H269243   5.533   2.472   5.033  2.4411 -0.7574  1.2607
15918TIP3   OH269244   0.220   4.528   1.711 -0.0891  0.3425  0.1748
15918TIP3    H169245   0.183   4.593   1.771  0.4485  0.3891  0.4689
15918TIP3    H269246   0.247   4.456   1.769 -1.9108 -0.7686 -0.2642
15919TIP3   OH269247   6.471   5.838  11.825 -0.1887  0.0334 -0.2949
15919TIP3    H169248   6.448   5.750  11.854  0.4682  0.2371  0.8995
15919TIP3    H269249   6.535   5.824  11.755  1.1163 -0.4358  0.9570
15920TIP3   OH269250   6.576   6.525   0.151  0.6913 -0.2415 -0.6532
15920TIP3    H169251   6.617   6.502   0.234 -0.9923  0.0895  0.3052
15920TIP3    H269252   6.649   6.552   0.095  1.8697 -0.6079  0.6572
15921TIP3   OH269253   2.344   1.341  11.724 -0.3775  0.2119 -0.2093
15921TIP3    H169254   2.308   1.334  11.812  2.7924  1.6354  1.3499
15921TIP3    H269255   2.317   1.428  11.694 -0.1571  0.3527  0.0002
15922TIP3   OH269256   5.983   6.360  15.181  0.2378  0.3174  0.6013
15922TIP3    H169257   5.997   6.284  15.237 -0.5019  1.4457  2.3888
15922TIP3    H269258   6.066   6.408  15.184  0.1277  0.4904  0.9242
15923TIP3   OH269259   1.404   5.456   3.098 -0.3816  0.0860 -0.1545
15923TIP3    H169260   1.473   5.390   3.094 -1.1480 -0.7582 -0.0321
15923TIP3    H269261   1.411   5.504   3.016 -0.5390 -0.9390 -0.7927
15924TIP3   OH269262   3.025   0.206  14.737 -0.0994 -0.2229  0.4098
15924TIP3    H169263   3.119   0.193  14.748 -0.0716  0.9935  2.1078
15924TIP3    H269264   2.987   0.174  14.819 -0.6772  3.1715  1.6337
15925TIP3   OH269265   0.565   1.260   2.936 -0.2526 -0.5546 -0.5659
15925TIP3    H169266   0.517   1.197   2.990  0.0204 -0.2574  0.0396
15925TIP3    H269267   0.498   1.310   2.890 -0.6426  0.9032  1.4353
15926TIP3   OH269268   5.628   5.154  13.231  0.1247 -0.9847  0.0611
15926TIP3    H169269   5.706   5.175  13.179  2.1902 -3.7965  1.7765
15926TIP3    H269270   5.555   5.179  13.174  2.2133  0.0655 -2.3953
15927TIP3   OH269271   5.801   5.442  14.644 -0.4364 -0.5586  0.6115
15927TIP3    H169272   5.774   5.470  14.556 -0.2728 -2.9962 -0.2844
15927TIP3    H269273   5.897   5.448  14.642 -0.2034 -3.3906 -0.4841
15928TIP3   OH269274   2.602   2.629   1.313  0.2530  0.4499 -0.7906
15928TIP3    H169275   2.558   2.570   1.374 -2.6071  3.3308  0.2028
15928TIP3    H269276   2.580   2.595   1.227  0.1115 -0.8349 -0.2699
15929TIP3   OH269277   3.297   3.063  12.930 -0.3409  0.0246  0.6669
15929TIP3    H169278   3.220   3.119  12.943 -0.7735 -0.7801  1.6924
15929TIP3    H269279   3.313   3.025  13.015  0.4651 -0.7686  0.1721
15930TIP3   OH269280   0.285   5.368   5.076  0.8342 -0.9944  0.8164
15930TIP3    H169281   0.229   5.373   5.153  0.1500 -0.8544  0.3136
15930TIP3    H269282   0.373   5.386   5.109  0.4790 -0.4468  1.4836
15931TIP3   OH269283   5.336   0.605   5.671  0.5468  0.2457  0.1557
15931TIP3    H169284   5.412   0.580   5.722  0.0532  0.0313  0.8016
15931TIP3    H269285   5.332   0.540   5.600  1.2768  0.5906 -0.2089
15932TIP3   OH269286   0.046   1.373  11.795 -0.4111 -0.2568  0.5260
15932TIP3    H169287   0.087   1.326  11.867 -2.2432 -2.1770  0.3903
15932TIP3    H269288  -0.047   1.377  11.818 -0.5770  1.9718 -0.2385
15933TIP3   OH269289   1.283   3.619  13.618  0.0612  0.0766  0.7483
15933TIP3    H169290   1.214   3.676  13.585 -0.3820 -0.2807  1.0517
15933TIP3    H269291   1.361   3.646  13.570 -0.3658  0.2304  0.1312
15934TIP3   OH269292   4.192   5.083   4.923  0.2035 -0.7152 -0.2078
15934TIP3    H169293   4.185   5.002   4.873 -2.2858  0.8089 -2.7070
15934TIP3    H269294   4.118   5.080   4.984  1.2578 -1.1110  1.0897
15935TIP3   OH269295   6.826   5.513   4.996 -0.2160 -0.6479 -0.3129
15935TIP3    H169296   6.759   5.455   4.959  0.8586 -1.4841 -1.0283
15935TIP3    H269297   6.898   5.454   5.020 -0.6629 -0.0785  2.7714
15936TIP3   OH269298   3.830   0.913  13.488 -0.5073 -0.4507 -0.0561
15936TIP3    H169299   3.922   0.938  13.498 -0.5838  0.0918 -0.6349
15936TIP3    H269300   3.833   0.827  13.447 -0.2496 -1.0201  1.1166
15937TIP3   OH269301   1.095   1.443  13.703  0.0570 -0.5676 -0.1870
15937TIP3    H169302   1.053   1.435  13.617  1.6006  1.3298 -1.1938
15937TIP3    H269303   1.142   1.526  13.699 -1.0840  0.3942  3.0928
15938TIP3   OH269304   2.235   5.400   1.214  0.6872 -0.2250  0.0718
15938TIP3    H169305   2.316   5.402   1.163  0.7323  2.0468  0.1245
15938TIP3    H269306   2.223   5.490   1.244 -0.9288 -0.8710  1.5830
15939TIP3   OH269307   2.945   1.051  10.926 -0.0919 -0.6752 -0.4355
15939TIP3    H169308   2.954   1.144  10.904 -0.6309 -0.2796  0.8734
15939TIP3    H269309   3.024   1.030  10.975  0.6946 -1.3094 -1.9288
15940TIP3   OH269310   6.823   2.342  13.741 -0.3760  0.1653 -0.2721
15940TIP3    H169311   6.892   2.405  13.720 -2.0350  1.5021 -2.0393
15940TIP3    H269312   6.781   2.378  13.819  0.4564 -0.3139  0.4229
15941TIP3   OH269313   5.092   1.398   4.965 -0.6271  0.4642 -0.2205
15941TIP3    H169314   5.133   1.314   4.944  0.2822  0.9268 -0.3329
15941TIP3    H269315   5.107   1.411   5.058  1.5542  1.6859 -0.6584
15942TIP3   OH269316   1.332   4.422  16.467  0.2500 -0.6630 -0.1982
15942TIP3    H169317   1.311   4.507  16.505  4.5556  0.3319  0.5248
15942TIP3    H269318   1.280   4.418  16.387 -0.3824  2.4928 -0.0693
15943TIP3   OH269319   3.273   2.775   2.365  0.7193  0.1888  0.4229
15943TIP3    H169320   3.231   2.772   2.279 -0.0334  2.1479  0.6823
15943TIP3    H269321   3.345   2.711   2.358 -0.3808 -0.9800 -1.0556
15944TIP3   OH269322   5.775   6.507  13.565  0.2006  0.3407 -0.0291
15944TIP3    H169323   5.690   6.504  13.608 -0.7619  5.1857 -1.1184
15944TIP3    H269324   5.758   6.481  13.475  0.3128 -0.5397  0.1940
15945TIP3   OH269325   5.579   3.474   1.515 -0.3174 -0.0967  0.1486
15945TIP3    H169326   5.644   3.406   1.533 -1.8222 -2.2676 -1.8599
15945TIP3    H269327   5.614   3.553   1.555  2.4416 -1.6419  1.0470
15946TIP3   OH269328   5.862   1.843   4.793 -0.1289  0.1795  0.1524
15946TIP3    H169329   5.780   1.802   4.766 -0.0870 -0.4358  0.9285
15946TIP3    H269330   5.857   1.932   4.757 -0.1640 -0.5077 -1.6692
15947TIP3   OH269331   5.030   6.385   1.122 -0.4648  0.2488  0.3224
15947TIP3    H169332   4.975   6.361   1.196  2.1513 -0.1639  2.2627
15947TIP3    H269333   5.018   6.313   1.060 -0.0502 -1.2698  1.9151
15948TIP3   OH269334   4.500   3.168   4.171  0.2204  0.0589  0.0332
15948TIP3    H169335   4.531   3.079   4.187  0.8749 -0.1752 -2.1324
15948TIP3    H269336   4.436   3.158   4.100  0.5298  1.3482 -0.4533
15949TIP3   OH269337   5.148   2.691  14.852 -0.0002  0.1353  0.6064
15949TIP3    H169338   5.230   2.643  14.869  0.3001  0.2607 -0.4577
15949TIP3    H269339   5.102   2.688  14.936  0.5352 -1.0076  0.8799
15950TIP3   OH269340   1.542   2.575   5.094 -0.0571 -0.4276 -0.3352
15950TIP3    H169341   1.514   2.483   5.088 -1.9058  0.0511  0.2342
15950TIP3    H269342   1.489   2.620   5.028 -0.1483  0.4201  0.3006
15951TIP3   OH269343   6.197   0.526  15.080 -0.7032  0.1888  0.1869
15951TIP3    H169344   6.252   0.488  15.011 -0.9632 -1.3014  0.7649
15951TIP3    H269345   6.117   0.474  15.078 -1.1652  0.8588  0.8734
15952TIP3   OH269346   0.738   3.896   3.664  0.2691  0.1370  0.3284
15952TIP3    H169347   0.729   3.848   3.746 -0.3523  1.1158  0.8497
15952TIP3    H269348   0.815   3.952   3.677  0.8267 -0.4888 -0.1757
15953TIP3   OH269349   0.062   4.907  15.830 -0.0802 -0.1339 -0.4062
15953TIP3    H169350  -0.014   4.878  15.881 -0.3335  0.3254 -0.5206
15953TIP3    H269351   0.116   4.955  15.894 -1.7779  2.9944 -1.1319
15954TIP3   OH269352   0.421   4.863   3.201  0.5061 -0.1415 -0.1662
15954TIP3    H169353   0.338   4.891   3.163  0.1305 -0.2909  0.5273
15954TIP3    H269354   0.483   4.864   3.127  0.0662  0.6742 -0.5414
15955TIP3   OH269355   3.778   2.554  16.265 -0.3228  0.5987  0.1478
15955TIP3    H169356   3.684   2.558  16.248 -0.3030  1.5151  0.1627
15955TIP3    H269357   3.808   2.476  16.219 -1.1064  0.2373  0.2294
15956TIP3   OH269358   4.364   2.221   5.754 -0.1258  0.0315 -0.4361
15956TIP3    H169359   4.449   2.226   5.797 -0.7737  0.3687  0.8698
15956TIP3    H269360   4.301   2.219   5.826 -1.1622 -1.8415 -1.3308
15957TIP3   OH269361   0.410   6.279  11.455 -0.2843 -0.0030  0.4260
15957TIP3    H169362   0.416   6.374  11.464 -0.1012  0.1327 -0.8658
15957TIP3    H269363   0.362   6.250  11.532  2.6793  0.7175  2.7236
15958TIP3   OH269364   1.525   4.137   4.497  0.4272 -0.1144 -0.5959
15958TIP3    H169365   1.432   4.148   4.520  0.6187 -2.9891  2.2954
15958TIP3    H269366   1.572   4.196   4.556  0.5410 -0.9186  0.1300
15959TIP3   OH269367   4.902   4.643   3.845 -0.2021  0.2401 -0.0307
15959TIP3    H169368   4.945   4.575   3.794  1.2571  0.0071  1.4223
15959TIP3    H269369   4.844   4.596   3.905 -0.5302  0.3962 -0.2217
15960TIP3   OH269370   2.299   5.242   2.858  0.1230 -0.6318  0.2336
15960TIP3    H169371   2.389   5.254   2.886  0.5779  1.7327 -1.8456
15960TIP3    H269372   2.254   5.321   2.889 -0.8238 -1.0053 -0.1491
15961TIP3   OH269373   1.086   0.850  12.863 -0.5087 -0.1953  0.4674
15961TIP3    H169374   1.161   0.811  12.910  0.4960 -0.2601 -1.1083
15961TIP3    H269375   1.048   0.777  12.815  0.3877  0.4008 -1.2228
15962TIP3   OH269376   2.887   4.521  11.453  0.0864  0.2631  0.3170
15962TIP3    H169377   2.955   4.583  11.479  0.9793 -0.8998  0.8572
15962TIP3    H269378   2.873   4.539  11.360  2.7337 -0.8701 -0.3979
15963TIP3   OH269379   4.182   5.333  16.541  0.0365 -0.0962 -0.2925
15963TIP3    H169380   4.264   5.378  16.518  0.3545  1.4290  3.2244
15963TIP3    H269381   4.114   5.395  16.516  0.1060 -0.1937 -0.7357
15964TIP3   OH269382   0.677   3.060   0.163  0.1691  0.0024 -0.4374
15964TIP3    H169383   0.677   3.022   0.076  0.4088 -0.3056 -0.3032
15964TIP3    H269384   0.756   3.027   0.204 -0.3806 -0.5478  0.1999
15965TIP3   OH269385   4.142   6.044   2.840  0.0760 -0.3001  0.9921
15965TIP3    H169386   4.160   6.059   2.933 -1.0986 -0.6512  1.2852
15965TIP3    H269387   4.049   6.021   2.836  0.2040 -0.6982 -0.2220
15966TIP3   OH269388   2.818   4.086   1.256 -0.6727  0.0588 -0.0138
15966TIP3    H169389   2.872   4.009   1.274 -0.5451 -0.0925 -1.0212
15966TIP3    H269390   2.783   4.072   1.168 -1.0100  0.9397 -0.0326
15967TIP3   OH269391   1.155   1.474  12.412 -0.1624  0.4554  0.1554
15967TIP3    H169392   1.179   1.448  12.501 -1.2552 -1.2199  0.0066
15967TIP3    H269393   1.065   1.443  12.402 -0.5503  1.8732 -1.0739
15968TIP3   OH269394   2.386   6.709  10.026  0.1624  0.3396 -0.3926
15968TIP3    H169395   2.307   6.741   9.981  0.3657 -0.5211 -1.3929
15968TIP3    H269396   2.354   6.647  10.090 -0.0116  0.3426 -0.4761
15969TIP3   OH269397   3.515   4.821   0.836 -0.1160  0.0568 -0.6444
15969TIP3    H169398   3.518   4.892   0.899  1.3605  2.3229 -3.0747
15969TIP3    H269399   3.425   4.788   0.842 -0.7671  1.9274  0.7681
15970TIP3   OH269400   2.046   5.446  12.950  0.1104 -0.0895  0.1316
15970TIP3    H169401   2.058   5.351  12.947  3.9053  0.2842 -1.0509
15970TIP3    H269402   2.029   5.471  12.859 -2.3616  0.3379  0.6323
15971TIP3   OH269403   2.038   2.494   2.724  0.0880  0.4878  0.4197
15971TIP3    H169404   2.103   2.465   2.787  0.5652  0.3773 -0.1173
15971TIP3    H269405   2.010   2.579   2.756 -0.2050  0.1163  1.1719
15972TIP3   OH269406   0.773   5.985   4.319  0.0043  0.5640 -0.2940
15972TIP3    H169407   0.829   6.048   4.272 -0.4845  0.7542 -0.6286
15972TIP3    H269408   0.684   6.008   4.292 -0.2132  0.0667  0.0005
15973TIP3   OH269409   1.625   0.470   5.673 -0.1753  0.5358  0.5889
15973TIP3    H169410   1.699   0.508   5.720  0.3690  0.2058  0.0258
15973TIP3    H269411   1.665   0.405   5.615 -0.9123  0.3384  0.2914
15974TIP3   OH269412   1.739   5.114  14.010 -0.6261 -0.1028  0.1227
15974TIP3    H169413   1.734   5.111  13.915 -0.8028  0.9267  0.0913
15974TIP3    H269414   1.754   5.206  14.031  0.0644 -0.4067  1.0623
15975TIP3   OH269415   6.666   0.169   1.864 -0.5047 -0.4780  0.5240
15975TIP3    H169416   6.610   0.173   1.787  1.1905 -0.3883 -0.7450
15975TIP3    H269417   6.642   0.087   1.907 -1.8378 -0.2684  0.2214
15976TIP3   OH269418   5.009   6.595  14.071  0.1607 -0.4196 -0.5656
15976TIP3    H169419   5.085   6.538  14.059 -0.3728 -0.9097 -1.7455
15976TIP3    H269420   4.979   6.614  13.982 -1.7026 -1.0769 -0.1260
15977TIP3   OH269421   5.565   1.919   4.811  0.5710 -0.8159 -0.3997
15977TIP3    H169422   5.558   1.828   4.781 -1.0439 -1.3371  1.3607
15977TIP3    H269423   5.477   1.953   4.805  0.6778 -0.1598  1.2365
15978TIP3   OH269424   2.147   3.361   2.042  0.4043 -0.0774 -0.3173
15978TIP3    H169425   2.219   3.326   2.094  0.1879 -1.5396 -0.9524
15978TIP3    H269426   2.114   3.435   2.094  1.5035 -0.2024  0.6044
15979TIP3   OH269427   0.205   3.987   3.392 -0.4659  0.1208 -0.2814
15979TIP3    H169428   0.137   4.055   3.390 -0.1887  0.4344  0.6297
15979TIP3    H269429   0.177   3.925   3.325 -0.6848  1.1584 -1.1891
15980TIP3   OH269430   5.454   4.325  13.076  0.6619  0.5588 -0.1211
15980TIP3    H169431   5.535   4.347  13.030  0.5922  0.0899 -0.4707
15980TIP3    H269432   5.384   4.355  13.019  0.5812  0.6548  0.0256
15981TIP3   OH269433   2.909   6.500  16.039  0.2068  0.1707  0.0348
15981TIP3    H169434   2.979   6.436  16.028  0.8547  0.6217  1.2539
15981TIP3    H269435   2.829   6.449  16.043  0.7621 -0.6268  1.4981
15982TIP3   OH269436   6.509   4.423  12.745 -0.2757 -0.8044 -0.3135
15982TIP3    H169437   6.477   4.432  12.655  0.8435 -0.2817 -0.6781
15982TIP3    H269438   6.430   4.429  12.800 -1.0933 -2.0446 -1.2879
15983TIP3   OH269439   1.919   5.747  11.856  0.0272 -0.1322  0.1177
15983TIP3    H169440   1.973   5.770  11.931 -1.4715  0.3991  1.0645
15983TIP3    H269441   1.875   5.666  11.882  0.6909 -0.8230 -0.8313
15984TIP3   OH269442   1.684   3.752   3.597  0.0498 -0.1526  0.4157
15984TIP3    H169443   1.634   3.682   3.557  0.7823  0.1074 -1.0461
15984TIP3    H269444   1.729   3.794   3.523  1.1715  0.5922  1.4801
15985TIP3   OH269445   4.897   5.509   2.801 -0.3128  0.2525 -0.2835
15985TIP3    H169446   4.897   5.557   2.718 -0.5291  1.2693  0.2917
15985TIP3    H269447   4.881   5.418   2.775 -0.8576  0.6185 -1.3216
15986TIP3   OH269448   3.096   4.294  14.073 -0.2520 -0.3073  0.6344
15986TIP3    H169449   3.028   4.263  14.013  0.2594  0.8907 -0.6152
15986TIP3    H269450   3.153   4.347  14.019 -0.1854  1.4540  2.3269
15987TIP3   OH269451   5.766   3.270   6.520 -0.0733 -0.0602  0.1119
15987TIP3    H169452   5.837   3.256   6.458  0.2386  0.3005  0.3848
15987TIP3    H269453   5.746   3.364   6.513  0.8474  0.2550  1.4948
15988TIP3   OH269454   0.974   1.167  15.179 -0.3242  0.5601  0.0606
15988TIP3    H169455   1.015   1.094  15.226 -1.8059 -0.8424 -0.7089
15988TIP3    H269456   0.890   1.180  15.222 -2.4853 -1.8690 -2.9625
15989TIP3   OH269457   5.065   5.823   0.808 -0.1547  0.1335  1.0984
15989TIP3    H169458   5.108   5.739   0.820  1.9913  0.7965 -1.1094
15989TIP3    H269459   5.100   5.878   0.878  0.4939 -0.1040  0.9679
15990TIP3   OH269460   4.543   2.655   4.663 -0.8914  0.2062 -0.4168
15990TIP3    H169461   4.477   2.671   4.595  0.0219  1.0957 -1.1345
15990TIP3    H269462   4.626   2.650   4.615 -0.3970 -0.6462  0.4915
15991TIP3   OH269463   5.795   4.652  15.686  0.0126  0.1560 -0.7453
15991TIP3    H169464   5.768   4.677  15.597  1.2472 -1.8626 -1.7557
15991TIP3    H269465   5.724   4.596  15.717  0.3085 -0.4193 -1.0953
15992TIP3   OH269466   1.046   3.161  12.871  0.2901  0.4826 -0.3594
15992TIP3    H169467   1.073   3.153  12.779  0.8692  1.0884 -0.2494
15992TIP3    H269468   1.041   3.255  12.887  0.6694  0.3898  0.3640
15993TIP3   OH269469   0.520   0.947   2.832 -0.3059  0.7035 -0.3826
15993TIP3    H169470   0.613   0.955   2.813 -0.3346  1.4538 -0.2364
15993TIP3    H269471   0.515   0.923   2.925 -0.2692  0.9561 -0.3168
15994TIP3   OH269472   2.660   4.158  12.469 -0.9054 -0.4167 -0.1626
15994TIP3    H169473   2.689   4.116  12.549 -1.0028 -0.6178 -0.2330
15994TIP3    H269474   2.738   4.163  12.414 -0.5171  0.9754  0.4837
15995TIP3   OH269475   5.273   5.367   4.676  0.1294  0.1977  0.1538
15995TIP3    H169476   5.274   5.364   4.771 -0.9299  0.1550  0.1795
15995TIP3    H269477   5.182   5.387   4.653 -0.3808 -2.7029 -0.8840
15996TIP3   OH269478   0.849   5.964  11.404 -0.4553 -0.1216 -0.1002
15996TIP3    H169479   0.934   5.994  11.436 -1.1619  1.4603  0.3905
15996TIP3    H269480   0.802   6.044  11.382 -2.5154 -0.8238  1.4547
15997TIP3   OH269481   6.223   5.677  13.983 -0.3411  0.1998 -0.1113
15997TIP3    H169482   6.222   5.584  13.963  1.3844 -0.3175  1.8803
15997TIP3    H269483   6.279   5.716  13.915  0.3964 -0.5003  0.0937
15998TIP3   OH269484   5.285   4.521   5.909 -0.3947 -0.2721  0.1320
15998TIP3    H169485   5.208   4.573   5.885  0.3790  1.1844  0.6894
15998TIP3    H269486   5.272   4.498   6.001 -0.3915 -0.4456  0.0900
15999TIP3   OH269487   3.107   2.743   2.599 -0.2231 -0.5833 -0.1499
15999TIP3    H169488   3.171   2.761   2.530 -1.8751  0.5636 -1.4671
15999TIP3    H269489   3.101   2.647   2.602 -0.2335 -0.6566 -1.7552
16000TIP3   OH269490   0.471   0.203   6.118  0.3509 -0.3347  0.2153
16000TIP3    H169491   0.500   0.113   6.134  0.8442 -0.1421  0.4274
16000TIP3    H269492   0.537   0.257   6.160  0.2069  0.1377 -0.1581
16001TIP3   OH269493   3.307   4.110  12.819 -0.3718 -0.2630 -0.1521
16001TIP3    H169494   3.379   4.093  12.879 -1.1288 -2.5052  0.2074
16001TIP3    H269495   3.286   4.203  12.832  0.8014 -0.1991  1.5378
16002TIP3   OH269496   6.184   3.329   5.154 -0.2602  0.2766  0.0215
16002TIP3    H169497   6.234   3.304   5.077 -1.2446  3.0033 -1.6185
16002TIP3    H269498   6.250   3.342   5.222  0.8115 -0.3640 -0.8583
16003TIP3   OH269499   2.299   0.120   0.223 -0.5804 -0.0199  0.1218
16003TIP3    H169500   2.390   0.149   0.215 -0.9766  0.9507 -1.1564
16003TIP3    H269501   2.277   0.139   0.315  0.9536 -1.7790  0.9291
16004TIP3   OH269502   0.172   1.286  10.442 -0.2758 -0.5868  0.1663
16004TIP3    H169503   0.219   1.322  10.368  0.0672 -0.5676  0.3927
16004TIP3    H269504   0.224   1.210  10.469 -0.0759 -0.2473  0.7587
16005TIP3   OH269505   5.792   6.793   5.367  0.3573 -0.4364 -0.0737
16005TIP3    H169506   5.745   6.855   5.311  0.1166  0.1702  0.7735
16005TIP3    H269507   5.867   6.842   5.400 -2.1459  1.0982  4.2003
16006TIP3   OH269508   3.091   0.850   1.250  0.6405  0.4130 -0.0421
16006TIP3    H169509   3.093   0.884   1.161  2.6020  0.4009 -0.0468
16006TIP3    H269510   3.023   0.783   1.249  0.8609  0.1786 -1.6242
16007TIP3   OH269511   0.876   4.349   1.850  0.5412  0.3263 -0.5461
16007TIP3    H169512   0.858   4.433   1.807  1.2710  0.5841 -0.3656
16007TIP3    H269513   0.790   4.319   1.880  0.0382  0.2379 -1.9923
16008TIP3   OH269514   2.910   1.877   0.216  0.0486  0.3118 -0.3072
16008TIP3    H169515   2.878   1.967   0.214  0.0961  0.3241 -1.9485
16008TIP3    H269516   2.884   1.840   0.131 -0.3320 -1.3601  0.4864
16009TIP3   OH269517   5.359   0.559   2.557  0.0910 -0.4657 -0.1668
16009TIP3    H169518   5.423   0.620   2.593 -0.6960  1.3641 -1.7362
16009TIP3    H269519   5.411   0.485   2.525  1.7130  1.7630 -3.0386
16010TIP3   OH269520   1.969   3.986  16.690 -0.1701 -0.3847 -0.0181
16010TIP3    H169521   2.034   3.940  16.744 -0.4319 -1.6660 -0.7542
16010TIP3    H269522   1.979   3.949  16.603 -1.3581 -0.0354 -0.3250
16011TIP3   OH269523   0.304   0.363  10.700  0.2233 -0.1065  0.6530
16011TIP3    H169524   0.269   0.350  10.611 -0.7103 -0.7890  1.0973
16011TIP3    H269525   0.396   0.338  10.693  0.1850 -0.0547 -0.1496
16012TIP3   OH269526   1.172   6.401  16.727 -0.7796 -0.0050  0.2832
16012TIP3    H169527   1.131   6.434  16.807 -1.7314  1.0083 -0.5908
16012TIP3    H269528   1.185   6.308  16.744  0.4062  0.4326  2.1765
16013TIP3   OH269529   0.920   4.004  13.255  0.5811 -0.3338 -0.3184
16013TIP3    H169530   1.002   3.976  13.216  0.0147 -0.8837 -1.1599
16013TIP3    H269531   0.940   4.019  13.347  1.0243 -3.2129  0.1410
16014TIP3   OH269532   0.822   3.534  12.033 -0.2671 -0.1736  0.7108
16014TIP3    H169533   0.733   3.549  11.998 -0.9651 -1.5007  1.8513
16014TIP3    H269534   0.824   3.584  12.114 -0.3352 -0.9810  1.2121
16015TIP3   OH269535   3.975   3.941   6.222  0.0608  0.2228  0.3645
16015TIP3    H169536   4.001   4.031   6.200 -0.4460  0.4583  0.7016
16015TIP3    H269537   3.890   3.951   6.265 -0.4073 -0.4983 -0.3852
16016TIP3   OH269538   6.268   5.054   4.941 -0.2392 -0.1529 -0.2984
16016TIP3    H169539   6.310   4.976   4.905  0.2889  0.8179 -1.9055
16016TIP3    H269540   6.192   5.069   4.884 -0.4048  0.4257  0.0581
16017TIP3   OH269541   6.328   1.124  12.989  0.4737  0.1139 -0.2179
16017TIP3    H169542   6.395   1.077  13.039  0.1190  0.3752  0.5287
16017TIP3    H269543   6.328   1.082  12.903  0.4628 -0.9679  0.2912
16018TIP3   OH269544   2.005   4.659  14.447 -0.1671  0.5139  0.1980
16018TIP3    H169545   2.012   4.564  14.437 -2.1748  0.3176  0.2200
16018TIP3    H269546   1.996   4.692  14.358  0.1966  0.6457  0.2106
16019TIP3   OH269547   6.753   6.169  12.251 -0.4798  0.2771  0.0800
16019TIP3    H169548   6.729   6.124  12.332  2.4309 -0.1792  0.7930
16019TIP3    H269549   6.817   6.235  12.278 -0.0269  0.6570 -1.7693
16020TIP3   OH269550   1.901   4.258   2.155  0.0497 -0.6882  0.2409
16020TIP3    H169551   1.912   4.313   2.232 -1.0793  1.5551 -1.0891
16020TIP3    H269552   1.988   4.256   2.115  0.2520 -0.3995  0.6534
16021TIP3   OH269553   4.940   4.563   3.548 -0.2087 -0.2199  0.0165
16021TIP3    H169554   5.018   4.520   3.583 -1.0487 -1.6372  0.1789
16021TIP3    H269555   4.976   4.633   3.492  1.2583 -1.9566 -1.3635
16022TIP3   OH269556   2.245   6.271   1.813 -0.1740  0.5598  0.0448
16022TIP3    H169557   2.251   6.337   1.745 -2.3412  0.3226 -0.4284
16022TIP3    H269558   2.191   6.202   1.776  0.6334 -0.7136  1.1392
16023TIP3   OH269559   1.610   5.781  12.877  0.0364 -0.4605 -0.3590
16023TIP3    H169560   1.581   5.732  12.953  0.5326  0.0101  0.1430
16023TIP3    H269561   1.669   5.849  12.912  1.6303 -1.2845 -1.2962
16024TIP3   OH269562   4.915   6.512   3.736 -0.0906 -0.4040 -0.0455
16024TIP3    H169563   4.846   6.490   3.800  1.5980 -0.5652  1.8212
16024TIP3    H269564   4.905   6.606   3.723  0.7670  0.0318  2.0828
16025TIP3   OH269565   2.954   5.554   0.826 -0.1480  0.2143 -0.0047
16025TIP3    H169566   2.994   5.587   0.906 -1.3903 -0.4333  0.9066
16025TIP3    H269567   2.868   5.522   0.853 -1.7059  2.3466 -2.0268
16026TIP3   OH269568   4.259   4.582   1.828  0.3513  0.1157  0.1208
16026TIP3    H169569   4.286   4.641   1.757 -0.5439  1.5417  0.9277
16026TIP3    H269570   4.318   4.602   1.900  0.8017 -0.8390  0.0452
16027TIP3   OH269571   4.111   3.760  16.513  0.6924 -0.0162  0.2504
16027TIP3    H169572   4.161   3.838  16.485 -0.4592  1.1200  1.2304
16027TIP3    H269573   4.102   3.770  16.607 -0.8102 -0.5300  0.1827
16028TIP3   OH269574   6.280   4.002  12.753  0.2025  0.1767  0.3748
16028TIP3    H169575   6.278   4.059  12.829 -0.7628  0.5104  0.1118
16028TIP3    H269576   6.188   3.990  12.729  0.5011  0.4553 -1.0168
16029TIP3   OH269577   4.277   3.333   1.957 -0.2538 -0.1702 -0.0113
16029TIP3    H169578   4.363   3.367   1.931 -0.8720  0.2697 -1.5699
16029TIP3    H269579   4.224   3.412   1.973 -0.6669 -0.4315 -0.0797
16030TIP3   OH269580   2.957   4.963   5.570  0.8156 -0.0270 -0.3749
16030TIP3    H169581   3.026   4.909   5.610  1.0008  0.4925  0.0179
16030TIP3    H269582   2.878   4.910   5.579  1.3920 -1.2632 -2.1105
16031TIP3   OH269583   3.550   3.098   0.945  0.0290 -0.8668 -0.0510
16031TIP3    H169584   3.564   3.040   0.870  1.1922 -0.9724  0.2370
16031TIP3    H269585   3.631   3.092   0.996 -0.4618 -0.2283  0.8319
16032TIP3   OH269586   2.235   4.638   4.064 -0.5762 -0.3008  0.2632
16032TIP3    H169587   2.161   4.610   4.010 -1.6216 -0.6846  1.8303
16032TIP3    H269588   2.250   4.729   4.039 -0.4464 -0.7220 -1.2818
16033TIP3   OH269589   5.150   0.374  13.718 -0.6604 -0.3007 -0.3292
16033TIP3    H169590   5.193   0.331  13.792 -2.9018 -0.2408  1.1131
16033TIP3    H269591   5.063   0.398  13.751 -2.0909 -0.9916 -3.2502
16034TIP3   OH269592   1.058   3.954  15.210  1.1532 -0.1445  0.1441
16034TIP3    H169593   1.146   3.977  15.180  0.0168  2.7883 -1.3537
16034TIP3    H269594   1.021   3.900  15.140  1.5228 -0.8188  0.4651
16035TIP3   OH269595   5.372   4.231   1.415  0.6853 -0.6630  0.3356
16035TIP3    H169596   5.343   4.211   1.503  2.1077 -1.2898  0.6975
16035TIP3    H269597   5.459   4.269   1.426  0.2017  0.8835 -0.7026
16036TIP3   OH269598   0.213   6.677   4.616  0.3049 -0.0583  0.4887
16036TIP3    H169599   0.273   6.610   4.583  0.5298  0.5745 -0.4349
16036TIP3    H269600   0.156   6.630   4.677  0.2104 -1.1781 -0.4179
16037TIP3   OH269601   6.198   0.633   1.850 -0.0520 -0.1817 -0.3332
16037TIP3    H169602   6.138   0.593   1.914 -1.7097  2.5679 -0.0062
16037TIP3    H269603   6.225   0.560   1.794 -1.6697 -1.9927  1.0967
16038TIP3   OH269604   5.637   6.055  11.226  0.3214 -0.1590 -0.3698
16038TIP3    H169605   5.631   6.029  11.134  0.1693 -0.7271 -0.2057
16038TIP3    H269606   5.706   6.122  11.228  1.2803 -1.1100 -0.6940
16039TIP3   OH269607   1.370   2.624  13.120  0.1105  0.5657 -0.0027
16039TIP3    H169608   1.461   2.655  13.115 -0.1109  1.2774  0.2726
16039TIP3    H269609   1.377   2.537  13.158  0.8283 -0.1460 -1.6607
16040TIP3   OH269610   6.745   5.991   0.369  0.5781 -0.0228 -0.9337
16040TIP3    H169611   6.674   5.928   0.363  0.8485 -0.6169  1.3281
16040TIP3    H269612   6.824   5.937   0.375  0.8824  0.5296  0.1990
16041TIP3   OH269613   4.351   6.556  12.822 -0.1304  0.5370 -0.2589
16041TIP3    H169614   4.322   6.524  12.736  1.3191 -0.1446 -0.5326
16041TIP3    H269615   4.432   6.604  12.803  0.3462  0.1584  0.7493
16042TIP3   OH269616   0.445   1.774   3.004  0.7051  0.0258 -0.4766
16042TIP3    H169617   0.355   1.802   2.990  0.3868 -0.8095 -0.1855
16042TIP3    H269618   0.437   1.688   3.045  1.6252  0.2730  0.2660
16043TIP3   OH269619   3.833   5.353  15.971 -0.6671  0.2038  0.4965
16043TIP3    H169620   3.881   5.309  16.041  1.4225  1.4221 -0.0776
16043TIP3    H269621   3.894   5.355  15.897 -2.6708 -0.6796 -1.2744
16044TIP3   OH269622   5.889   1.839  12.376  0.0945  0.1709 -0.1637
16044TIP3    H169623   5.811   1.895  12.378 -1.1643 -1.5056 -0.6534
16044TIP3    H269624   5.937   1.869  12.298 -1.5199 -0.6098 -1.5221
16045TIP3   OH269625   2.743   5.630   4.151 -0.4945 -0.2133  0.3793
16045TIP3    H169626   2.811   5.667   4.207 -0.2944  0.2186 -0.1393
16045TIP3    H269627   2.689   5.578   4.210 -0.9814  1.1647  1.2057
16046TIP3   OH269628   3.350   6.053   6.348 -0.2438  0.2899 -0.1835
16046TIP3    H169629   3.294   5.982   6.318  0.9215 -0.6285 -0.2402
16046TIP3    H269630   3.422   6.056   6.285  0.3814  0.6668  0.5338
16047TIP3   OH269631   0.531   2.056   6.608 -0.2260 -0.1325 -0.7135
16047TIP3    H169632   0.544   2.130   6.668 -0.0057 -0.1130 -0.7819
16047TIP3    H269633   0.469   2.088   6.543 -0.9752 -0.3712 -0.1268
16048TIP3   OH269634   3.051   2.967   3.131  0.0046  0.2914  0.2976
16048TIP3    H169635   3.146   2.975   3.117  0.1986 -1.3977  0.4467
16048TIP3    H269636   3.043   2.919   3.213 -0.9361 -0.6905 -0.3394
16049TIP3   OH269637   0.598   1.558   6.410 -0.6190 -0.9190  0.2728
16049TIP3    H169638   0.611   1.586   6.319 -2.1475  0.1948  0.3672
16049TIP3    H269639   0.640   1.627   6.461  0.8395 -1.8843  0.4456
16050TIP3   OH269640   5.472   1.927  13.012  0.1201  0.1420  0.1874
16050TIP3    H169641   5.405   1.920  12.944  0.5739 -0.6656 -0.1811
16050TIP3    H269642   5.503   1.838  13.025 -0.2516  0.2017  1.7652
16051TIP3   OH269643   0.907   5.473  12.468 -0.0836  0.3917  0.5837
16051TIP3    H169644   0.895   5.378  12.467  0.0015  0.3824 -0.2107
16051TIP3    H269645   0.844   5.504  12.533 -0.7719 -0.1289  0.1888
16052TIP3   OH269646   4.910   2.526   2.255  0.1935  0.0951  0.2635
16052TIP3    H169647   4.857   2.451   2.281 -0.1118  0.6721  1.3610
16052TIP3    H269648   4.898   2.590   2.326  2.0570  0.3894  0.3494
16053TIP3   OH269649   2.591   2.627  12.713 -0.7653  0.0449  0.5600
16053TIP3    H169650   2.621   2.690  12.647 -1.9017  0.4425  0.3897
16053TIP3    H269651   2.652   2.553  12.705  0.3172  0.9234  0.4503
16054TIP3   OH269652   5.858   1.117  14.734  0.2427 -0.1979  0.7988
16054TIP3    H169653   5.861   1.212  14.733  0.9482 -0.1431  2.6744
16054TIP3    H269654   5.815   1.095  14.817  0.6193 -1.4964  0.6795
16055TIP3   OH269655   2.481   3.876   5.108 -0.5957 -0.3903  0.1542
16055TIP3    H169656   2.495   3.893   5.015  1.4221  0.1739  0.5303
16055TIP3    H269657   2.415   3.940   5.134 -0.6297 -0.0523 -0.7128
16056TIP3   OH269658   0.094   3.760  10.434 -0.0259 -0.5901  0.4904
16056TIP3    H169659   0.162   3.708  10.475 -0.8609 -3.1842 -1.1841
16056TIP3    H269660   0.141   3.827  10.384  1.1426 -0.6775  1.4343
16057TIP3   OH269661   0.136   5.864   3.008 -0.6141 -0.6613 -0.6038
16057TIP3    H169662   0.130   5.958   2.989  0.9792 -0.4071 -0.0077
16057TIP3    H269663   0.059   5.846   3.062 -0.0351  0.7262  0.7872
16058TIP3   OH269664   4.205   2.824   4.768 -0.3287  0.0823  0.4349
16058TIP3    H169665   4.241   2.858   4.686 -0.3125  0.9769  0.7968
16058TIP3    H269666   4.142   2.757   4.741 -0.9143  0.9235 -0.3569
16059TIP3   OH269667   5.475   5.508   2.474 -0.0107  0.6031 -0.4845
16059TIP3    H169668   5.381   5.493   2.481 -0.2604  2.2281 -0.1282
16059TIP3    H269669   5.492   5.583   2.531  1.5337  0.2338 -0.4193
16060TIP3   OH269670   3.698   3.196  12.953 -0.6379  0.1974  0.2934
16060TIP3    H169671   3.733   3.213  13.040  0.2401 -0.4847  0.0882
16060TIP3    H269672   3.645   3.117  12.963  1.4494 -1.3488 -0.2402
16061TIP3   OH269673   3.419   5.325   2.723  0.1037  0.8420 -0.1193
16061TIP3    H169674   3.372   5.404   2.698 -1.2077 -0.2730 -1.3158
16061TIP3    H269675   3.364   5.253   2.694  1.2183 -0.5454  1.0081
16062TIP3   OH269676   1.085   1.520  11.075  0.9311  0.5385 -1.1956
16062TIP3    H169677   1.092   1.614  11.090  0.9136  0.5331 -1.1539
16062TIP3    H269678   1.137   1.480  11.145 -1.5622  0.4013  0.7386
16063TIP3   OH269679   1.295   0.064   0.447 -0.6421  0.0342 -0.5499
16063TIP3    H169680   1.327   0.143   0.403 -0.3861  0.0702 -0.2986
16063TIP3    H269681   1.372   0.027   0.491 -0.8439 -0.1368 -0.3348
16064TIP3   OH269682   3.459   3.549   3.828  1.0556  0.2679  0.2176
16064TIP3    H169683   3.434   3.491   3.900  2.0696 -0.7864 -0.2448
16064TIP3    H269684   3.504   3.622   3.870  2.4338 -0.7713  0.6361
16065TIP3   OH269685   5.566   4.547  15.474  0.2462 -0.4567 -0.3107
16065TIP3    H169686   5.622   4.488  15.424 -0.7398  0.1972 -2.2578
16065TIP3    H269687   5.477   4.517  15.458 -0.4098  2.1549 -2.3831
16066TIP3   OH269688   2.025   6.411  16.816  0.2745  0.0174  0.0830
16066TIP3    H169689   2.045   6.500  16.847  2.0120 -0.1573 -0.4438
16066TIP3    H269690   1.964   6.377  16.881  0.2129  1.3078  0.7421
16067TIP3   OH269691   0.126   1.620  16.791 -0.1443 -0.2630  0.3538
16067TIP3    H169692   0.055   1.641  16.851 -0.0754  0.7937  0.0866
16067TIP3    H269693   0.166   1.541  16.827 -0.2564  0.2155  1.5598
16068TIP3   OH269694   3.290   0.903  14.349 -0.2580  0.2927  0.0084
16068TIP3    H169695   3.383   0.882  14.339 -0.1785  0.4615  0.3759
16068TIP3    H269696   3.268   0.952  14.270 -1.2405 -3.7682 -2.5142
16069TIP3   OH269697   5.462   1.179   6.092 -0.1799  0.2059 -0.4566
16069TIP3    H169698   5.552   1.155   6.113 -0.5149 -2.2272 -1.4751
16069TIP3    H269699   5.408   1.127   6.152 -0.9405 -0.9230 -2.0463
16070TIP3   OH269700   0.525   0.404  13.201 -0.4771  0.1197 -0.2379
16070TIP3    H169701   0.463   0.344  13.158  1.6318 -2.0461 -0.4876
16070TIP3    H269702   0.473   0.482  13.221 -3.2066 -1.4680 -0.6028
16071TIP3   OH269703   0.116   0.976  16.914  0.1455  0.1695 -0.4809
16071TIP3    H169704   0.197   0.951  16.960 -0.5261 -1.9280 -0.3496
16071TIP3    H269705   0.088   1.056  16.958  1.0827 -0.1873  0.8446
16072TIP3   OH269706   3.692   1.263   2.740 -0.4016  0.2776 -0.1245
16072TIP3    H169707   3.597   1.276   2.738 -0.5317 -0.5415  0.2174
16072TIP3    H269708   3.719   1.269   2.648 -1.0837 -1.4484 -0.4879
16073TIP3   OH269709   3.703   1.884   4.724 -0.4751 -0.5480  0.2330
16073TIP3    H169710   3.682   1.790   4.722 -2.1608 -0.2212  0.9408
16073TIP3    H269711   3.748   1.900   4.641 -3.2423 -1.3539 -1.5498
16074TIP3   OH269712   1.987   3.014   3.301 -0.5774  0.5024 -0.2161
16074TIP3    H169713   2.027   3.050   3.221  0.1261 -0.0812 -0.1417
16074TIP3    H269714   1.917   2.958   3.269 -0.6307  0.6697 -0.3982
16075TIP3   OH269715   0.196   6.433   1.360  0.0431  0.0858  0.1631
16075TIP3    H169716   0.196   6.518   1.317  0.9223  0.4508  0.8491
16075TIP3    H269717   0.180   6.452   1.452  1.1802 -0.3869  0.4795
16076TIP3   OH269718   0.382   1.312   6.347  0.6020 -0.0720 -0.3998
16076TIP3    H169719   0.377   1.391   6.293  2.2385  0.7977  0.6272
16076TIP3    H269720   0.360   1.341   6.435  0.8656 -0.8343 -0.0697
16077TIP3   OH269721   2.224   1.347   1.812 -0.5227 -0.4283 -0.2742
16077TIP3    H169722   2.207   1.392   1.729  0.6906 -0.3228 -0.4803
16077TIP3    H269723   2.181   1.401   1.878  2.6543  2.3693 -0.2259
16078TIP3   OH269724   4.628   0.437  12.662  0.1983  0.0356  0.5144
16078TIP3    H169725   4.538   0.410  12.646  0.3754 -1.1036  1.3018
16078TIP3    H269726   4.664   0.456  12.575  0.2545 -2.9971 -0.2118
16079TIP3   OH269727   3.251   5.314  12.209 -0.2903 -0.3309 -0.3043
16079TIP3    H169728   3.240   5.373  12.284  2.0380  0.2925 -0.3782
16079TIP3    H269729   3.203   5.235  12.233 -1.0381  0.4986  1.0596
16080TIP3   OH269730   1.818   6.768   0.779 -0.7782 -0.1147 -0.2415
16080TIP3    H169731   1.732   6.727   0.782 -1.4530  1.0744 -1.8678
16080TIP3    H269732   1.816   6.834   0.848 -1.7499  0.9013 -1.1999
16081TIP3   OH269733   4.068   6.178   5.766 -0.4475 -0.1219  0.4361
16081TIP3    H169734   4.034   6.122   5.697  0.3658 -2.4047  1.7850
16081TIP3    H269735   3.996   6.185   5.829 -0.5162  0.3076  0.3167
16082TIP3   OH269736   5.957   5.960  12.782  0.3446 -0.1199 -0.0007
16082TIP3    H169737   6.016   5.980  12.854 -1.0739 -0.0361  1.1742
16082TIP3    H269738   5.870   5.957  12.822 -0.3942 -0.7740 -1.5826
16083TIP3   OH269739   3.424   2.792  16.883 -0.8479  0.6248 -0.2806
16083TIP3    H169740   3.389   2.881  16.877 -0.3933  0.7406 -1.6253
16083TIP3    H269741   3.458   2.774  16.795  0.6328 -0.2308  0.4281
16084TIP3   OH269742   0.712   5.528   3.322  0.3147  0.2895  0.0766
16084TIP3    H169743   0.683   5.490   3.405  0.3067 -0.3861 -0.2302
16084TIP3    H269744   0.632   5.567   3.285  0.3135  0.5736  0.3723
16085TIP3   OH269745   5.951   0.346  16.676 -0.1622  0.3665 -0.2339
16085TIP3    H169746   5.934   0.411  16.745 -0.4157  2.9103 -2.5277
16085TIP3    H269747   5.881   0.359  16.613  0.7952 -0.9462 -1.6318
16086TIP3   OH269748   5.210   3.379  17.001  0.1321 -0.0107 -0.4019
16086TIP3    H169749   5.135   3.324  17.025  0.7251 -0.2327  1.0732
16086TIP3    H269750   5.178   3.469  17.011 -0.1381 -0.1041 -0.4331
16087TIP3   OH269751   0.599   2.030   3.272 -0.3479  0.0613 -0.0228
16087TIP3    H169752   0.635   1.973   3.204 -2.4067 -0.5515 -0.6871
16087TIP3    H269753   0.626   2.118   3.245 -0.2803 -0.2666 -1.0917
16088TIP3   OH269754   5.181   3.828  13.014 -0.3875 -0.1487  0.2258
16088TIP3    H169755   5.098   3.835  12.968 -0.3733  0.4050  0.2664
16088TIP3    H269756   5.158   3.803  13.103 -0.5687  0.6562  0.4116
16089TIP3   OH269757   1.222   1.906   0.343  0.7178  0.6191  0.5399
16089TIP3    H169758   1.249   1.943   0.427 -0.0060 -2.1614  2.0938
16089TIP3    H269759   1.126   1.903   0.349  0.6758  0.1980 -0.2970
16090TIP3   OH269760   0.775   2.064  13.106  0.6621 -0.2393  0.8165
16090TIP3    H169761   0.845   2.083  13.043  1.1625 -1.9716  0.8112
16090TIP3    H269762   0.697   2.053  13.051  1.0368 -1.4440  0.4976
16091TIP3   OH269763   2.312   5.153   3.483  0.1207  0.4488  0.0358
16091TIP3    H169764   2.255   5.202   3.543  0.0353  0.8102 -0.3366
16091TIP3    H269765   2.371   5.220   3.446  0.6109  0.1246  0.2123
16092TIP3   OH269766   2.556   2.027  10.760  0.1301  0.1999  0.2908
16092TIP3    H169767   2.637   2.024  10.711  1.5798 -1.2469  2.6056
16092TIP3    H269768   2.515   1.941  10.746 -0.3000  0.4034  0.2624
16093TIP3   OH269769   0.381   0.075   3.489 -0.1371  0.2272 -0.2391
16093TIP3    H169770   0.392   0.097   3.582  1.8176 -1.0141 -0.1053
16093TIP3    H269771   0.377  -0.021   3.488  0.9149  0.1679 -1.4920
16094TIP3   OH269772   5.125   1.495  16.790 -0.0761  0.2393  0.0840
16094TIP3    H169773   5.105   1.553  16.863  0.9253 -0.2438  0.7655
16094TIP3    H269774   5.075   1.415  16.807  0.6925 -0.1387  0.6298
16095TIP3   OH269775   1.518   3.877   5.375 -0.1865 -0.6025  0.6027
16095TIP3    H169776   1.485   3.788   5.365 -0.8491 -0.2101 -0.9889
16095TIP3    H269777   1.443   3.934   5.357  0.0995  0.3028  2.0612
16096TIP3   OH269778   3.939   1.539  10.601  0.1879 -0.0333  0.0958
16096TIP3    H169779   3.966   1.610  10.543 -0.0055 -0.2691 -0.2879
16096TIP3    H269780   3.852   1.563  10.630  0.7555  0.6879  1.2689
16097TIP3   OH269781   1.184   2.990  12.176  0.6316  0.0712 -0.5857
16097TIP3    H169782   1.255   3.043  12.140  1.2722  1.3511  2.2732
16097TIP3    H269783   1.143   3.046  12.241 -2.6122 -0.9012 -1.6090
16098TIP3   OH269784   5.745   5.673   1.095 -0.2197  0.1238  0.0713
16098TIP3    H169785   5.755   5.668   1.191  1.4824 -0.5414 -0.1081
16098TIP3    H269786   5.835   5.682   1.062 -0.8011  0.5784 -1.4675
16099TIP3   OH269787   6.691   0.516   5.238 -0.0002 -0.3480  0.2903
16099TIP3    H169788   6.703   0.432   5.283 -0.6006 -0.4426  0.2729
16099TIP3    H269789   6.758   0.573   5.278  0.0030 -0.6553  0.7385
16100TIP3   OH269790   1.564   2.946   2.930  0.1973  0.7540  0.6040
16100TIP3    H169791   1.545   2.969   3.021 -0.4257  2.7973  0.0110
16100TIP3    H269792   1.478   2.944   2.887  0.4678 -0.3614  0.0598
16101TIP3   OH269793   1.553   4.670   1.563  0.1733  0.1792 -0.8216
16101TIP3    H169794   1.605   4.620   1.500  0.3890 -2.4774  1.2694
16101TIP3    H269795   1.463   4.637   1.551  0.2541 -0.5213  0.3444
16102TIP3   OH269796   6.666   1.287   2.328  0.2799  0.1190 -0.2179
16102TIP3    H169797   6.671   1.335   2.411  0.6469  1.6822 -1.1208
16102TIP3    H269798   6.757   1.260   2.312  0.2767  0.1696 -0.3184
16103TIP3   OH269799   3.029   6.765  14.618  0.0949 -0.4904  0.1931
16103TIP3    H169800   3.023   6.846  14.668 -1.4628 -1.2056  1.2595
16103TIP3    H269801   2.977   6.781  14.539 -0.4614 -0.5280  0.5450
16104TIP3   OH269802   6.366   0.264   5.853  0.3710 -0.4064 -0.0006
16104TIP3    H169803   6.309   0.213   5.910  0.3170  0.1705  0.4692
16104TIP3    H269804   6.453   0.229   5.868  0.2980 -0.5410  0.1106
16105TIP3   OH269805   0.214   6.108  14.892 -0.7486 -0.1670 -0.4956
16105TIP3    H169806   0.192   6.201  14.886 -0.6704 -0.1745 -0.9102
16105TIP3    H269807   0.202   6.074  14.803 -1.4442 -0.7040 -0.2095
16106TIP3   OH269808   4.971   5.615   4.363 -0.4030 -0.5891  0.9276
16106TIP3    H169809   4.896   5.651   4.315  1.5536  0.1457 -1.8321
16106TIP3    H269810   4.946   5.526   4.385 -1.9528 -0.4737 -0.2328
16107TIP3   OH269811   2.547   3.782  16.740 -0.0769  0.5688 -0.4226
16107TIP3    H169812   2.457   3.808  16.718 -0.7480 -0.1813  1.2407
16107TIP3    H269813   2.572   3.841  16.810  0.1033 -0.2711  0.2353
16108TIP3   OH269814   1.669   6.662   4.140  0.6564 -0.2357  0.2995
16108TIP3    H169815   1.685   6.623   4.226  1.4444 -1.2744 -0.2877
16108TIP3    H269816   1.679   6.589   4.079  1.3460  0.7272 -0.7817
16109TIP3   OH269817   2.701   1.347   0.184  0.0506 -0.7599  0.3741
16109TIP3    H169818   2.778   1.404   0.186 -0.4786 -0.0343  0.5718
16109TIP3    H269819   2.701   1.304   0.270  0.6022 -1.2708  0.1234
16110TIP3   OH269820   6.356   5.627   5.194 -1.0074 -0.0200 -0.5754
16110TIP3    H169821   6.343   5.630   5.099 -1.4771  0.6451 -0.4987
16110TIP3    H269822   6.444   5.592   5.206  0.0449  2.2046 -1.3243
16111TIP3   OH269823   3.170   2.465  14.586  0.5154 -1.0059  0.1764
16111TIP3    H169824   3.148   2.453  14.494  1.1332 -0.8109 -0.0005
16111TIP3    H269825   3.086   2.456  14.632  0.0140  0.0170 -0.5065
16112TIP3   OH269826   5.110   6.361   0.132 -0.1061  0.1126 -0.3139
16112TIP3    H169827   5.162   6.281   0.121 -1.3098 -0.5343 -1.7060
16112TIP3    H269828   5.038   6.336   0.190  2.2150  1.6085  3.5869
16113TIP3   OH269829   2.044   6.677   2.769  0.2649  0.1380 -0.4745
16113TIP3    H169830   1.982   6.699   2.700  0.0716  1.2866  0.0493
16113TIP3    H269831   2.001   6.704   2.850  0.4466 -1.2739  0.1300
16114TIP3   OH269832   1.399   2.311   5.745  0.4318  0.4265 -0.0438
16114TIP3    H169833   1.440   2.234   5.784 -1.1267 -0.1472  0.5294
16114TIP3    H269834   1.393   2.374   5.817  0.5027  0.5908 -0.1807
16115TIP3   OH269835   5.850   6.745   1.747  0.9334  0.0169 -0.6292
16115TIP3    H169836   5.827   6.779   1.661 -0.2632 -0.3559 -0.4751
16115TIP3    H269837   5.875   6.654   1.731  3.0100  0.5866 -0.8820
16116TIP3   OH269838   5.023   1.285   1.806  0.3679 -0.5963 -0.3038
16116TIP3    H169839   5.077   1.271   1.884  1.8002 -0.6147 -1.2608
16116TIP3    H269840   5.074   1.345   1.752 -1.9418  1.8212  0.0444
16117TIP3   OH269841   3.145   6.200  11.867 -0.0864  0.1817  0.2627
16117TIP3    H169842   3.063   6.250  11.874 -1.2994 -1.7253  0.2376
16117TIP3    H269843   3.151   6.175  11.775 -1.0334 -2.1015  0.7542
16118TIP3   OH269844   2.193   2.924  15.980 -0.4002  0.0092  0.8410
16118TIP3    H169845   2.270   2.892  15.933 -0.9724  0.0298 -0.1300
16118TIP3    H269846   2.184   3.015  15.952  0.9043  0.9625  3.1750
16119TIP3   OH269847   4.118   0.885  13.951  0.0466 -0.5932 -0.2363
16119TIP3    H169848   4.066   0.963  13.932  0.7658 -0.2771 -1.0009
16119TIP3    H269849   4.169   0.909  14.029 -1.4817 -1.1826  0.9820
16120TIP3   OH269850   5.029   4.041  12.194 -0.4871 -0.6019  0.6755
16120TIP3    H169851   4.980   4.031  12.276 -0.8623 -0.1670  0.5124
16120TIP3    H269852   4.974   4.099  12.141 -0.0637 -0.5738  0.2635
16121TIP3   OH269853   2.618   3.722  11.051  0.3977 -0.7091  0.5157
16121TIP3    H169854   2.559   3.702  10.978 -1.4419 -1.8337  2.1976
16121TIP3    H269855   2.659   3.806  11.026  0.2100 -1.2587 -1.9559
16122TIP3   OH269856   4.956   0.905  12.929 -0.3776  0.1141 -0.0915
16122TIP3    H169857   4.871   0.912  12.886 -0.2349  1.7716 -0.1540
16122TIP3    H269858   4.978   0.995  12.954  0.7712 -0.4545  1.0657
16123TIP3   OH269859   0.183   0.928   1.847  0.0319 -0.5237  0.5358
16123TIP3    H169860   0.272   0.963   1.848 -0.0463 -0.3009 -0.0874
16123TIP3    H269861   0.184   0.859   1.913  1.2247 -1.9249 -0.8656
16124TIP3   OH269862   2.928   2.181  11.993  0.1263  0.0318  0.3457
16124TIP3    H169863   2.841   2.221  11.997  0.9147  2.1353 -1.1550
16124TIP3    H269864   2.976   2.219  12.066  0.1808 -0.0583  0.3574
16125TIP3   OH269865   1.774   6.793  11.810  0.6488 -0.3286 -0.0360
16125TIP3    H169866   1.859   6.751  11.800  1.1125  0.3627  0.7740
16125TIP3    H269867   1.795   6.881  11.843 -0.3741 -0.1153  0.0771
16126TIP3   OH269868   4.021   4.039   0.071  0.0958 -0.5197 -0.4861
16126TIP3    H169869   4.015   4.135   0.065  0.7093 -0.4051  0.4377
16126TIP3    H269870   4.107   4.018   0.035 -0.0774 -0.7322 -0.7720
16127TIP3   OH269871   5.318   5.550   3.131 -0.4332 -0.3245 -0.3883
16127TIP3    H169872   5.405   5.514   3.149 -0.0127  0.8541  0.0452
16127TIP3    H269873   5.261   5.510   3.197 -0.0211 -0.3628 -0.0494
16128TIP3   OH269874   6.538   4.132   6.033 -0.5557  0.0687  0.2221
16128TIP3    H169875   6.575   4.155   5.948 -0.1407  0.0937  0.4080
16128TIP3    H269876   6.448   4.166   6.029 -0.6335 -0.1825 -0.3102
16129TIP3   OH269877   6.672   2.566  15.650  0.4527  0.2326 -0.0897
16129TIP3    H169878   6.579   2.548  15.658  0.3756  1.0800  1.1806
16129TIP3    H269879   6.677   2.652  15.608  0.7965 -1.6290 -4.4531
16130TIP3   OH269880   1.302   0.543  12.340  0.1822 -0.1290 -0.3169
16130TIP3    H169881   1.274   0.462  12.297  0.6731  0.3559 -1.6113
16130TIP3    H269882   1.227   0.601  12.335  0.7360  0.5122 -2.0985
16131TIP3   OH269883   6.467   2.131  11.089  0.5070 -0.6383 -0.1475
16131TIP3    H169884   6.480   2.051  11.038  0.8248 -0.5378 -0.2300
16131TIP3    H269885   6.477   2.104  11.180  1.4980 -0.5339 -0.2154
16132TIP3   OH269886   3.351   4.180  11.583 -0.3541  0.5019 -0.1722
16132TIP3    H169887   3.386   4.124  11.651 -1.1673 -0.2351 -0.3456
16132TIP3    H269888   3.405   4.259  11.586  0.5909 -0.1587  0.2877
16133TIP3   OH269889   0.586   0.756  11.697 -0.0842 -0.3121  0.2952
16133TIP3    H169890   0.637   0.714  11.628 -1.6398 -0.3456 -0.8909
16133TIP3    H269891   0.623   0.844  11.705 -0.6135  0.1071 -1.4475
16134TIP3   OH269892   2.839   0.078  11.739 -0.1983  0.1057 -0.1566
16134TIP3    H169893   2.772   0.084  11.671 -0.6438  3.4942  0.4209
16134TIP3    H269894   2.790   0.054  11.818 -0.2301 -0.4165 -0.3320
16135TIP3   OH269895   0.113   1.485  16.536 -0.0567 -0.3656 -0.0606
16135TIP3    H169896   0.172   1.409  16.537 -0.4062 -0.6928  2.3774
16135TIP3    H269897   0.110   1.514  16.627 -1.4998  1.3656 -0.6030
16136TIP3   OH269898   3.273   3.669  15.028  0.0335  0.1916 -0.5939
16136TIP3    H169899   3.191   3.718  15.038  0.4264  0.7768 -0.1745
16136TIP3    H269900   3.247   3.577  15.037 -0.6177  0.3555 -0.7506
16137TIP3   OH269901   5.398   3.537  12.759  0.1376  0.3802 -0.2323
16137TIP3    H169902   5.487   3.533  12.723 -0.3747 -0.1095 -1.5204
16137TIP3    H269903   5.349   3.471  12.710 -0.8456  0.3626  0.7398
16138TIP3   OH269904   1.105   3.223  14.040 -0.6770  0.1475  0.6751
16138TIP3    H169905   1.155   3.209  14.121 -0.1050  0.4107  0.3685
16138TIP3    H269906   1.148   3.297  13.997  1.5510 -2.4006 -1.8428
16139TIP3   OH269907   4.754   6.504  12.858 -0.1572 -0.1064 -0.0241
16139TIP3    H169908   4.706   6.574  12.814  0.6972  0.2681 -0.3702
16139TIP3    H269909   4.809   6.465  12.790 -0.1198 -0.6724  0.3165
16140TIP3   OH269910   3.754   4.739  17.020 -0.1296 -0.4787  0.3714
16140TIP3    H169911   3.732   4.713  16.930  3.4407 -2.1672 -0.1802
16140TIP3    H269912   3.741   4.834  17.021 -1.5426 -0.6012 -1.5041
16141TIP3   OH269913   5.930   2.579  14.423  0.0319  0.3129  0.2972
16141TIP3    H169914   5.851   2.548  14.378 -1.5718  3.9842  0.1332
16141TIP3    H269915   5.897   2.638  14.491  2.6279  0.4982  1.5205
16142TIP3   OH269916   5.462   0.916   2.507  0.2998  0.3957  0.1238
16142TIP3    H169917   5.395   0.944   2.570 -0.9968 -1.1484 -0.4968
16142TIP3    H269918   5.414   0.906   2.424  1.6252  0.7381 -0.7148
16143TIP3   OH269919   4.098   4.840   4.454  0.5906  0.3706 -0.6700
16143TIP3    H169920   4.026   4.872   4.508  0.0337 -0.5096 -0.8576
16143TIP3    H269921   4.170   4.901   4.470 -0.5725  2.0328 -1.4625
16144TIP3   OH269922   0.358   5.128  13.164 -0.1533  0.1293  0.0193
16144TIP3    H169923   0.311   5.211  13.166  0.4737  0.4864  0.7220
16144TIP3    H269924   0.292   5.062  13.184 -0.7758  0.3823 -1.0933
16145TIP3   OH269925   5.399   6.350   2.861 -0.7748 -0.0251 -0.0735
16145TIP3    H169926   5.401   6.304   2.777 -0.6171 -1.7761  0.8281
16145TIP3    H269927   5.376   6.282   2.924 -1.1885  1.3168  1.2683
16146TIP3   OH269928   1.369   0.929  11.955 -0.2807  0.3804 -0.1262
16146TIP3    H169929   1.402   0.876  12.028  0.9268 -0.0485 -0.9566
16146TIP3    H269930   1.448   0.959  11.910 -1.0072  0.2420 -1.5417
16147TIP3   OH269931   1.513   1.363  15.213 -0.1174 -0.3181  0.6440
16147TIP3    H169932   1.434   1.394  15.169  0.2093  0.6774  0.7272
16147TIP3    H269933   1.516   1.414  15.295  0.7914 -0.0819  0.4743
16148TIP3   OH269934   6.476   3.597  11.636  0.4458  0.1920  0.2846
16148TIP3    H169935   6.391   3.555  11.623  0.9303 -0.4378 -1.0605
16148TIP3    H269936   6.456   3.676  11.687 -1.2475  1.0808 -1.5773
16149TIP3   OH269937   4.902   5.356   3.738  0.1146  0.1261  0.3518
16149TIP3    H169938   4.844   5.326   3.668 -2.2455  3.1640  0.7791
16149TIP3    H269939   4.945   5.276   3.769 -1.4886 -1.8607 -2.1031
16150TIP3   OH269940   1.006   6.477  14.978 -0.2813  0.4407  0.8405
16150TIP3    H169941   0.936   6.445  14.922  0.0227  0.4050  0.4728
16150TIP3    H269942   1.024   6.566  14.946  1.8753 -0.5688 -1.1086
16151TIP3   OH269943   4.274   3.442   2.366 -0.3792  0.0134  0.3015
16151TIP3    H169944   4.255   3.509   2.431 -2.3830 -0.4856  0.2851
16151TIP3    H269945   4.284   3.489   2.283  0.7628  0.5038  0.6947
16152TIP3   OH269946   6.158   3.300  12.023 -0.1792  0.7116  0.5433
16152TIP3    H169947   6.103   3.322  12.098 -1.6202  0.4898 -0.4123
16152TIP3    H269948   6.117   3.221  11.986  0.2673  1.0376 -0.6988
16153TIP3   OH269949   6.240   2.152  12.449  0.1351 -0.2920  0.3680
16153TIP3    H169950   6.272   2.126  12.363 -0.7644 -1.1495  0.2804
16153TIP3    H269951   6.153   2.187  12.432  0.1363 -0.0284  0.8859
16154TIP3   OH269952   2.071   3.248  17.094  0.2007 -0.3935 -0.3977
16154TIP3    H169953   2.020   3.278  17.019  0.8519  0.2980 -0.5805
16154TIP3    H269954   2.153   3.297  17.088 -0.2930  0.7703  1.5961
16155TIP3   OH269955   2.482   1.964   1.798 -0.4111 -0.1632 -0.1082
16155TIP3    H169956   2.483   1.990   1.706 -1.9930 -0.9527 -0.3784
16155TIP3    H269957   2.526   1.879   1.799 -0.6926 -0.3131 -0.2036
16156TIP3   OH269958   1.249   3.829  11.715  0.2024 -0.0826  0.1715
16156TIP3    H169959   1.337   3.836  11.677 -0.4776  1.0294 -1.3083
16156TIP3    H269960   1.215   3.746  11.681  0.2890  0.0163 -0.1636
16157TIP3   OH269961   4.880   5.421  11.616 -0.0289  0.1007  0.0759
16157TIP3    H169962   4.889   5.490  11.681  1.4231  1.1181 -1.1178
16157TIP3    H269963   4.961   5.370  11.624 -0.1542 -0.1869 -0.4347
16158TIP3   OH269964   4.018   0.036   4.009 -0.0995  0.3606  0.0197
16158TIP3    H169965   4.102   0.048   3.964  0.5518 -0.4285  0.9706
16158TIP3    H269966   4.011   0.112   4.067  0.3934  0.0135  0.5575
16159TIP3   OH269967   5.679   4.292  11.625  0.0265 -0.1513 -0.3469
16159TIP3    H169968   5.587   4.318  11.631  0.3022  0.9582 -0.7081
16159TIP3    H269969   5.703   4.267  11.714 -0.3250  0.6306 -0.0253
16160TIP3   OH269970   1.260   0.318   2.263 -0.2674  0.0005 -0.1694
16160TIP3    H169971   1.226   0.247   2.318 -0.4597  0.4340  0.2776
16160TIP3    H269972   1.274   0.391   2.324 -0.3105  0.4288 -0.6656
16161TIP3   OH269973   0.849   4.966  12.103  0.5228 -0.2229  0.1511
16161TIP3    H169974   0.756   4.990  12.100  0.9576  1.6313  0.1092
16161TIP3    H269975   0.881   4.985  12.014  1.0194 -0.4853  0.2717
16162TIP3   OH269976   1.625   3.080   0.656 -0.4773 -0.2608 -0.0372
16162TIP3    H169977   1.685   3.034   0.597  0.4458  0.0754  0.6235
16162TIP3    H269978   1.550   3.022   0.664 -0.7471 -0.2183 -1.7343
16163TIP3   OH269979   2.866   6.372  11.446  0.5918 -0.1578 -0.7678
16163TIP3    H169980   2.893   6.464  11.440 -1.0092  0.3425 -0.5739
16163TIP3    H269981   2.777   6.375  11.481  0.9163 -1.8475  0.2983
16164TIP3   OH269982   4.410   5.038   1.857 -0.1458 -0.5413  0.0268
16164TIP3    H169983   4.361   4.971   1.904  1.5488 -1.2994  0.7812
16164TIP3    H269984   4.453   5.089   1.926 -0.7940  0.8717 -0.5657
16165TIP3   OH269985   5.776   4.014  13.744 -0.4725 -0.6531  0.4007
16165TIP3    H169986   5.855   3.970  13.774 -0.7394 -1.1402  0.3968
16165TIP3    H269987   5.792   4.034  13.652  0.4511  1.0709  0.8995
16166TIP3   OH269988   4.983   3.304   2.619  0.1465  0.2937 -0.0697
16166TIP3    H169989   4.954   3.225   2.573 -0.9028  0.4787  0.2435
16166TIP3    H269990   4.906   3.361   2.618  1.0293  1.4970 -0.6706
16167TIP3   OH269991   5.909   0.483   5.417  0.2795  0.0859 -0.9788
16167TIP3    H169992   5.826   0.525   5.394 -0.0962  0.2188  0.5226
16167TIP3    H269993   5.920   0.501   5.510  0.3742 -2.6929 -0.3780
16168TIP3   OH269994   6.707   6.268  13.511 -0.4633  0.4130 -0.3643
16168TIP3    H169995   6.763   6.278  13.588 -1.4645 -1.5920  0.7055
16168TIP3    H269996   6.672   6.356  13.495  0.3819  1.0240  0.9539
16169TIP3   OH269997   1.260   5.740  11.565  0.1583 -0.5326  0.5903
16169TIP3    H169998   1.332   5.677  11.555  2.6329  2.1164  0.1666
16169TIP3    H269999   1.290   5.817  11.517 -2.3869  1.2167  1.6180
16170TIP3   OH270000   3.368   2.002   0.642  0.1200 -0.2949 -0.0099
16170TIP3    H170001   3.342   2.025   0.732 -0.9213 -0.8802 -0.1520
16170TIP3    H270002   3.368   2.086   0.596 -3.8931 -0.4042 -0.5782
16171TIP3   OH270003   0.079   3.838  11.962 -0.6575 -0.2084  0.4383
16171TIP3    H170004   0.078   3.894  11.884  0.2108 -0.2891  0.3578
16171TIP3    H270005  -0.013   3.833  11.989 -1.1380 -1.0724 -1.2134
16172TIP3   OH270006   4.264   2.519   6.015 -0.5295  0.2056 -0.1879
16172TIP3    H170007   4.182   2.472   6.000  0.1142 -1.2578  0.6704
16172TIP3    H270008   4.242   2.586   6.079 -1.3620  0.8179 -1.0753
16173TIP3   OH270009   1.539   2.891  11.235  0.6273  0.4307 -0.1311
16173TIP3    H170010   1.581   2.841  11.305  0.4885  1.6818  0.8835
16173TIP3    H270011   1.535   2.981  11.269 -4.1214  0.2242  0.5030
16174TIP3   OH270012   5.596   4.517  15.829 -0.1073 -0.0186 -0.3922
16174TIP3    H170013   5.543   4.471  15.894 -0.0328  0.0037 -0.3156
16174TIP3    H270014   5.534   4.572  15.782  0.0408  0.9233  0.4997
16175TIP3   OH270015   3.988   6.399   5.153  0.5005 -0.0866 -0.2038
16175TIP3    H170016   3.963   6.462   5.221 -0.3515  0.4155 -0.9526
16175TIP3    H270017   3.972   6.445   5.071  1.1186 -0.8303 -0.7587
16176TIP3   OH270018   1.556   6.603   6.157  0.1022 -0.0054 -0.4164
16176TIP3    H170019   1.569   6.567   6.069 -0.6885 -0.4961 -0.3484
16176TIP3    H270020   1.478   6.557   6.190  0.3897  0.1703  0.5390
16177TIP3   OH270021   2.785   0.793  12.311 -0.4110 -0.0730 -0.2234
16177TIP3    H170022   2.830   0.874  12.339 -0.8098  0.0713  0.0040
16177TIP3    H270023   2.809   0.784  12.219  1.4476 -0.8922  0.2785
16178TIP3   OH270024   4.823   0.633   6.580  0.1676  0.1450  0.3561
16178TIP3    H170025   4.876   0.557   6.601  0.6678  1.1726  3.3444
16178TIP3    H270026   4.862   0.668   6.499  0.6617 -2.0228 -0.4053
16179TIP3   OH270027   2.551   4.264   3.436 -0.3419 -0.0034 -0.3563
16179TIP3    H170028   2.567   4.205   3.509 -1.4692  0.9186  0.6734
16179TIP3    H270029   2.466   4.238   3.402 -1.0587  1.2602  0.3904
16180TIP3   OH270030   1.833   0.935   1.353  0.4654  0.1115  0.0742
16180TIP3    H170031   1.834   0.966   1.444 -2.9101  0.3067  0.1481
16180TIP3    H270032   1.781   0.855   1.355  1.0459 -0.3555 -1.5950
16181TIP3   OH270033   2.889   1.809  13.252  0.0783  0.3127  1.1194
16181TIP3    H170034   2.975   1.789  13.215 -0.5369 -2.6265  1.0686
16181TIP3    H270035   2.908   1.858  13.332  1.7140  0.9383  0.3850
16182TIP3   OH270036   4.679   0.110   2.691  0.2007  0.0461 -0.3106
16182TIP3    H170037   4.674   0.139   2.783 -0.0002 -2.2315  0.4493
16182TIP3    H270038   4.772   0.094   2.676  0.0371 -1.3450  0.0980
16183TIP3   OH270039   1.032   2.063   2.467 -0.0366  0.0836  0.4835
16183TIP3    H170040   1.049   2.002   2.396 -1.6843 -1.4868  1.3566
16183TIP3    H270041   1.103   2.127   2.462  0.0203 -0.0902 -2.4069
16184TIP3   OH270042   4.730   2.913  15.330 -0.2017  0.0163 -0.1940
16184TIP3    H170043   4.690   2.861  15.260 -0.0964 -0.5930  0.1850
16184TIP3    H270044   4.824   2.897  15.320  0.0699  2.1804 -1.6652
16185TIP3   OH270045   0.182   1.709   3.253  0.6478  0.1123  0.1288
16185TIP3    H170046   0.087   1.713   3.248  0.6250 -0.3947  0.1143
16185TIP3    H270047   0.212   1.728   3.164  0.5347 -0.4496 -0.0313
16186TIP3   OH270048   3.901   0.160   0.042  0.1994  0.4545 -0.4860
16186TIP3    H170049   3.846   0.145   0.120  0.3336  0.7777 -0.3268
16186TIP3    H270050   3.885   0.252   0.019 -0.0589  0.2855 -1.0146
16187TIP3   OH270051   3.466   3.551  10.752  0.4674  0.2365 -0.8316
16187TIP3    H170052   3.501   3.627  10.707 -0.4766  0.1278 -1.8164
16187TIP3    H270053   3.386   3.583  10.795 -1.4372 -0.6481 -3.4257
16188TIP3   OH270054   0.021   5.783   3.495 -0.7710 -0.1765  0.0155
16188TIP3    H170055   0.116   5.780   3.506 -0.7538 -0.2460 -0.1548
16188TIP3    H270056  -0.001   5.875   3.503 -0.4916  0.0593 -1.5982
16189TIP3   OH270057   2.083   4.418  16.750 -0.8398  0.6841 -1.0286
16189TIP3    H170058   2.030   4.388  16.823  0.3797 -1.3953 -0.9212
16189TIP3    H270059   2.122   4.500  16.780 -2.3997  1.2115 -0.3821
16190TIP3   OH270060   3.172   3.989   4.424  0.0639  0.3424  0.1939
16190TIP3    H170061   3.247   3.959   4.475 -0.8938 -0.5101  1.1702
16190TIP3    H270062   3.190   4.081   4.406  1.0841  0.2895  0.8743
16191TIP3   OH270063   3.592   1.409  12.472  0.4289  0.8351  0.3915
16191TIP3    H170064   3.645   1.464  12.530  0.5723 -2.2533  3.5475
16191TIP3    H270065   3.644   1.330  12.459 -1.5755 -0.4855 -0.0844
16192TIP3   OH270066   0.376   1.389   0.517  0.1862  0.1653 -0.5015
16192TIP3    H170067   0.428   1.440   0.580 -0.6422 -2.5002  2.6413
16192TIP3    H270068   0.437   1.325   0.482  0.2953  0.7351 -1.4042
16193TIP3   OH270069   3.122   3.236   3.465  0.1028  0.1975  0.0931
16193TIP3    H170070   3.156   3.152   3.494 -0.6241 -0.7922 -1.7491
16193TIP3    H270071   3.177   3.301   3.509  2.4764 -1.2834 -0.5082
16194TIP3   OH270072   6.025   4.557  14.742 -0.5626 -0.0735 -0.0638
16194TIP3    H170073   6.063   4.516  14.664 -1.1699 -1.5417  0.3861
16194TIP3    H270074   5.952   4.500  14.766 -0.9817  0.8863  1.0241
16195TIP3   OH270075   0.667   0.001   3.565 -0.1604  0.0612  0.8814
16195TIP3    H170076   0.684  -0.003   3.659 -2.4619 -0.6347  1.3359
16195TIP3    H270077   0.571   0.003   3.558 -0.1397 -1.9113 -1.4940
16196TIP3   OH270078   3.060   6.118  10.361 -0.2865  0.1313  0.9910
16196TIP3    H170079   3.144   6.097  10.401  1.1511  0.1823 -1.7142
16196TIP3    H270080   2.996   6.104  10.430  1.9058 -0.1049  3.1196
16197TIP3   OH270081   1.230   1.301  11.822  0.6054 -0.2897  0.1980
16197TIP3    H170082   1.299   1.367  11.834  1.5491 -1.2748  0.2919
16197TIP3    H270083   1.189   1.295  11.909  0.2287  0.4524  0.0886
16198TIP3   OH270084   4.863   5.120  16.184 -0.0859 -0.2491 -0.3538
16198TIP3    H170085   4.828   5.059  16.119  0.0725 -0.4880 -0.2176
16198TIP3    H270086   4.821   5.203  16.164  1.6362  0.2473 -2.2251
16199TIP3   OH270087   1.888   5.951  13.520  0.3566 -0.0683 -0.1798
16199TIP3    H170088   1.856   5.918  13.437  2.5952  1.2220 -1.6800
16199TIP3    H270089   1.944   6.025  13.496 -0.2959  1.4825  2.6149
16200TIP3   OH270090   4.899   5.989  13.993 -0.4471 -0.2197  0.0696
16200TIP3    H170091   4.829   6.052  14.006 -0.4621 -0.1096 -0.5062
16200TIP3    H270092   4.966   6.037  13.945 -0.0259 -0.3579  0.5091
16201TIP3   OH270093   5.172   1.900  16.568  1.2168 -0.4836 -0.8947
16201TIP3    H170094   5.248   1.856  16.605  1.4161  0.2427 -0.4077
16201TIP3    H270095   5.186   1.993  16.588 -0.5037 -0.4707  0.5506
16202TIP3   OH270096   3.764   1.575  15.148 -0.0261  0.7358  0.4881
16202TIP3    H170097   3.807   1.644  15.199  3.1738  0.9567 -2.1978
16202TIP3    H270098   3.692   1.620  15.102 -0.8988  1.1938  2.2119
16203TIP3   OH270099   6.537   3.607  11.982  0.8122  0.1325 -0.2026
16203TIP3    H170100   6.498   3.577  12.064  1.2814 -0.3324 -0.1415
16203TIP3    H270101   6.467   3.655  11.938 -0.2576 -1.7423 -0.6872
16204TIP3   OH270102   2.448   5.280  15.162  0.2490  0.5381 -0.4818
16204TIP3    H170103   2.529   5.251  15.203 -0.0070  0.5372  0.0359
16204TIP3    H270104   2.403   5.329  15.231  0.0511  0.9836 -0.9252
16205TIP3   OH270105   3.419   6.643  13.157 -0.5208 -0.3541 -0.1416
16205TIP3    H170106   3.342   6.590  13.178 -0.1365 -1.7332 -1.9968
16205TIP3    H270107   3.478   6.630  13.232 -1.8121  0.2494  1.0186
16206TIP3   OH270108   4.483   3.903   2.987  0.1582 -0.3084  0.3892
16206TIP3    H170109   4.535   3.898   3.068 -0.0954 -0.7982  0.5248
16206TIP3    H270110   4.539   3.951   2.926  0.8763 -1.0320  0.4555
16207TIP3   OH270111   4.925   5.223   4.869  0.8268  0.4056 -0.7014
16207TIP3    H170112   4.878   5.290   4.820  1.3536  0.6241 -0.9156
16207TIP3    H270113   4.881   5.141   4.846  1.5621  0.3939 -2.1872
16208TIP3   OH270114   6.855   3.313   5.787 -0.0507 -0.0906  0.0838
16208TIP3    H170115   6.949   3.310   5.802  0.0636 -3.1708 -0.6654
16208TIP3    H270116   6.819   3.246   5.846 -1.4988 -0.5573 -1.2603
16209TIP3   OH270117   3.529   5.371  10.957 -0.2096  1.0107  0.0630
16209TIP3    H170118   3.578   5.396  11.035 -0.8508 -0.1953  0.8952
16209TIP3    H270119   3.566   5.424  10.887  1.8468  0.5903  0.7680
16210TIP3   OH270120   2.960   5.991   3.188  0.1285 -0.3041 -0.0952
16210TIP3    H170121   2.964   6.086   3.190 -0.1875 -0.2944  0.2915
16210TIP3    H270122   3.045   5.964   3.155  0.6348  0.0862  0.8347
16211TIP3   OH270123   2.352   3.184  13.849 -0.2330  0.0656  0.4811
16211TIP3    H170124   2.426   3.199  13.908 -0.2229 -0.2187  0.5442
16211TIP3    H270125   2.344   3.264  13.798  0.4276 -0.0867  0.1352
16212TIP3   OH270126   4.341   4.958   4.479 -0.1311 -0.0519  0.1975
16212TIP3    H170127   4.432   4.987   4.477  0.4090 -1.6078  0.7357
16212TIP3    H270128   4.345   4.868   4.512 -1.7094 -0.7168 -1.2871
16213TIP3   OH270129   2.657   4.842   2.677  0.0010 -0.0163 -0.2457
16213TIP3    H170130   2.616   4.880   2.754  0.8750  1.0381 -0.2747
16213TIP3    H270131   2.623   4.752   2.673 -1.5128  0.5106  0.2662
16214TIP3   OH270132   5.419   6.223  14.162  0.2078 -0.2337  0.0041
16214TIP3    H170133   5.398   6.166  14.088  1.2144 -1.3194  0.5241
16214TIP3    H270134   5.508   6.254  14.145  0.0645  0.3407  0.2604
16215TIP3   OH270135   0.029   0.620   5.408  0.3295  0.5494 -0.3440
16215TIP3    H170136   0.002   0.562   5.480  0.5838  0.6469 -0.1682
16215TIP3    H270137   0.112   0.582   5.378  0.1977  0.4799 -0.6203
16216TIP3   OH270138   1.484   0.475   4.227  0.2139  0.0316 -0.0620
16216TIP3    H170139   1.429   0.399   4.248  0.7908 -0.3865 -0.0280
16216TIP3    H270140   1.428   0.551   4.243 -0.2564 -0.3784  0.2602
16217TIP3   OH270141   0.530   2.147   4.848 -0.3936 -0.0208 -0.5012
16217TIP3    H170142   0.624   2.160   4.844 -0.0515  1.7567  4.9221
16217TIP3    H270143   0.493   2.223   4.802  0.9734  1.1442  0.2506
16218TIP3   OH270144   1.005   0.916  10.914 -0.2213  0.7755  0.4457
16218TIP3    H170145   1.077   0.971  10.883  0.3843  0.3760  1.1105
16218TIP3    H270146   0.975   0.869  10.836  2.0618 -1.1367  0.5880
16219TIP3   OH270147   5.157   3.546  14.416 -0.1193 -0.1484  0.1840
16219TIP3    H170148   5.110   3.579  14.339 -1.2574 -0.7057  0.6144
16219TIP3    H270149   5.246   3.581  14.407 -0.8481  1.7388 -0.1679
16220TIP3   OH270150   2.063   3.118  13.843  0.2042 -0.2634  0.0203
16220TIP3    H170151   2.155   3.144  13.850  0.4040 -0.6287 -1.1512
16220TIP3    H270152   2.019   3.194  13.804 -0.0523 -0.0078  0.7717
16221TIP3   OH270153   3.288   5.893  16.418 -0.3721  0.0217 -0.0193
16221TIP3    H170154   3.305   5.950  16.493  1.3661  2.1906 -1.9057
16221TIP3    H270155   3.264   5.809  16.456  1.4500  0.7214  2.9660
16222TIP3   OH270156   2.806   5.583  12.675  0.1604  0.1813 -0.1548
16222TIP3    H170157   2.754   5.549  12.748 -0.6471  2.4410  0.4084
16222TIP3    H270158   2.890   5.606  12.714  0.5116 -0.6244 -0.4193
16223TIP3   OH270159   2.293   3.796  16.400 -0.5829 -0.0041  0.3363
16223TIP3    H170160   2.364   3.852  16.371 -0.6409 -0.9243 -1.7483
16223TIP3    H270161   2.337   3.720  16.438 -0.5077  0.7119  1.7585
16224TIP3   OH270162   6.642   2.449   3.254  0.7101  0.2590 -0.2078
16224TIP3    H170163   6.627   2.533   3.211 -0.2315  0.1465 -0.1193
16224TIP3    H270164   6.681   2.472   3.338  0.6420  0.5990 -0.2653
16225TIP3   OH270165   3.060   0.767  11.869  0.0104  0.0613 -0.8630
16225TIP3    H170166   3.096   0.853  11.844  0.5368 -0.1680 -0.8986
16225TIP3    H270167   3.050   0.721  11.786 -1.3268  0.4819 -0.9619
16226TIP3   OH270168   3.634   2.917   0.741  0.2949 -0.0833  0.6128
16226TIP3    H170169   3.685   2.972   0.682 -0.9879  1.6391  1.0223
16226TIP3    H270170   3.700   2.868   0.790  1.5607  1.6797  0.7865
16227TIP3   OH270171   6.391   1.006  16.063  0.2875  0.2537 -0.1037
16227TIP3    H170172   6.301   0.997  16.032 -0.8817  2.4261  2.2107
16227TIP3    H270173   6.385   0.991  16.158  2.2676  0.9122  0.1797
16228TIP3   OH270174   1.848   0.708   4.766 -0.3384  0.3358  0.3323
16228TIP3    H170175   1.792   0.748   4.699 -0.0899 -0.7214 -0.5170
16228TIP3    H270176   1.877   0.625   4.728 -0.0716 -0.2237  1.6865
16229TIP3   OH270177   1.863   3.754  16.307 -0.6156 -0.1125 -0.1583
16229TIP3    H170178   1.937   3.722  16.255 -0.2250  2.0445 -1.0399
16229TIP3    H270179   1.786   3.730  16.256 -0.2842  1.1503 -1.3119
16230TIP3   OH270180   3.065   2.786   0.152 -0.0093 -0.2100  0.7381
16230TIP3    H170181   3.124   2.861   0.155 -0.7276  0.5258 -1.3605
16230TIP3    H270182   3.123   2.710   0.157  1.0193  0.4940  0.0457
16231TIP3   OH270183   5.618   6.606   5.823 -0.4179  0.1604 -0.7111
16231TIP3    H170184   5.693   6.549   5.842 -0.1424  1.0681  1.0979
16231TIP3    H270185   5.562   6.597   5.900 -0.6082  1.9344 -0.6116
16232TIP3   OH270186   3.118   1.098   4.907 -0.7563 -0.2255  0.1255
16232TIP3    H170187   3.064   1.122   4.983 -3.0319 -0.9818 -1.1519
16232TIP3    H270188   3.134   1.181   4.863  0.3717  0.1894  1.2418
16233TIP3   OH270189   2.787   4.198  14.421 -0.1927  0.4754 -0.1419
16233TIP3    H170190   2.870   4.213  14.467  0.5560 -0.7888 -1.0251
16233TIP3    H270191   2.808   4.135  14.353 -1.7350  0.7175 -0.8894
16234TIP3   OH270192   5.933   5.806  14.737 -0.2927 -0.0181 -0.6949
16234TIP3    H170193   5.942   5.813  14.832 -1.9069  1.1177 -0.5916
16234TIP3    H270194   6.023   5.815  14.704  0.3547 -0.9136  0.7200
16235TIP3   OH270195   6.346   2.164   1.160  0.4158  0.2916 -0.9555
16235TIP3    H170196   6.431   2.158   1.205  0.6211  0.1112 -1.3554
16235TIP3    H270197   6.312   2.250   1.183  1.2661  0.8681 -1.7494
16236TIP3   OH270198   6.548   5.254   2.244 -0.3831  0.5317 -0.0866
16236TIP3    H170199   6.559   5.159   2.248  0.6596  0.6656  1.0834
16236TIP3    H270200   6.483   5.274   2.311 -0.3448  0.6684 -0.0886
16237TIP3   OH270201   1.517   5.654  13.191  0.1559  0.1593  0.3294
16237TIP3    H170202   1.488   5.638  13.280 -0.3906 -0.1594  0.1005
16237TIP3    H270203   1.480   5.582  13.140  1.5107 -0.3661  0.0436
16238TIP3   OH270204   4.324   3.056  14.694  0.3907 -0.1104  0.0353
16238TIP3    H170205   4.278   2.975  14.713  2.1465 -1.0371  0.5553
16238TIP3    H270206   4.311   3.110  14.772  0.8525 -0.7058  0.5359
16239TIP3   OH270207   0.281   4.765   0.855 -0.1401  0.4984 -0.3586
16239TIP3    H170208   0.319   4.783   0.941  1.2181  2.3910 -1.2744
16239TIP3    H270209   0.276   4.669   0.850 -0.4190  0.3474  1.8553
16240TIP3   OH270210   2.406   2.422  11.110 -0.3535 -0.2056  0.4555
16240TIP3    H170211   2.414   2.386  11.198 -1.1597 -1.3593  0.0883
16240TIP3    H270212   2.315   2.451  11.104  0.1680  1.6255  0.6058
16241TIP3   OH270213   3.212   1.516  16.701  0.1481 -0.0502  0.2761
16241TIP3    H170214   3.225   1.524  16.796 -0.9909 -1.2985  0.5788
16241TIP3    H270215   3.118   1.531  16.688  0.1145 -0.8449 -0.5121
16242TIP3   OH270216   4.597   5.401   5.053 -0.4066  0.4133 -0.1364
16242TIP3    H170217   4.666   5.467   5.042 -0.8873  1.3037  1.8097
16242TIP3    H270218   4.643   5.317   5.051  0.8585  1.0073  1.5498
16243TIP3   OH270219   0.590   0.142   2.842  0.1695 -0.3414 -0.2739
16243TIP3    H170220   0.663   0.182   2.888 -1.1849  1.0040  0.8217
16243TIP3    H270221   0.560   0.210   2.781 -0.7604 -0.4988 -0.0127
16244TIP3   OH270222   3.506   4.156   4.315 -0.1718 -0.2421 -0.0728
16244TIP3    H170223   3.594   4.148   4.352  0.1480  0.8092 -0.5478
16244TIP3    H270224   3.467   4.229   4.362 -0.2736  0.1868 -0.7965
16245TIP3   OH270225   1.878   5.232   3.992 -0.8215 -0.0007 -0.9154
16245TIP3    H170226   1.832   5.193   3.917 -0.8225 -1.3098 -0.2566
16245TIP3    H270227   1.812   5.289   4.033 -1.5300 -1.0045 -0.6230
16246TIP3   OH270228   0.665   6.383  12.270  0.3857  0.0337 -0.2427
16246TIP3    H170229   0.751   6.405  12.234  0.7680 -1.1018 -0.0695
16246TIP3    H270230   0.611   6.364  12.194  0.2338  0.8613 -0.3589
16247TIP3   OH270231   1.159   3.291   6.966 -0.4422 -0.1714 -0.1690
16247TIP3    H170232   1.178   3.268   6.874 -0.3294  0.2983 -0.2620
16247TIP3    H270233   1.087   3.232   6.990  1.5066 -2.5084  0.4109
16248TIP3   OH270234   2.380   3.879  15.358  0.1559 -0.6639  0.1349
16248TIP3    H170235   2.426   3.962  15.346 -0.6744  0.0180  1.3205
16248TIP3    H270236   2.449   3.814  15.369  0.8213 -0.0823 -0.5498
16249TIP3   OH270237   5.718   1.601  16.995 -0.1989  0.0306  0.3310
16249TIP3    H170238   5.674   1.664  16.938 -2.4514 -0.6116  1.2579
16249TIP3    H270239   5.705   1.516  16.953  2.5127  0.0432 -0.7272
16250TIP3   OH270240   1.509   2.990  14.360 -0.0201 -0.1211  0.0928
16250TIP3    H170241   1.482   3.004  14.269  0.7905  1.7171  0.0843
16250TIP3    H270242   1.522   3.079  14.395 -1.7984 -0.7101  2.4848
16251TIP3   OH270243   3.301   1.395  12.112 -0.3738  0.1717  0.5959
16251TIP3    H170244   3.330   1.312  12.150  2.5259 -0.2621 -2.1384
16251TIP3    H270245   3.211   1.378  12.084 -0.2375 -1.6886  1.1319
16252TIP3   OH270246   3.932   4.079  11.752 -0.1141  0.1244  0.1187
16252TIP3    H170247   4.022   4.059  11.776 -0.0798  0.3644  0.1852
16252TIP3    H270248   3.929   4.064  11.658 -0.4197 -1.4941  0.3450
16253TIP3   OH270249   6.346   2.275  12.019  0.0944  0.2824  0.2788
16253TIP3    H170250   6.270   2.330  12.036 -0.3077 -0.2568  0.2382
16253TIP3    H270251   6.418   2.337  12.006 -0.7299  0.8760 -1.7266
16254TIP3   OH270252   6.163   6.423  12.914  0.4195 -0.4642  0.3996
16254TIP3    H170253   6.238   6.473  12.946 -1.1909  1.9359  0.6757
16254TIP3    H270254   6.102   6.421  12.988 -0.9051  0.0409 -0.6296
16255TIP3   OH270255   1.332   0.664  11.104 -0.2772 -0.6309  0.3107
16255TIP3    H170256   1.265   0.716  11.060  0.5848  1.0560  0.9154
16255TIP3    H270257   1.295   0.576  11.109 -4.0397  0.8152  3.6046
16256TIP3   OH270258   5.385   1.873  15.587 -0.0726 -0.2107 -0.0248
16256TIP3    H170259   5.401   1.844  15.677 -1.0893 -0.9241 -0.0596
16256TIP3    H270260   5.465   1.920  15.563  0.0618  0.3431  1.3894
16257TIP3   OH270261   4.660   3.611   1.200 -0.2991 -0.7930 -0.2752
16257TIP3    H170262   4.601   3.627   1.127  0.5651 -0.3512 -0.8862
16257TIP3    H270263   4.711   3.534   1.174  0.4075 -0.2914 -0.4013
16258TIP3   OH270264   3.759   4.465  12.491 -0.1245  0.2396 -0.0516
16258TIP3    H170265   3.754   4.370  12.499  1.7259  0.2270  1.8663
16258TIP3    H270266   3.821   4.480  12.419  0.1404 -0.0264  0.1196
16259TIP3   OH270267   2.133   2.317   2.038 -0.0994 -0.5955 -0.4917
16259TIP3    H170268   2.095   2.232   2.062 -0.6915 -0.1420  0.2377
16259TIP3    H270269   2.218   2.296   2.001  1.1163 -1.3921  2.4309
16260TIP3   OH270270   0.800   4.216  11.377  0.0367 -0.1196 -0.0170
16260TIP3    H170271   0.825   4.277  11.308 -0.0514 -0.8397 -0.6993
16260TIP3    H270272   0.863   4.233  11.447  0.0581  0.6982 -0.2186
16261TIP3   OH270273   3.885   5.356  13.044  0.0663 -0.0068  0.9404
16261TIP3    H170274   3.942   5.393  13.112  0.3200  0.9974  0.2120
16261TIP3    H270275   3.818   5.423  13.029 -0.3415 -0.4744  0.6251
16262TIP3   OH270276   5.456   3.285   0.019  0.3090  0.0278 -0.0705
16262TIP3    H170277   5.393   3.247   0.079  1.6459 -1.4654  0.4783
16262TIP3    H270278   5.405   3.311  -0.057 -0.9443 -1.2419  0.3034
16263TIP3   OH270279   2.113   2.061   0.026  0.4078 -0.4977 -0.4209
16263TIP3    H170280   2.177   2.081   0.094 -0.2355 -1.5322  0.5375
16263TIP3    H270281   2.047   2.130   0.034 -0.2772 -1.2462  0.8597
16264TIP3   OH270282   2.819   1.588  15.808 -0.1760  0.0019  0.0276
16264TIP3    H170283   2.768   1.581  15.727  2.7852  1.1252 -2.0899
16264TIP3    H270284   2.794   1.673  15.844 -0.1882  0.3267 -0.7243
16265TIP3   OH270285   2.139   1.484  14.538 -0.5392  0.0066 -0.0327
16265TIP3    H170286   2.191   1.460  14.462  0.3818 -0.8643  0.8559
16265TIP3    H270287   2.175   1.569  14.566  0.0699 -0.3389  0.2577
16266TIP3   OH270288   1.872   6.321  13.019  0.1555 -0.0179  0.1939
16266TIP3    H170289   1.942   6.272  13.063  1.4597  1.9300  0.4138
16266TIP3    H270290   1.903   6.412  13.019 -2.5554  0.9942  0.6325
16267TIP3   OH270291   1.999   3.103   5.068  0.0152  0.4178  0.4336
16267TIP3    H170292   1.966   3.038   5.006  0.4853 -0.5486  1.1755
16267TIP3    H270293   1.958   3.080   5.151 -1.7679  2.5716  0.2690
16268TIP3   OH270294   4.095   1.576   3.210  0.4157 -0.5885  0.4926
16268TIP3    H170295   4.033   1.523   3.160  1.3447 -0.8752 -0.3991
16268TIP3    H270296   4.079   1.552   3.302  0.0086 -1.5319  0.1882
16269TIP3   OH270297   1.275   3.056  12.972  0.3675  0.0060 -0.0339
16269TIP3    H170298   1.190   3.100  12.978  0.1812 -0.2869 -0.4430
16269TIP3    H270299   1.262   2.989  12.905 -0.0601 -2.2907  2.2134
16270TIP3   OH270300   0.822   5.219  15.786  0.7186  0.0419  0.3921
16270TIP3    H170301   0.803   5.282  15.855 -2.1587 -0.4398  0.1691
16270TIP3    H270302   0.752   5.232  15.722  3.5794  0.9328 -2.8770
16271TIP3   OH270303   6.317   1.869   5.530 -0.2878 -0.0226  0.1737
16271TIP3    H170304   6.286   1.935   5.468  0.1529  1.4722  1.4678
16271TIP3    H270305   6.389   1.912   5.577 -0.2412 -1.2885  1.3288
16272TIP3   OH270306   2.094   0.392   3.199  0.0754 -0.2819  0.0845
16272TIP3    H170307   2.057   0.420   3.283  0.5600 -0.0689  0.2297
16272TIP3    H270308   2.044   0.441   3.133  0.3043  0.2321  0.2906
16273TIP3   OH270309   6.115   1.902   4.098 -0.5541  0.1366 -0.4239
16273TIP3    H170310   6.150   1.905   4.009 -0.6232 -1.3766 -0.5286
16273TIP3    H270311   6.190   1.875   4.152 -1.2930 -2.5691 -0.5745
16274TIP3   OH270312   2.888   3.562   0.875 -0.0118 -0.2416 -0.0355
16274TIP3    H170313   2.878   3.492   0.811  0.1196 -1.0924  0.8570
16274TIP3    H270314   2.981   3.563   0.896 -0.1772 -0.5074  0.7363
16275TIP3   OH270315   6.376   5.512  12.392  0.6372  0.4976  0.4003
16275TIP3    H170316   6.442   5.491  12.326  0.5665  0.7980  0.2316
16275TIP3    H270317   6.365   5.606  12.385 -0.3672  0.3605 -0.1089
16276TIP3   OH270318   0.406   6.272  15.646  0.6321 -0.2314  0.4673
16276TIP3    H170319   0.460   6.295  15.570  0.0359  0.4312  0.2297
16276TIP3    H270320   0.398   6.177  15.641  2.3149 -0.4201  0.8928
16277TIP3   OH270321   5.356   1.965  11.448  0.0510  0.1068  0.1411
16277TIP3    H170322   5.368   2.044  11.395 -1.6673  1.3800  1.5196
16277TIP3    H270323   5.339   1.997  11.536  2.7855 -1.9423  1.5798
16278TIP3   OH270324   3.291   1.758   2.156 -0.2243 -0.4594  0.1173
16278TIP3    H170325   3.242   1.678   2.137  0.7897 -1.5525  1.8255
16278TIP3    H270326   3.356   1.764   2.086 -0.5494 -0.8991 -0.2288
16279TIP3   OH270327   4.530   4.115   1.037  0.1620  0.5047 -0.2357
16279TIP3    H170328   4.605   4.088   0.983  1.6583  1.4208  1.3059
16279TIP3    H270329   4.519   4.043   1.099 -1.2752 -0.3364 -1.3751
16280TIP3   OH270330   0.822   4.718  11.481 -0.3713  0.1361  0.2232
16280TIP3    H170331   0.742   4.667  11.496 -0.2070  0.1462  1.1878
16280TIP3    H270332   0.872   4.665  11.418 -0.6854 -0.3703  0.3879
16281TIP3   OH270333   1.704   3.888  15.562 -0.2949  0.1520 -0.2026
16281TIP3    H170334   1.782   3.847  15.600  0.3712  1.7994  0.3030
16281TIP3    H270335   1.703   3.857  15.471  0.7306 -0.2034 -0.1136
16282TIP3   OH270336   5.149   6.500   2.606 -0.6314 -0.2786  0.4789
16282TIP3    H170337   5.229   6.455   2.579 -0.9314 -1.2254  1.1069
16282TIP3    H270338   5.118   6.450   2.681 -0.6668  1.3393  1.5940
16283TIP3   OH270339   2.236   2.709  13.624  0.0956  0.1236 -0.1714
16283TIP3    H170340   2.301   2.660  13.674  0.5377 -0.6510 -1.4763
16283TIP3    H270341   2.282   2.789  13.597  0.6828 -0.5982 -1.4245
16284TIP3   OH270342   5.446   3.138  12.836 -0.6077 -0.4313 -0.2968
16284TIP3    H170343   5.418   3.068  12.894  0.6517 -0.0209  0.8477
16284TIP3    H270344   5.437   3.218  12.888  2.1716 -0.2316  0.0339
16285TIP3   OH270345   3.794   5.757  15.413 -0.7518 -0.6837  0.1527
16285TIP3    H170346   3.815   5.834  15.465 -1.5774 -0.3324 -0.0139
16285TIP3    H270347   3.711   5.779  15.370  0.7831 -0.2301 -2.7974
16286TIP3   OH270348   6.645   5.129  12.243 -0.6266 -0.0931  0.1212
16286TIP3    H170349   6.642   5.165  12.331 -1.5708 -1.3310  0.6379
16286TIP3    H270350   6.560   5.084  12.232 -0.2040 -0.6594 -1.0978
16287TIP3   OH270351   1.023   3.585  14.906  0.2119  0.1925 -0.3029
16287TIP3    H170352   1.012   3.490  14.901 -1.7330  0.3215  0.5323
16287TIP3    H270353   1.078   3.598  14.983 -0.4378 -0.2361  0.2503
16288TIP3   OH270354   6.171   3.977  14.518  0.0299  0.0727  0.0012
16288TIP3    H170355   6.237   3.913  14.545  0.8538  0.7696 -0.3445
16288TIP3    H270356   6.088   3.929  14.525  0.6505 -1.1026 -0.4445
16289TIP3   OH270357   0.300   1.203  13.029 -0.3032 -0.0547  0.1415
16289TIP3    H170358   0.373   1.145  13.053 -1.0279 -0.2504  2.1256
16289TIP3    H270359   0.229   1.143  13.004 -0.0354  0.1121 -1.0587
16290TIP3   OH270360   5.327   2.985   4.713  0.2306 -0.0126 -0.4061
16290TIP3    H170361   5.354   3.022   4.629  1.3904 -0.6697 -0.3569
16290TIP3    H270362   5.403   2.934   4.741 -0.1804  0.1024  0.9889
16291TIP3   OH270363   1.353   3.684   0.824 -0.0833  0.0381  0.2572
16291TIP3    H170364   1.263   3.718   0.828 -0.1954 -0.3277  1.4860
16291TIP3    H270365   1.366   3.641   0.909  2.0091  2.0061  1.0310
16292TIP3   OH270366   3.998   0.382  12.847  0.2188 -0.0839 -0.7564
16292TIP3    H170367   4.054   0.362  12.773 -0.4294 -2.4291 -0.6798
16292TIP3    H270368   3.928   0.437  12.810  0.6635 -0.0497 -1.5644
16293TIP3   OH270369   2.579   0.758  15.536  0.2339 -0.6244 -0.1949
16293TIP3    H170370   2.547   0.840  15.498  2.6021  1.9222  2.7033
16293TIP3    H270371   2.673   0.760  15.520  0.7493 -1.3049  2.2699
16294TIP3   OH270372   1.238   3.699  14.615 -0.4351  0.5581  0.1973
16294TIP3    H170373   1.286   3.632  14.663  0.2164  1.2659  0.5468
16294TIP3    H270374   1.305   3.754  14.575 -0.9597  0.9751 -0.1299
16295TIP3   OH270375   0.049   3.892  13.392  0.3841  0.7520  0.2395
16295TIP3    H170376  -0.030   3.945  13.408 -0.1209 -0.1208  0.7136
16295TIP3    H270377   0.018   3.802  13.394  1.2558  0.4195 -0.4549
16296TIP3   OH270378   4.274   2.078  16.073  0.0973  0.2920 -0.1342
16296TIP3    H170379   4.362   2.091  16.108  0.1660  0.3132 -0.3109
16296TIP3    H270380   4.288   2.032  15.990  0.1270  2.4208 -1.3798
16297TIP3   OH270381   2.571   2.362  13.872 -0.3527  0.2378 -0.3967
16297TIP3    H170382   2.518   2.311  13.810  1.2728  0.8259 -2.4013
16297TIP3    H270383   2.661   2.330  13.859  0.2874  1.6053  0.3959
16298TIP3   OH270384   1.589   4.584  16.329 -0.3493  0.1105  0.1792
16298TIP3    H170385   1.500   4.587  16.294 -0.4839  0.6988  0.5696
16298TIP3    H270386   1.591   4.652  16.396  0.1579 -0.4332  0.7292
16299TIP3   OH270387   2.350   1.826  13.635 -0.6289 -0.3043  0.2969
16299TIP3    H170388   2.397   1.748  13.664  2.3046  1.2891  0.1828
16299TIP3    H270389   2.343   1.815  13.540  1.9273  0.5443 -0.0625
16300TIP3   OH270390   6.827   2.494  11.615  0.1789 -0.4377  0.4223
16300TIP3    H170391   6.819   2.399  11.618 -2.8932 -0.2623  2.0023
16300TIP3    H270392   6.788   2.519  11.532 -0.5102 -0.5014  0.7203
16301TIP3   OH270393   0.331   4.618  15.843 -0.3550  0.2802 -0.3726
16301TIP3    H170394   0.319   4.684  15.911  1.4129  0.7915 -0.5122
16301TIP3    H270395   0.319   4.535  15.887 -0.4414  0.6382  0.2951
16302TIP3   OH270396   5.784   6.543  15.274 -0.1654  0.6281  0.0635
16302TIP3    H170397   5.775   6.573  15.183 -0.2855 -1.3606 -0.6335
16302TIP3    H270398   5.868   6.499  15.277 -0.7482 -0.5010  0.5326
16303TIP3   OH270399   2.008   5.575   0.470 -0.0757 -0.7165  0.0495
16303TIP3    H170400   1.932   5.518   0.457 -0.8582  0.1930  0.4844
16303TIP3    H270401   2.002   5.639   0.399 -1.2932  0.9967  1.5955
16304TIP3   OH270402   0.084   1.621  11.551  0.1707  0.2040 -0.1069
16304TIP3    H170403   0.068   1.680  11.624 -0.1208  0.7395 -0.5929
16304TIP3    H270404   0.170   1.582  11.570  1.7233  2.8691 -1.1146
16305TIP3   OH270405   3.519   6.025  14.058  0.9558 -0.3505 -0.2481
16305TIP3    H170406   3.464   6.016  13.980  2.8529  0.5004 -1.7851
16305TIP3    H270407   3.585   5.957  14.049  1.1988 -0.2475  0.6369
16306TIP3   OH270408   6.055   0.214  10.791  0.4407 -0.2487 -0.5717
16306TIP3    H170409   6.085   0.262  10.713 -0.4325 -0.8614 -1.3033
16306TIP3    H270410   6.036   0.126  10.759 -0.7286 -0.2820  0.1488
16307TIP3   OH270411   2.908   1.588   3.827  0.2169  0.3275  0.5961
16307TIP3    H170412   2.925   1.554   3.915  1.5498 -2.5511 -0.6409
16307TIP3    H270413   2.813   1.592   3.821  0.1032  0.9867  2.2862
16308TIP3   OH270414   1.517   3.238   2.886  0.0642 -0.0743 -0.3346
16308TIP3    H170415   1.530   3.211   2.977  0.5801  1.2935  0.0219
16308TIP3    H270416   1.577   3.182   2.836  0.4978 -0.1730  0.2811
16309TIP3   OH270417   5.130   1.144  10.812  0.2574  0.2934  0.2170
16309TIP3    H170418   5.077   1.064  10.808  0.0722  0.4244  0.0024
16309TIP3    H270419   5.076   1.211  10.769  0.9914  0.2131 -0.8721
16310TIP3   OH270420   4.329   4.391   5.476  0.2658 -0.1142  0.3944
16310TIP3    H170421   4.303   4.404   5.567  1.6614 -0.4327  0.8471
16310TIP3    H270422   4.380   4.311   5.476 -1.5447 -1.3518 -1.0579
16311TIP3   OH270423   0.954   0.875   1.174  0.2901 -0.4117 -0.1083
16311TIP3    H170424   0.921   0.802   1.226  1.8314 -0.8975  0.2474
16311TIP3    H270425   1.017   0.919   1.231 -1.9759  2.4322  0.4099
16312TIP3   OH270426   5.808   3.537   1.950  0.1443  0.1566  0.2544
16312TIP3    H170427   5.790   3.450   1.986  0.3917 -0.4744 -1.1098
16312TIP3    H270428   5.734   3.590   1.980 -0.9478 -0.9538 -0.3430
16313TIP3   OH270429   0.577   5.564   2.350 -0.6007  0.5788 -0.3472
16313TIP3    H170430   0.554   5.554   2.442  1.5154  0.2175  0.2113
16313TIP3    H270431   0.587   5.474   2.318 -0.6476  0.7100 -0.7399
16314TIP3   OH270432   4.954   3.830   1.734  1.0107  0.5348 -0.1009
16314TIP3    H170433   4.918   3.752   1.692  1.9701  0.3531 -0.6198
16314TIP3    H270434   5.040   3.803   1.765  0.9849  1.1389  0.5326
16315TIP3   OH270435   2.717   6.627   4.502 -0.0783 -0.1784  0.3622
16315TIP3    H170436   2.739   6.720   4.507  0.1091 -0.1272 -1.0274
16315TIP3    H270437   2.717   6.597   4.593  0.8431  0.9516  0.7542
16316TIP3   OH270438   5.346   0.852   5.776  0.2238  0.0109  0.2478
16316TIP3    H170439   5.419   0.874   5.835  0.6740  0.6440 -0.5306
16316TIP3    H270440   5.362   0.761   5.751  0.3091 -0.1017  0.7076
16317TIP3   OH270441   6.639   4.561  13.493 -0.4996 -0.1019 -0.2541
16317TIP3    H170442   6.545   4.576  13.505 -0.3517 -0.0959  1.0579
16317TIP3    H270443   6.675   4.649  13.480 -0.4707  0.0929  0.9889
16318TIP3   OH270444   6.298   2.202   4.841 -0.5485  0.2949 -0.2666
16318TIP3    H170445   6.323   2.221   4.932  1.6091  0.0869 -0.7810
16318TIP3    H270446   6.228   2.137   4.849 -1.0866  0.9997  1.2487
16319TIP3   OH270447   0.951   6.526   4.175  0.4992  0.3800  0.1196
16319TIP3    H170448   0.918   6.604   4.131  1.0433  0.7216  0.3116
16319TIP3    H270449   1.026   6.498   4.122 -1.0467 -1.3823 -1.3054
16320TIP3   OH270450   4.854   6.852  15.822  0.8202 -0.8505 -0.4940
16320TIP3    H170451   4.848   6.842  15.727 -0.2607  0.2812 -0.5857
16320TIP3    H270452   4.771   6.893  15.847  1.5944  0.0383  0.7752
16321TIP3   OH270453   3.499   0.022  14.862 -0.6631  0.0935 -0.5257
16321TIP3    H170454   3.561  -0.024  14.805 -0.3445 -0.7999  0.4994
16321TIP3    H270455   3.480  -0.041  14.932  1.3523  2.1415  2.1000
16322TIP3   OH270456   1.234   3.076  16.218  0.2479 -0.3345  0.5168
16322TIP3    H170457   1.236   3.121  16.302  2.1051 -1.1220  0.9461
16322TIP3    H270458   1.324   3.080  16.186  0.2225 -2.5293 -0.0359
16323TIP3   OH270459   6.221   1.539   0.182  0.2174 -0.1538 -0.3033
16323TIP3    H170460   6.213   1.517   0.089 -2.2054  1.1629 -0.4945
16323TIP3    H270461   6.309   1.575   0.190  1.8098 -3.4457 -1.2742
16324TIP3   OH270462   1.396   0.402  16.690  0.1188 -0.0561  0.7837
16324TIP3    H170463   1.490   0.407  16.673  0.0412 -1.1585 -0.0700
16324TIP3    H270464   1.372   0.490  16.718  1.4500  0.1681  1.2767
16325TIP3   OH270465   4.116   3.088  10.959  0.3647 -0.1290  0.2485
16325TIP3    H170466   4.152   3.000  10.950  0.9352  0.1446 -0.1825
16325TIP3    H270467   4.021   3.075  10.962  0.3160 -0.6115 -1.7996
16326TIP3   OH270468   2.100   5.432  16.132  0.8058  0.4007  0.0757
16326TIP3    H170469   2.058   5.489  16.068 -0.0948 -1.6269 -1.2524
16326TIP3    H270470   2.049   5.443  16.212  0.0560  0.7563 -0.4416
16327TIP3   OH270471   5.545   1.449   4.281 -0.6036  0.4149 -0.9256
16327TIP3    H170472   5.622   1.410   4.320  0.3444  1.2336 -1.9119
16327TIP3    H270473   5.499   1.490   4.354  0.2163  0.4490 -0.4203
16328TIP3   OH270474   0.117   4.151  15.955 -0.1118  0.2865  0.6781
16328TIP3    H170475   0.132   4.095  15.879  1.1969  1.0706  0.3366
16328TIP3    H270476   0.119   4.091  16.029  1.6582 -0.1164  0.3594
16329TIP3   OH270477   5.074   6.552  12.303 -0.1937 -0.1018  1.1882
16329TIP3    H170478   5.131   6.623  12.331  0.8579 -0.5713  0.2857
16329TIP3    H270479   5.060   6.567  12.209 -0.1819 -0.9321  1.0467
16330TIP3   OH270480   2.464   1.012   4.540  0.3976  0.5325  0.6180
16330TIP3    H170481   2.518   0.944   4.579  2.2088  3.3616  3.5210
16330TIP3    H270482   2.375   0.994   4.571  0.1560 -2.1754 -1.3163
16331TIP3   OH270483   2.522   5.778  13.333  0.0021  0.1266  0.4853
16331TIP3    H170484   2.575   5.840  13.282  1.8614  0.1467  2.2882
16331TIP3    H270485   2.475   5.833  13.396  0.3819 -0.1379  1.0104
16332TIP3   OH270486   4.707   3.017  17.074  0.0104  0.2268  0.1117
16332TIP3    H170487   4.711   3.111  17.096  0.4500 -0.0098  1.1032
16332TIP3    H270488   4.681   3.015  16.982 -0.5222  1.3131  0.2216
16333TIP3   OH270489   4.654   0.543   2.584  0.0894 -0.2270 -0.0558
16333TIP3    H170490   4.675   0.504   2.669 -1.2280 -0.7070  0.0733
16333TIP3    H270491   4.692   0.631   2.589 -1.4003  0.3889  1.7121
16334TIP3   OH270492   3.318   4.367  15.402  0.0356 -0.5740 -0.1285
16334TIP3    H170493   3.327   4.426  15.327 -2.1351  2.1766  1.5813
16334TIP3    H270494   3.399   4.315  15.402  1.7357  1.8455 -2.2403
16335TIP3   OH270495   0.179   4.159  14.779  0.3970  0.0633  0.0045
16335TIP3    H170496   0.273   4.150  14.794  0.5033  1.2485  0.1762
16335TIP3    H270497   0.167   4.252  14.757 -0.8838  0.1979  1.1423
16336TIP3   OH270498   3.510   4.268   5.742 -0.0836 -0.7105 -0.5811
16336TIP3    H170499   3.414   4.272   5.742 -0.0714  1.4570  1.0122
16336TIP3    H270500   3.530   4.182   5.779 -1.3148 -2.2999 -3.3079
16337TIP3   OH270501   1.839   0.320   5.897 -0.5068  0.0017  0.1262
16337TIP3    H170502   1.865   0.243   5.846  2.5955 -0.5440  2.2638
16337TIP3    H270503   1.882   0.393   5.854 -0.5947  0.0244  0.0772
16338TIP3   OH270504   4.983   2.361  16.475 -0.0444  0.5100  0.1559
16338TIP3    H170505   5.015   2.413  16.401  1.9211 -0.5876  0.1634
16338TIP3    H270506   5.018   2.407  16.552  0.0497  0.2500  0.2665
16339TIP3   OH270507   0.438   5.887  13.907  0.0108 -0.0006 -0.3841
16339TIP3    H170508   0.457   5.822  13.839 -0.7277 -0.9752  0.3077
16339TIP3    H270509   0.486   5.965  13.880  0.4084 -0.6343 -1.5752
16340TIP3   OH270510   5.239   1.435   0.310 -0.0415  0.1649  0.6941
16340TIP3    H170511   5.319   1.483   0.286  1.3122 -2.3079 -0.0442
16340TIP3    H270512   5.269   1.363   0.365 -2.0469  0.2536  2.0428
16341TIP3   OH270513   0.633   3.691   5.806 -0.1749 -0.5965  0.5629
16341TIP3    H170514   0.622   3.716   5.898  0.6724 -0.6459  0.6852
16341TIP3    H270515   0.580   3.612   5.796  0.7528 -1.3398  1.3555
16342TIP3   OH270516   4.822   5.923   3.244 -0.2777  0.2429 -0.2490
16342TIP3    H170517   4.826   5.990   3.175 -4.3094 -0.7246 -1.7001
16342TIP3    H270518   4.782   5.968   3.318  0.8250  0.3732  0.3001
16343TIP3   OH270519   5.315   4.182   3.102  0.4799 -0.0098 -0.7440
16343TIP3    H170520   5.362   4.202   3.021 -0.9396 -0.4769 -1.7116
16343TIP3    H270521   5.382   4.188   3.170  1.5202  1.3278 -1.8140
16344TIP3   OH270522   0.225   1.056   4.407  0.5607 -0.3457 -0.1438
16344TIP3    H170523   0.155   1.122   4.408  1.1827  0.3673 -1.6865
16344TIP3    H270524   0.301   1.101   4.371  1.0207 -1.9014 -1.2062
16345TIP3   OH270525   4.681   5.068   2.325 -0.6129 -0.3502 -0.1583
16345TIP3    H170526   4.651   4.998   2.383  0.7782  0.9840  2.3332
16345TIP3    H270527   4.667   5.149   2.375  0.2128  0.9440 -1.9033
16346TIP3   OH270528   2.179   4.130   4.847  0.2100  0.4902 -0.7365
16346TIP3    H170529   2.112   4.168   4.790 -0.6817 -0.2506 -0.2096
16346TIP3    H270530   2.253   4.113   4.789 -0.9676 -1.0079 -1.8934
16347TIP3   OH270531   4.082   2.904  13.632  0.2098 -0.3736  0.9480
16347TIP3    H170532   4.062   2.894  13.539 -0.3613 -1.2428  1.1465
16347TIP3    H270533   4.174   2.927  13.634  0.8678 -2.6358  0.2194
16348TIP3   OH270534   4.630   0.619   0.204  0.2827 -0.2750 -0.0186
16348TIP3    H170535   4.634   0.537   0.154 -0.1263 -1.0526  1.1764
16348TIP3    H270536   4.550   0.611   0.256  1.3004 -0.0356  1.6603
16349TIP3   OH270537   6.795   3.854   2.727  0.2991 -0.0766  0.2517
16349TIP3    H170538   6.720   3.873   2.670 -0.0729 -1.2622  0.3114
16349TIP3    H270539   6.796   3.926   2.790 -0.2042  0.4599 -0.3395
16350TIP3   OH270540   3.444   1.505   2.658  0.4434  0.0589 -0.2504
16350TIP3    H170541   3.426   1.411   2.659 -1.3417  0.3603  0.0038
16350TIP3    H270542   3.504   1.519   2.730  1.3865 -0.9857 -0.7989
16351TIP3   OH270543   6.485   5.295  12.000  0.1458 -0.0725  0.3768
16351TIP3    H170544   6.560   5.240  11.978  0.6090  0.9810 -0.8591
16351TIP3    H270545   6.436   5.302  11.919  0.6219  2.0560  0.1950
16352TIP3   OH270546   3.565   6.238   5.790 -0.2285  0.2747 -0.7562
16352TIP3    H170547   3.546   6.213   5.699  1.3857 -1.0426 -0.7622
16352TIP3    H270548   3.481   6.225   5.835 -0.6124 -0.7984 -1.7053
16353TIP3   OH270549   0.662   4.345  16.003 -0.2699  0.1942 -0.3374
16353TIP3    H170550   0.680   4.251  15.998  0.9629  0.3695  0.3311
16353TIP3    H270551   0.611   4.355  16.084 -0.0760  0.1454 -0.2089
16354TIP3   OH270552   4.038   4.206   6.023  0.2408  0.0563 -0.1848
16354TIP3    H170553   3.945   4.209   6.047  0.5668 -0.9118  1.3679
16354TIP3    H270554   4.077   4.275   6.077  0.1569  2.0820 -2.5186
16355TIP3   OH270555   5.944   5.756  13.938  0.3007  0.0205  0.2226
16355TIP3    H170556   5.937   5.823  13.870  1.4502  2.0551  2.0034
16355TIP3    H270557   6.037   5.732  13.938  0.2766 -0.0844  0.9682
16356TIP3   OH270558   4.416   1.339  10.463  0.4683 -0.1885 -0.0125
16356TIP3    H170559   4.435   1.247  10.442  1.2552  0.1978 -1.0735
16356TIP3    H270560   4.320   1.343  10.468  0.4186 -1.0313 -0.0685
16357TIP3   OH270561   0.707   1.165   3.245 -0.1867 -0.6127  0.4890
16357TIP3    H170562   0.759   1.125   3.175  0.9018 -0.4479  1.1882
16357TIP3    H270563   0.755   1.244   3.270 -1.2434  0.0312  0.5445
16358TIP3   OH270564   3.645   1.198  11.540 -0.2049  0.3092  0.0925
16358TIP3    H170565   3.709   1.129  11.557 -1.0588 -0.4689  0.1751
16358TIP3    H270566   3.622   1.186  11.448 -0.2849  0.5508  0.0809
16359TIP3   OH270567   6.125   0.959  12.223  0.1569  0.2116 -0.1226
16359TIP3    H170568   6.181   0.892  12.185  0.7329  1.3459 -1.3296
16359TIP3    H270569   6.178   1.039  12.223 -1.6028  1.4728 -1.8205
16360TIP3   OH270570   3.826   2.252  11.937 -0.0754  0.1687  0.3464
16360TIP3    H170571   3.760   2.183  11.929  0.2372 -0.1166  0.1969
16360TIP3    H270572   3.824   2.296  11.853 -1.4378  1.4229  0.9758
16361TIP3   OH270573   3.068   0.953   5.205  0.2072  0.3564 -0.5539
16361TIP3    H170574   3.031   1.037   5.177  2.1406  0.9027 -1.6799
16361TIP3    H270575   3.000   0.889   5.185 -0.1231  1.2764 -2.6413
16362TIP3   OH270576   6.218   4.892   4.047  0.4086 -0.1391  0.0693
16362TIP3    H170577   6.193   4.848   4.128  0.4476  1.2161  0.8521
16362TIP3    H270578   6.214   4.824   3.980  0.5122 -1.3181  1.2280
16363TIP3   OH270579   5.235   3.412  15.442  0.1867  0.6378  0.4920
16363TIP3    H170580   5.325   3.380  15.442  0.7300  2.0933  0.5794
16363TIP3    H270581   5.191   3.357  15.377  1.4147  0.6136 -0.3658
16364TIP3   OH270582   2.819   5.851  13.872 -0.1570 -0.4848  0.3089
16364TIP3    H170583   2.732   5.851  13.832 -0.2077 -0.6645  0.4160
16364TIP3    H270584   2.880   5.854  13.799 -0.2578  0.4159  0.2501
16365TIP3   OH270585   4.752   3.426  12.763  0.1254 -0.0539 -0.7177
16365TIP3    H170586   4.798   3.401  12.843  1.2465  0.9912 -1.0007
16365TIP3    H270587   4.688   3.357  12.749  1.9202 -1.8320 -0.5379
16366TIP3   OH270588   4.207   6.320   5.559 -0.0015  0.2406 -0.5726
16366TIP3    H170589   4.151   6.333   5.636  2.7353  0.1728  1.5752
16366TIP3    H270590   4.169   6.243   5.516 -0.0287 -1.5332  2.3558
16367TIP3   OH270591   5.271   3.112  10.475 -0.2712  0.1040 -0.5766
16367TIP3    H170592   5.209   3.184  10.484  1.0520  1.0636  2.2444
16367TIP3    H270593   5.219   3.034  10.493 -1.0762  0.6904 -0.2914
16368TIP3   OH270594   4.802   2.215   1.038  0.4622 -0.0509  0.1048
16368TIP3    H170595   4.775   2.165   0.961  1.5062  0.4770 -0.6442
16368TIP3    H270596   4.729   2.274   1.055 -0.2820 -1.0006  0.2724
16369TIP3   OH270597   1.906   3.588  13.215  0.4657 -0.0039 -0.4163
16369TIP3    H170598   1.979   3.526  13.219  0.2036 -0.4439 -1.7969
16369TIP3    H270599   1.945   3.670  13.184  0.6660  0.2752  0.5650
16370TIP3   OH270600   3.704   1.810   0.000 -0.3493  0.0177 -0.6738
16370TIP3    H170601   3.752   1.846   0.075  0.2393 -1.5717 -0.2459
16370TIP3    H270602   3.637   1.876  -0.019  0.1044  0.9067  0.6287
16371TIP3   OH270603   6.681   4.318   4.513 -0.3463  0.2352  0.0338
16371TIP3    H170604   6.766   4.322   4.556  0.1830  0.3723 -1.0003
16371TIP3    H270605   6.673   4.228   4.482 -1.1076 -0.0988  1.1564
16372TIP3   OH270606   5.051   4.382   1.943  0.6443  0.1045 -0.0440
16372TIP3    H170607   5.122   4.318   1.940  0.7491  0.2180  0.0369
16372TIP3    H270608   5.042   4.412   1.852  0.3400 -0.3047 -0.1527
16373TIP3   OH270609   3.082   2.756  15.088 -0.0465 -0.2489 -0.0790
16373TIP3    H170610   3.121   2.806  15.160 -0.4547 -0.4706  0.3006
16373TIP3    H270611   3.034   2.822  15.037 -2.0830 -0.4578  1.4178
16374TIP3   OH270612   0.887   5.488   3.755  0.5749  0.2714  0.0685
16374TIP3    H170613   0.808   5.458   3.800 -0.5207  1.3711 -1.0206
16374TIP3    H270614   0.918   5.410   3.708 -0.2027 -0.0442  0.0555
16375TIP3   OH270615   3.430   3.216   1.156 -0.5532 -0.0826  0.4803
16375TIP3    H170616   3.378   3.297   1.154 -1.2185 -0.4914  0.7305
16375TIP3    H270617   3.437   3.190   1.064 -2.2212 -0.8900  0.5319
16376TIP3   OH270618   6.512   4.077  15.366  0.4307  0.0610  0.2335
16376TIP3    H170619   6.598   4.045  15.338  0.0998 -0.3601 -0.3329
16376TIP3    H270620   6.456   4.000  15.367  0.3373  0.1231  1.7908
16377TIP3   OH270621   1.622   1.908   3.207 -0.1368  0.0459 -0.5578
16377TIP3    H170622   1.697   1.965   3.223 -2.3554  3.2799 -0.7936
16377TIP3    H270623   1.570   1.953   3.140 -2.4740 -1.8712 -0.2063
16378TIP3   OH270624   1.722   0.577   4.365 -0.5177 -0.1751 -0.3341
16378TIP3    H170625   1.670   0.498   4.347 -1.3300  0.5813 -1.4753
16378TIP3    H270626   1.657   0.644   4.387  0.0360  0.5561 -0.8799
16379TIP3   OH270627   3.490   2.386   3.769  0.1025  0.6388  0.4950
16379TIP3    H170628   3.553   2.371   3.698  0.4073  1.6587  0.5357
16379TIP3    H270629   3.532   2.349   3.846  0.6684  1.2965  0.5176
16380TIP3   OH270630   5.293   5.512  16.106  0.1734 -0.3624  0.6661
16380TIP3    H170631   5.384   5.487  16.093  0.2942  0.0075  0.7881
16380TIP3    H270632   5.258   5.521  16.017  0.2755 -0.4372  0.6177
16381TIP3   OH270633   6.125   3.623   5.714 -0.1778 -0.1945  0.0005
16381TIP3    H170634   6.182   3.697   5.737  1.8832 -1.4555 -0.7487
16381TIP3    H270635   6.172   3.546   5.744 -0.4346 -1.4582 -2.5290
16382TIP3   OH270636   4.382   0.935   3.410  0.1710 -0.8924 -0.0852
16382TIP3    H170637   4.331   0.953   3.489  3.1029 -1.5538  2.0944
16382TIP3    H270638   4.378   1.016   3.359 -2.3210 -0.6770  0.3071
16383TIP3   OH270639   2.776   0.877   0.819 -0.1074 -0.3116  0.3917
16383TIP3    H170640   2.810   0.814   0.756  1.7350 -0.2630  1.2417
16383TIP3    H270641   2.712   0.828   0.870  1.0984 -1.4747  0.8690
16384TIP3   OH270642   3.750   0.073  15.017  0.1533  0.0785 -0.1140
16384TIP3    H170643   3.736  -0.022  15.023  2.0043 -0.2440 -0.3316
16384TIP3    H270644   3.678   0.104  14.961 -0.3828 -1.2205 -0.1867
16385TIP3   OH270645   3.583   2.312  16.047  0.2086  0.1144 -0.2720
16385TIP3    H170646   3.640   2.238  16.066  2.7033  1.0853 -3.1921
16385TIP3    H270647   3.528   2.281  15.974 -2.3965 -0.4066  1.7391
16386TIP3   OH270648   4.322   1.524   0.338  0.3029  0.0482 -0.5568
16386TIP3    H170649   4.312   1.619   0.327  2.0921  0.2436 -0.8061
16386TIP3    H270650   4.391   1.515   0.404  0.8439 -1.0672 -1.2470
16387TIP3   OH270651   0.078   2.751   6.178 -0.0646  0.0022  0.1969
16387TIP3    H170652   0.056   2.754   6.271  0.2437 -0.6579  0.2951
16387TIP3    H270653   0.038   2.669   6.147  0.2792 -0.0390 -0.1381
16388TIP3   OH270654   3.800   4.377  15.566 -0.0035  0.5108 -0.3724
16388TIP3    H170655   3.803   4.469  15.538  1.3674  0.4119 -0.6241
16388TIP3    H270656   3.717   4.344  15.532  0.1425  1.2819 -1.5182
16389TIP3   OH270657   2.228   3.620  14.794  0.4305  0.5745  0.2507
16389TIP3    H170658   2.181   3.677  14.732  0.5770 -0.4754 -0.8615
16389TIP3    H270659   2.160   3.585  14.851  0.1625  0.8187  0.0850
16390TIP3   OH270660   0.003   1.375  13.090 -0.6128 -0.2121  0.2250
16390TIP3    H170661   0.047   1.361  13.006  0.5484  0.8515  0.6228
16390TIP3    H270662  -0.004   1.470  13.098  0.3435 -0.2353  1.8269
16391TIP3   OH270663   0.221   0.354  14.989  0.1234 -0.1129  0.2809
16391TIP3    H170664   0.219   0.299  15.067  0.4789 -0.3307  0.1385
16391TIP3    H270665   0.297   0.411  15.001  1.8595 -1.9804 -1.1272
16392TIP3   OH270666   3.391   4.056  16.797  0.6559 -0.2115 -0.2993
16392TIP3    H170667   3.344   4.115  16.856  1.2226 -1.0705  1.0614
16392TIP3    H270668   3.386   4.098  16.711 -3.6270 -0.7740 -0.5587
16393TIP3   OH270669   4.702   0.094  16.338 -0.1826  0.6417 -0.0122
16393TIP3    H170670   4.762   0.130  16.404  0.4145 -1.8941  0.9369
16393TIP3    H270671   4.758   0.070  16.265  0.3900 -2.9863  1.3942
16394TIP3   OH270672   2.147   6.227   0.158  0.6950  0.0668  0.1764
16394TIP3    H170673   2.055   6.239   0.182  0.5021 -0.7954 -0.1082
16394TIP3    H270674   2.161   6.133   0.163  1.8608  0.2694  1.2859
16395TIP3   OH270675   2.380   6.838   3.606  0.3478  0.6810  0.3953
16395TIP3    H170676   2.439   6.824   3.532 -0.4771  4.7137 -1.2850
16395TIP3    H270677   2.426   6.800   3.681  2.0224 -2.0505 -1.8243
16396TIP3   OH270678   5.339   2.963  11.775  0.2784 -0.0486 -0.0739
16396TIP3    H170679   5.277   2.946  11.846 -0.2087  0.7085 -0.3039
16396TIP3    H270680   5.293   2.931  11.696  0.4304 -0.0391 -0.1660
16397TIP3   OH270681   3.993   4.156   5.597 -0.3764  0.0241 -0.2805
16397TIP3    H170682   3.899   4.152   5.580 -0.2162  0.4076 -1.3054
16397TIP3    H270683   4.021   4.239   5.559  0.2036  0.4310  0.9741
16398TIP3   OH270684   6.437   0.189  15.603 -0.7402 -0.5096  0.7673
16398TIP3    H170685   6.377   0.235  15.661 -2.0622 -0.6842 -0.4013
16398TIP3    H270686   6.393   0.106  15.583 -0.3850 -0.4176 -0.5359
16399TIP3   OH270687   6.518   1.672   1.951 -0.3962  0.0459 -0.2277
16399TIP3    H170688   6.543   1.614   2.022 -2.2521  0.4725  0.8315
16399TIP3    H270689   6.472   1.616   1.889  1.8142 -0.4661 -1.5107
16400TIP3   OH270690   2.936   2.702   1.413 -0.2511 -0.8070  0.3827
16400TIP3    H170691   2.918   2.796   1.407 -1.3707 -1.0473 -0.6992
16400TIP3    H270692   2.912   2.668   1.326 -2.7852 -2.5146  1.6038
16401TIP3   OH270693   5.616   4.337   3.739 -0.0578 -0.2484  0.3002
16401TIP3    H170694   5.526   4.363   3.759 -0.0494  0.7740 -0.8856
16401TIP3    H270695   5.609   4.246   3.710 -0.6370 -0.3333  0.6932
16402TIP3   OH270696   0.069   0.839  13.322  0.2492  0.1254  0.4739
16402TIP3    H170697   0.086   0.857  13.414 -1.0467  0.1791  0.7297
16402TIP3    H270698   0.070   0.926  13.280 -2.2177  0.4980  1.0260
16403TIP3   OH270699   0.229   1.463   5.852 -0.4629  0.1484 -0.7534
16403TIP3    H170700   0.135   1.475   5.866 -0.1270  2.3684 -0.1182
16403TIP3    H270701   0.265   1.551   5.851  1.5596 -0.6207 -1.6164
16404TIP3   OH270702   3.372   6.032   1.810 -0.6658 -0.7341 -0.1646
16404TIP3    H170703   3.389   5.942   1.839 -0.4623 -0.4039  0.7980
16404TIP3    H270704   3.408   6.087   1.881 -3.3940  0.0636  0.7308
16405TIP3   OH270705   1.275   0.288  12.620  0.4277  0.1349 -0.2648
16405TIP3    H170706   1.206   0.279  12.686  1.2680  0.7018  0.7248
16405TIP3    H270707   1.235   0.342  12.552 -0.8297 -1.3956 -0.7890
16406TIP3   OH270708   1.280   0.684   0.811  0.1758 -0.1688  0.9111
16406TIP3    H170709   1.275   0.714   0.902  1.2613  0.8369  0.6491
16406TIP3    H270710   1.263   0.590   0.817 -2.3811  0.2610  1.8536
16407TIP3   OH270711   4.144   1.330  11.976 -0.5220 -0.2618 -0.0616
16407TIP3    H170712   4.229   1.332  11.933 -0.0734  1.4204  0.7756
16407TIP3    H270713   4.158   1.280  12.056 -0.3685 -0.1913 -0.0444
16408TIP3   OH270714   3.389   0.776  16.617  0.4222  0.2871  0.6594
16408TIP3    H170715   3.304   0.813  16.642  1.2020  1.0245  2.3790
16408TIP3    H270716   3.452   0.842  16.644  1.5815 -0.4813 -0.1150
16409TIP3   OH270717   6.696   5.332  13.901  0.0604  0.1404  0.0772
16409TIP3    H170718   6.756   5.376  13.960 -0.8222  0.0377  1.0795
16409TIP3    H270719   6.609   5.362  13.927 -0.4386 -0.8342 -0.3685
16410TIP3   OH270720   3.722   2.853  17.076 -0.5500  0.1157  0.7817
16410TIP3    H170721   3.812   2.861  17.106 -0.7794  1.3409  1.2061
16410TIP3    H270722   3.702   2.760  17.083  1.4137 -0.5736 -1.4765
16411TIP3   OH270723   2.808   2.669   5.153  0.5320 -0.1617 -0.1600
16411TIP3    H170724   2.871   2.720   5.205  0.2506 -0.7570  0.8003
16411TIP3    H270725   2.735   2.653   5.213 -0.9730  1.2618 -1.5069
16412TIP3   OH270726   5.019   3.731   4.961 -0.3006 -0.0511 -0.2957
16412TIP3    H170727   4.967   3.808   4.943 -2.3974 -0.6872  2.3525
16412TIP3    H270728   5.097   3.764   5.006 -0.7287  0.5869 -0.0218
16413TIP3   OH270729   6.063   2.032  16.234 -0.0335  0.1183 -0.1036
16413TIP3    H170730   6.079   2.001  16.323 -0.0225 -1.7064 -0.7101
16413TIP3    H270731   6.151   2.047  16.198 -0.0333  0.6651  0.1127
16414TIP3   OH270732   5.340   5.932  11.661 -0.4435 -0.5553  0.2007
16414TIP3    H170733   5.313   6.024  11.653 -1.1659 -0.8591 -1.1045
16414TIP3    H270734   5.398   5.931  11.737 -2.1824  0.5733  1.6268
16415TIP3   OH270735   4.998   1.966  11.297  0.8407  0.0708 -0.3163
16415TIP3    H170736   4.948   1.961  11.216  0.4892  1.9727 -0.2573
16415TIP3    H270737   5.031   2.056  11.300  2.0677 -0.3828  0.9352
16416TIP3   OH270738   1.521   5.023  16.695 -0.0740  0.3891 -0.0260
16416TIP3    H170739   1.575   5.041  16.772  0.8119 -1.8104 -0.0421
16416TIP3    H270740   1.547   5.088  16.631  0.0441  1.5015  1.1007
16417TIP3   OH270741   3.445   3.432   2.217  0.4687 -0.6997 -0.3441
16417TIP3    H170742   3.496   3.351   2.226  1.4843 -0.2320 -1.5291
16417TIP3    H270743   3.409   3.428   2.129 -1.0139 -0.6912  0.2414
16418TIP3   OH270744   5.495   3.708   5.148 -0.4070 -0.4341  0.2752
16418TIP3    H170745   5.583   3.741   5.131  0.3900 -2.9404 -1.1469
16418TIP3    H270746   5.489   3.701   5.243  1.1016 -0.5919  0.3815
16419TIP3   OH270747   5.193   2.941   5.666  0.1814  0.4405  0.1280
16419TIP3    H170748   5.134   2.871   5.695 -0.1028  1.2153  1.4426
16419TIP3    H270749   5.279   2.916   5.701  0.0435  0.8386  0.7566
16420TIP3   OH270750   5.537   0.998  12.241  0.1932  0.2348  0.1511
16420TIP3    H170751   5.501   0.932  12.300  0.7292 -0.0889  0.1202
16420TIP3    H270752   5.460   1.037  12.199 -0.1593  0.0759  0.6400
16421TIP3   OH270753   1.540   0.886  13.948 -0.7703 -0.1146 -0.0952
16421TIP3    H170754   1.495   0.958  13.992 -1.5703 -1.2760  1.0236
16421TIP3    H270755   1.516   0.808  13.997  0.1167 -1.1631 -1.2599
16422TIP3   OH270756   3.371   2.077  12.542  0.1041  0.3827  0.8004
16422TIP3    H170757   3.423   2.099  12.465 -2.0479 -0.2210 -0.9321
16422TIP3    H270758   3.406   1.993  12.572  0.2036  0.0278 -0.2795
16423TIP3   OH270759   3.666   1.428   5.954  0.1025 -0.1116 -0.0536
16423TIP3    H170760   3.590   1.396   6.002 -0.2998  0.4418 -0.3058
16423TIP3    H270761   3.721   1.468   6.020 -0.7685  1.2590 -0.1221
16424TIP3   OH270762   4.340   0.956  11.120  0.4562 -0.8757  0.4374
16424TIP3    H170763   4.244   0.951  11.124  0.3257  0.8998  0.5393
16424TIP3    H270764   4.369   0.938  11.209  0.0378  0.6587  0.9288
16425TIP3   OH270765   6.636   2.265  13.580 -0.5925  0.4115  0.1108
16425TIP3    H170766   6.712   2.298  13.627  1.4307 -0.7464 -2.1356
16425TIP3    H270767   6.673   2.212  13.509 -3.5216 -0.7552 -0.6788
16426TIP3   OH270768   1.052   3.047   4.458  0.3838 -0.0193 -0.0701
16426TIP3    H170769   1.092   3.086   4.380  0.7135  0.4131  0.3064
16426TIP3    H270770   1.125   3.004   4.503  0.5627  1.2564  0.9148
16427TIP3   OH270771   0.466   3.784  14.425  0.7050 -0.1293  0.3244
16427TIP3    H170772   0.506   3.745  14.502 -0.6058 -1.6555  0.2836
16427TIP3    H270773   0.539   3.822  14.376  1.8418 -1.1772  1.1635
16428TIP3   OH270774   4.546   4.385  12.812 -0.1602  0.4412 -0.3373
16428TIP3    H170775   4.601   4.307  12.813 -0.3841  0.2867  0.0539
16428TIP3    H270776   4.609   4.458  12.816  0.1268  0.3385 -2.2692
16429TIP3   OH270777   3.588   0.990  16.043  0.0891  0.0919  0.4040
16429TIP3    H170778   3.591   1.044  15.964  1.1550 -0.2715  0.1848
16429TIP3    H270779   3.607   0.902  16.013  0.4820 -0.0552  1.0677
16430TIP3   OH270780   4.278   3.825   4.029 -0.7995  0.4479 -0.0763
16430TIP3    H170781   4.317   3.836   4.116 -2.2816  0.7496  0.5851
16430TIP3    H270782   4.311   3.900   3.979  1.4024 -0.6029 -0.3532
16431TIP3   OH270783   1.765   3.895  13.934 -0.0657  0.3528  0.3955
16431TIP3    H170784   1.765   3.819  13.876  1.3462 -0.0400  0.8790
16431TIP3    H270785   1.673   3.906  13.960 -0.3277 -0.9915  0.0702
16432TIP3   OH270786   0.339   5.397   2.412  1.0665  0.0990  0.2049
16432TIP3    H170787   0.344   5.304   2.436  0.2788 -0.2803 -0.9965
16432TIP3    H270788   0.351   5.444   2.495  0.6736 -1.0920  0.9631
16433TIP3   OH270789   0.134   3.352   6.169  0.7718  1.1044  0.4048
16433TIP3    H170790   0.071   3.424   6.177 -0.5114 -0.1241  1.7961
16433TIP3    H270791   0.120   3.299   6.247  0.9724 -1.2440 -1.0798
16434TIP3   OH270792   3.846   3.547  10.764 -0.4965  0.5510 -0.3304
16434TIP3    H170793   3.870   3.504  10.846  0.9047 -0.7163 -1.3482
16434TIP3    H270794   3.829   3.638  10.789  2.6387  0.8859  0.9978
16435TIP3   OH270795   6.120   5.408  12.397  0.5111  0.2976  0.7101
16435TIP3    H170796   6.215   5.423  12.396  0.3313  1.5414 -0.2608
16435TIP3    H270797   6.086   5.468  12.331 -0.6975 -2.0301 -0.8985
16436TIP3   OH270798   1.110   2.027   5.684  0.1796 -0.2220 -0.2323
16436TIP3    H170799   1.024   2.067   5.693 -0.0952 -0.6450 -0.9101
16436TIP3    H270800   1.112   1.959   5.752 -0.6793 -1.3350 -1.2849
16437TIP3   OH270801   5.070   0.178   3.645  0.0083 -0.5552 -0.1770
16437TIP3    H170802   5.115   0.262   3.651 -1.1391  0.3932 -3.1456
16437TIP3    H270803   5.133   0.114   3.678  2.3347  1.0542 -1.2707
16438TIP3   OH270804   5.082   6.339  16.108  0.5189  0.5208 -0.0819
16438TIP3    H170805   5.003   6.296  16.077 -0.3897  1.9937  0.1081
16438TIP3    H270806   5.153   6.298  16.058 -0.5881  0.6207 -1.8142
16439TIP3   OH270807   4.791   6.710   3.401 -0.2014 -0.0536 -0.9957
16439TIP3    H170808   4.768   6.782   3.460  1.2023 -0.5063  0.1592
16439TIP3    H270809   4.790   6.632   3.457  1.1245 -0.5034 -1.5609
16440TIP3   OH270810   4.327   3.621   2.177 -0.8570 -0.1735 -0.8067
16440TIP3    H170811   4.266   3.693   2.196 -0.2029 -0.2485  2.1837
16440TIP3    H270812   4.414   3.662   2.180 -0.5411 -0.8593 -0.2491
16441TIP3   OH270813   5.792   2.727  12.464  0.2670  0.1207  0.0084
16441TIP3    H170814   5.876   2.772  12.472 -0.8689  2.3379  0.2653
16441TIP3    H270815   5.773   2.696  12.552  0.7757 -0.3618 -0.0426
16442TIP3   OH270816   1.567   1.344   4.118  0.1914  0.0695 -0.1416
16442TIP3    H170817   1.518   1.299   4.187  2.8742 -1.4463  0.9420
16442TIP3    H270818   1.590   1.428   4.156 -1.8608  1.0303 -0.8608
16443TIP3   OH270819   0.298   1.314  13.292  0.0783 -0.6138 -0.9046
16443TIP3    H170820   0.327   1.301  13.201  0.6319 -0.4559 -0.7566
16443TIP3    H270821   0.308   1.408  13.307  1.1336 -0.8022 -0.3122
16444TIP3   OH270822   2.477   4.651  16.205 -0.3139  0.0985 -0.2700
16444TIP3    H170823   2.405   4.677  16.261 -0.3260  0.0347 -0.2552
16444TIP3    H270824   2.446   4.572  16.161 -0.2754  0.1036 -0.3073
16445TIP3   OH270825   0.873   0.210   2.881 -0.2215 -0.0827  0.1959
16445TIP3    H170826   0.902   0.298   2.903  1.5027 -0.2957 -1.0184
16445TIP3    H270827   0.953   0.158   2.881 -0.9491 -1.2649 -0.8078
16446TIP3   OH270828   6.696   5.156   3.952  0.0494  0.0167  0.7661
16446TIP3    H170829   6.638   5.089   3.987 -0.8585 -0.4074 -1.3971
16446TIP3    H270830   6.639   5.214   3.902  1.5585 -1.3715 -2.8775
16447TIP3   OH270831   3.902   0.077  15.848  0.4679 -0.4515 -0.2338
16447TIP3    H170832   3.992   0.085  15.878 -0.3747 -0.4644  2.5201
16447TIP3    H270833   3.863   0.012  15.907 -1.3279 -0.5564 -1.4603
16448TIP3   OH270834   6.688   6.436   4.849  0.2143 -0.1261 -0.3973
16448TIP3    H170835   6.713   6.345   4.831 -0.0079 -0.1116 -0.7825
16448TIP3    H270836   6.769   6.486   4.836  0.2767 -0.2348 -0.4330
16449TIP3   OH270837   0.638   5.298   2.356 -0.2762  0.2295  0.0218
16449TIP3    H170838   0.654   5.237   2.428 -1.1770  0.3371  0.3214
16449TIP3    H270839   0.682   5.258   2.281  1.0182  0.3206  0.7071
16450TIP3   OH270840   0.050   6.112  10.953 -0.4141 -0.2672 -0.3093
16450TIP3    H170841  -0.044   6.094  10.952 -0.5130  0.0433  1.1112
16450TIP3    H270842   0.088   6.043  10.899 -1.2271 -1.8810  1.1085
16451TIP3   OH270843   4.370   3.924  10.594  0.0877 -0.3503 -0.0169
16451TIP3    H170844   4.332   3.836  10.587 -1.3077  0.1772  0.6615
16451TIP3    H270845   4.439   3.915  10.660  0.4537 -1.0773 -0.4792
16452TIP3   OH270846   0.774   6.226  12.722 -0.0470 -0.5723  0.7519
16452TIP3    H170847   0.704   6.192  12.666  0.5938 -1.1997  0.3149
16452TIP3    H270848   0.796   6.311  12.683  2.0822 -2.0394 -1.5343
16453TIP3   OH270849   3.552   4.913  16.263 -0.3898  0.0202 -0.3304
16453TIP3    H170850   3.514   4.966  16.333 -1.7183 -1.6517  0.2997
16453TIP3    H270851   3.492   4.924  16.189 -0.0851  0.2044 -0.5570
16454TIP3   OH270852   6.092   0.818  14.396 -0.3981 -0.4979  0.1131
16454TIP3    H170853   6.027   0.796  14.329 -1.1379 -0.6016  0.8489
16454TIP3    H270854   6.091   0.913  14.398 -0.3603 -0.4932 -0.0357
16455TIP3   OH270855   6.656   2.863  14.867  0.1287 -0.3267 -0.5868
16455TIP3    H170856   6.637   2.926  14.936  1.6448  0.4989 -0.8825
16455TIP3    H270857   6.709   2.795  14.909  0.5537 -0.1332 -0.8088
16456TIP3   OH270858   2.531   3.148  12.600 -0.3955  0.5065 -0.4641
16456TIP3    H170859   2.546   3.206  12.526  0.5366 -1.4633 -1.9169
16456TIP3    H270860   2.463   3.087  12.570  0.8480 -1.0785 -0.2187
16457TIP3   OH270861   6.349   3.485  16.057  0.3839 -0.2463 -0.2760
16457TIP3    H170862   6.280   3.450  16.001  1.1737 -1.2524 -0.6619
16457TIP3    H270863   6.305   3.547  16.115 -0.9326 -1.2592 -0.1490
16458TIP3   OH270864   4.964   5.262  15.270  0.3061 -0.2498 -0.7204
16458TIP3    H170865   4.997   5.330  15.327 -0.9070 -0.7790  0.6760
16458TIP3    H270866   5.035   5.245  15.208  0.6383  2.2434 -1.1035
16459TIP3   OH270867   3.424   2.608  11.418  0.0540 -0.6295 -0.6276
16459TIP3    H170868   3.363   2.568  11.356 -1.1947 -0.9969  0.7843
16459TIP3    H270869   3.392   2.698  11.428  0.0093 -0.6870 -0.2304
16460TIP3   OH270870   5.640   4.791  14.025  0.2927  0.0777  0.1923
16460TIP3    H170871   5.619   4.824  13.938 -1.2274  1.3634  0.9820
16460TIP3    H270872   5.606   4.702  14.027  1.6238 -0.4778 -0.9691
16461TIP3   OH270873   0.051   0.168  16.078  0.3030 -0.0714  0.4022
16461TIP3    H170874   0.093   0.253  16.088 -0.1169  0.4488 -1.7773
16461TIP3    H270875  -0.042   0.187  16.088  0.3047 -0.6311  1.7323
16462TIP3   OH270876   1.064   6.508  16.085  0.2913  0.0498  0.4509
16462TIP3    H170877   1.144   6.507  16.139  1.6453  0.1057 -1.4525
16462TIP3    H270878   1.035   6.417  16.085  2.0223 -0.5748 -1.0907
16463TIP3   OH270879   6.322   3.853  14.985 -0.1251 -0.2955  0.4325
16463TIP3    H170880   6.265   3.925  15.011  0.8513 -0.1713  2.4005
16463TIP3    H270881   6.274   3.774  15.012  0.0458 -0.2596  0.8334
16464TIP3   OH270882   4.001   4.061  14.027  0.1376  0.0139 -0.1539
16464TIP3    H170883   4.059   4.018  13.964  0.0174  0.4638 -0.5780
16464TIP3    H270884   4.036   4.037  14.113  0.3323 -0.5669 -0.3890
16465TIP3   OH270885   3.966   4.773   4.093 -0.2532 -0.3084 -0.4621
16465TIP3    H170886   4.045   4.819   4.063  0.7120 -0.9576  0.9662
16465TIP3    H270887   3.914   4.841   4.137 -0.1426 -0.0247 -0.7662
16466TIP3   OH270888   4.972   3.349   1.651  0.4301  0.7395 -0.1962
16466TIP3    H170889   4.877   3.339   1.640  0.3856  0.1203  0.6855
16466TIP3    H270890   5.004   3.369   1.563  0.0841 -3.9166 -1.6539
16467TIP3   OH270891   4.775   0.278  15.758  0.3159 -0.2739 -0.0479
16467TIP3    H170892   4.758   0.334  15.682  1.2602 -0.8538 -0.7181
16467TIP3    H270893   4.727   0.198  15.740 -1.1968  0.3563  1.0063
16468TIP3   OH270894   1.002   0.168  11.139 -0.0734 -0.1172 -0.0081
16468TIP3    H170895   0.930   0.110  11.164 -1.2094  1.3183  0.2170
16468TIP3    H270896   0.980   0.252  11.181  1.4586  0.5004 -0.3902
16469TIP3   OH270897   3.673   4.432   0.281  0.5087  0.1889 -0.9183
16469TIP3    H170898   3.649   4.439   0.189  2.3952  0.3219 -1.4342
16469TIP3    H270899   3.713   4.517   0.302  2.3126 -0.6640 -0.7006
16470TIP3   OH270900   4.960   2.312   4.335 -0.2855  0.3130 -0.4172
16470TIP3    H170901   5.000   2.310   4.247  0.5597  0.0216 -0.0381
16470TIP3    H270902   5.010   2.247   4.385 -0.2419  1.0315  0.4967
16471TIP3   OH270903   0.104   1.582   4.261  0.3265  0.2057 -0.0083
16471TIP3    H170904   0.169   1.635   4.215  0.9149  1.0485  1.7054
16471TIP3    H270905   0.033   1.571   4.198  1.0617  1.3481 -1.0851
16472TIP3   OH270906   5.891   5.390   4.521  0.0236  0.2350  0.5385
16472TIP3    H170907   5.908   5.300   4.495  0.8861  0.8776 -1.3332
16472TIP3    H270908   5.797   5.393   4.538 -0.0477 -0.9763  0.4532
16473TIP3   OH270909   2.423   4.875   2.892  0.3665  0.0503  0.4412
16473TIP3    H170910   2.404   4.789   2.856  1.0905  0.1745 -0.2706
16473TIP3    H270911   2.396   4.936   2.823  0.2194  0.3770  0.7837
16474TIP3   OH270912   4.754   5.427   3.986 -0.2151  0.3159  0.4404
16474TIP3    H170913   4.670   5.389   3.959 -0.0985  0.0290  0.4690
16474TIP3    H270914   4.807   5.426   3.907  0.6064 -1.8294  0.9333
16475TIP3   OH270915   0.582   4.708   2.743  0.4488 -0.2331 -0.0220
16475TIP3    H170916   0.639   4.665   2.807 -0.8315 -0.6899  0.8617
16475TIP3    H270917   0.497   4.668   2.757  0.0745 -0.1659 -1.8772
16476TIP3   OH270918   2.219   5.585   4.082  0.2885 -0.2294  0.4556
16476TIP3    H170919   2.202   5.493   4.067  1.4739 -0.5320  0.8702
16476TIP3    H270920   2.234   5.592   4.177 -1.3844  0.6672  0.6939
16477TIP3   OH270921   0.518   0.801  12.534  0.2772  0.0078 -0.4914
16477TIP3    H170922   0.436   0.836  12.499 -0.7037 -1.4411  0.2583
16477TIP3    H270923   0.493   0.760  12.617  2.2386  1.9452  1.2011
16478TIP3   OH270924   1.768   2.926  14.925  0.3859  0.1132 -0.0749
16478TIP3    H170925   1.741   3.013  14.897  0.4701 -0.5163 -2.3302
16478TIP3    H270926   1.727   2.915  15.011  1.1695  2.6924  0.7289
16479TIP3   OH270927   1.960   4.338  15.431 -0.4210  0.2218  0.2142
16479TIP3    H170928   2.044   4.293  15.427 -0.8150 -0.4351 -1.0867
16479TIP3    H270929   1.895   4.268  15.437 -0.9551  0.6731 -0.2165
16480TIP3   OH270930   0.485   4.835  11.316  0.3566 -0.3928  0.5340
16480TIP3    H170931   0.391   4.831  11.298 -0.3149  1.7064  2.9383
16480TIP3    H270932   0.527   4.813  11.233 -2.2421 -0.0645 -0.9658
16481TIP3   OH270933   3.826   2.181  14.042  0.4346  0.4158 -0.0776
16481TIP3    H170934   3.754   2.223  13.996 -0.0404  1.7402  1.7441
16481TIP3    H270935   3.895   2.248  14.046  0.8596 -0.0288  0.2485
16482TIP3   OH270936   4.733   3.248  16.455  0.7523  0.0146  0.0136
16482TIP3    H170937   4.673   3.176  16.440  1.6781 -1.1119  1.5053
16482TIP3    H270938   4.683   3.312  16.506 -0.5063  1.1520 -2.4390
16483TIP3   OH270939   0.881   2.502   0.117 -0.6885  0.3251 -0.0248
16483TIP3    H170940   0.945   2.571   0.099 -0.6377  0.4454  0.5961
16483TIP3    H270941   0.933   2.429   0.150 -0.7803  0.1159 -0.3431
16484TIP3   OH270942   4.160   0.813   4.656 -0.5238  0.2174  0.0761
16484TIP3    H170943   4.130   0.798   4.745  1.0979 -1.0500  0.4457
16484TIP3    H270944   4.182   0.907   4.654 -0.6110  0.2661  0.9879
16485TIP3   OH270945   6.577   2.612  14.774  0.0159  0.4708 -0.1974
16485TIP3    H170946   6.607   2.549  14.839 -0.8340  0.9627  0.6899
16485TIP3    H270947   6.568   2.694  14.822 -0.7961  0.8083 -0.8928
16486TIP3   OH270948   6.384   4.526   4.720 -0.4263 -0.6951 -0.2124
16486TIP3    H170949   6.464   4.577   4.735 -0.5677 -0.7862  0.8851
16486TIP3    H270950   6.337   4.576   4.654 -0.3999  0.4341  0.5993
16487TIP3   OH270951   4.301   0.098  15.267 -0.3986 -0.7499 -0.4228
16487TIP3    H170952   4.334   0.045  15.340  1.8527 -1.0014 -1.5374
16487TIP3    H270953   4.313   0.188  15.296  3.6010 -0.7306 -1.5653
16488TIP3   OH270954   1.805   1.137  14.174 -0.0883  0.3244  0.6258
16488TIP3    H170955   1.873   1.170  14.115 -0.5493 -0.4187 -0.3351
16488TIP3    H270956   1.784   1.050  14.141 -1.3718  0.4637  1.0246
16489TIP3   OH270957   4.930   3.720   4.684 -0.5240  0.1385 -0.2265
16489TIP3    H170958   4.888   3.802   4.709 -1.8416 -0.4004 -0.5481
16489TIP3    H270959   4.962   3.683   4.766  1.1093  1.4767 -0.2066
16490TIP3   OH270960   6.183   3.356   5.804  0.2874  0.7276  0.9809
16490TIP3    H170961   6.128   3.278   5.816  0.7906  0.2835  0.4231
16490TIP3    H270962   6.273   3.323   5.809  0.5315  0.9184 -1.4101
16491TIP3   OH270963   0.349   2.548  15.963 -0.1580  0.0196 -0.5621
16491TIP3    H170964   0.398   2.620  16.003  1.2711 -1.4314  0.4244
16491TIP3    H270965   0.306   2.504  16.036 -1.7671  0.3542 -1.2527
16492TIP3   OH270966   3.305   5.066  13.199 -0.4408 -0.0477  0.1569
16492TIP3    H170967   3.217   5.042  13.173  0.1243  1.0140 -3.2606
16492TIP3    H270968   3.362   5.018  13.139  1.1417  1.3677  0.4328
16493TIP3   OH270969   2.550   0.862  13.713  0.6683  0.2073 -0.2748
16493TIP3    H170970   2.645   0.871  13.717  0.5456  1.1861  2.4199
16493TIP3    H270971   2.525   0.828  13.799 -1.5011  0.8915 -0.5612
16494TIP3   OH270972   5.128   4.918   6.762  0.6393  0.1136  0.3121
16494TIP3    H170973   5.151   4.883   6.848 -1.0213 -1.2079  0.2843
16494TIP3    H270974   5.124   4.841   6.705  1.1108  0.8970 -0.8137
16495TIP3   OH270975   0.254   6.648  14.859  0.0768 -0.0824  0.6516
16495TIP3    H170976   0.266   6.704  14.936 -0.7730  0.1210  0.6501
16495TIP3    H270977   0.250   6.710  14.786  1.2324 -0.2957  0.3826
16496TIP3   OH270978   6.689   2.425   0.803 -0.3541  0.1496 -0.0270
16496TIP3    H170979   6.732   2.407   0.719  1.2011  1.4237  0.4653
16496TIP3    H270980   6.728   2.362   0.864  0.4048  0.9135  0.2894
16497TIP3   OH270981   2.563   5.958  10.955  0.2744 -0.0262 -0.1728
16497TIP3    H170982   2.579   6.030  10.894 -1.4070 -0.2102 -0.8919
16497TIP3    H270983   2.548   5.882  10.899 -0.6482 -0.3416  0.4689
16498TIP3   OH270984   0.213   2.363  15.229  0.3684  0.1923  0.5408
16498TIP3    H170985   0.118   2.356  15.216  0.4460 -2.6860  0.8745
16498TIP3    H270986   0.229   2.319  15.312  1.9687  1.1363  0.7626
16499TIP3   OH270987   1.252   4.405  10.546  0.6752  0.2101 -0.0826
16499TIP3    H170988   1.263   4.353  10.625  0.0633 -1.0574 -0.8014
16499TIP3    H270989   1.159   4.399  10.526  0.9055  0.0614 -1.1876
16500TIP3   OH270990   3.951   1.394  13.791  0.5698  0.0720 -0.0745
16500TIP3    H170991   3.920   1.370  13.704 -1.1770 -0.4534  0.6524
16500TIP3    H270992   3.900   1.471  13.815 -0.2668 -0.8435  1.1801
16501TIP3   OH270993   1.881   2.492   4.981 -0.1844  0.0820  0.4451
16501TIP3    H170994   1.917   2.565   4.930 -1.0377 -0.0886 -0.4288
16501TIP3    H270995   1.839   2.436   4.916  1.2110 -1.6679  0.9930
16502TIP3   OH270996   2.876   2.394  13.903  0.0459  0.0549  0.0270
16502TIP3    H170997   2.847   2.485  13.902 -1.1315 -0.3023 -1.1797
16502TIP3    H270998   2.899   2.375  13.812  0.4484 -0.8085  0.2951
16503TIP3   OH270999   3.505   1.289   5.083  0.2739 -0.6218 -0.0823
16503TIP3    H171000   3.426   1.253   5.121  0.3385 -0.0207  0.6390
16503TIP3    H271001   3.506   1.256   4.993  0.3708 -2.4531  0.5471
16504TIP3   OH271002   4.662   1.551  12.940 -0.1335 -0.0394  0.2543
16504TIP3    H171003   4.657   1.476  12.881  0.7647  1.5990 -2.0696
16504TIP3    H271004   4.739   1.534  12.995 -0.5527 -1.2629  0.4975
16505TIP3   OH271005   3.022   1.011  11.495  0.2909  0.0060  0.6833
16505TIP3    H171006   3.114   1.035  11.491  0.5354 -0.9253  0.6315
16505TIP3    H271007   2.977   1.081  11.446  1.1651 -0.6081 -1.0755
16506TIP3   OH271008   1.117   3.677  16.719  0.0014  0.0531 -0.2707
16506TIP3    H171009   1.139   3.744  16.653 -0.5913 -1.8829 -2.5604
16506TIP3    H271010   1.173   3.603  16.697 -2.0010 -1.5550 -0.2081
16507TIP3   OH271011   3.095   2.244   2.503 -0.1063  0.4103 -0.0851
16507TIP3    H171012   3.187   2.231   2.481 -0.1144  1.9709 -1.2544
16507TIP3    H271013   3.069   2.164   2.549  0.7073 -1.9463 -3.3364
16508TIP3   OH271014   2.919   3.447   2.442 -0.1344 -0.4473 -0.7801
16508TIP3    H171015   3.006   3.461   2.405 -0.0164  0.8939 -0.0381
16508TIP3    H271016   2.919   3.354   2.467  1.5640 -0.1768  0.3854
16509TIP3   OH271017   3.681   1.293   1.309  0.4356  0.4046  0.3238
16509TIP3    H171018   3.766   1.304   1.350  0.1054  1.6373  0.7045
16509TIP3    H271019   3.681   1.202   1.277  1.3800 -0.0134  1.4655
16510TIP3   OH271020   3.833   6.440   0.057 -0.1191 -0.4283  0.1043
16510TIP3    H171021   3.867   6.388   0.129  2.8318 -0.0789 -0.8792
16510TIP3    H271022   3.909   6.492   0.028 -1.4834  0.2819 -2.4844
16511TIP3   OH271023   0.815   1.097  13.686 -0.0041  0.5114  0.2943
16511TIP3    H171024   0.811   1.046  13.767  2.2808 -0.0489  0.1339
16511TIP3    H271025   0.909   1.106  13.669 -0.4266  1.6701 -1.6436
16512TIP3   OH271026   6.115   1.671  16.402  0.7449  0.0322  0.2898
16512TIP3    H171027   6.149   1.646  16.316  1.1891  0.0672  0.4559
16512TIP3    H271028   6.170   1.744  16.430  0.7665 -0.1475  0.7216
16513TIP3   OH271029   0.242   2.950   0.222  0.3326 -0.0204  0.0761
16513TIP3    H171030   0.240   3.000   0.141 -4.0792  2.6840  1.4928
16513TIP3    H271031   0.308   2.995   0.276 -1.1108  2.2270  0.0772
16514TIP3   OH271032   4.853   3.782  11.795  0.1946 -0.4354  0.2208
16514TIP3    H171033   4.857   3.711  11.859 -0.0572 -1.3539 -0.7384
16514TIP3    H271034   4.937   3.828  11.804  0.6598 -1.2978  0.3700
16515TIP3   OH271035   3.724   5.649  11.683 -0.2352  0.7161  0.7608
16515TIP3    H171036   3.807   5.678  11.718 -0.0159  1.1687 -0.1076
16515TIP3    H271037   3.699   5.575  11.738  1.2281 -0.0600  0.4129
16516TIP3   OH271038   4.933   1.804   1.240 -0.1224  0.5535  0.4711
16516TIP3    H171039   4.889   1.877   1.283  0.6998  2.2938 -1.5036
16516TIP3    H271040   4.863   1.742   1.220 -1.1510  1.7289  0.3598
16517TIP3   OH271041   4.150   6.451  15.890 -0.2516  0.4173  0.1673
16517TIP3    H171042   4.225   6.465  15.832 -0.2181  1.0910  0.3573
16517TIP3    H271043   4.074   6.473  15.836 -0.2440  0.6986  0.2703
16518TIP3   OH271044   6.830   5.260   2.646  0.0694 -0.0882  0.1276
16518TIP3    H171045   6.838   5.261   2.742 -0.4504  0.8914  0.1792
16518TIP3    H271046   6.784   5.178   2.627 -2.4616  1.0037  1.0052
16519TIP3   OH271047   2.833   6.660  12.053  0.4021  0.0815 -0.0690
16519TIP3    H171048   2.902   6.652  12.119  0.0284  0.9216  0.4393
16519TIP3    H271049   2.790   6.575  12.053  1.8174 -0.6759 -0.8430
16520TIP3   OH271050   0.832   1.477   5.860 -0.1406  0.0998 -0.6114
16520TIP3    H171051   0.767   1.437   5.918 -1.1672  0.9084 -1.1604
16520TIP3    H271052   0.916   1.442   5.889 -0.9921 -2.8324 -1.3687
16521TIP3   OH271053   3.323   6.066  17.072 -0.0989 -0.4509  0.2933
16521TIP3    H171054   3.392   6.133  17.070  1.2547 -1.8089 -0.3845
16521TIP3    H271055   3.304   6.054  17.165  0.5078  0.0108  0.4819
16522TIP3   OH271056   2.644   1.673   2.208  1.0506  0.7549  0.3605
16522TIP3    H171057   2.611   1.606   2.149 -0.0573  1.9399 -0.4034
16522TIP3    H271058   2.633   1.635   2.296 -1.7260  0.7931  0.1136
16523TIP3   OH271059   2.248   1.944   5.842 -0.3852 -0.3964  0.0456
16523TIP3    H171060   2.332   1.924   5.800  0.7836  0.9472  1.6348
16523TIP3    H271061   2.225   1.865   5.890 -0.4376 -1.0305 -0.9923
16524TIP3   OH271062   0.994   5.435  13.368  0.1468  0.1837  0.1008
16524TIP3    H171063   0.926   5.433  13.435 -0.2807 -1.0761 -0.3409
16524TIP3    H271064   1.024   5.344  13.361  1.2580  0.5613 -0.3475
16525TIP3   OH271065   6.796   6.401  16.534 -0.3455 -0.3767  0.0475
16525TIP3    H171066   6.867   6.337  16.539  1.2536  1.3349  0.1984
16525TIP3    H271067   6.753   6.383  16.451 -0.2818 -1.9882  0.3409
16526TIP3   OH271068   3.505   3.848   2.134 -0.4114 -0.6326  0.2397
16526TIP3    H171069   3.445   3.912   2.172  0.7828 -0.4504  1.9166
16526TIP3    H271070   3.592   3.888   2.144  0.1604 -1.6197 -0.5921
16527TIP3   OH271071   5.115   6.705   5.299 -0.2583  0.5486 -0.1966
16527TIP3    H171072   5.194   6.692   5.352 -0.6416  0.2351  0.3047
16527TIP3    H271073   5.146   6.702   5.208  0.1568 -0.6011 -0.0298
16528TIP3   OH271074   0.523   1.642  14.830 -0.3559  0.2757  0.0703
16528TIP3    H171075   0.451   1.665  14.889  1.2937  0.9584  1.9332
16528TIP3    H271076   0.568   1.724  14.812 -0.4313 -0.0190 -1.6846
16529TIP3   OH271077   0.120   1.321   0.283  0.1740  0.3242 -0.5251
16529TIP3    H171078   0.177   1.278   0.346 -0.2570 -0.5034 -0.6811
16529TIP3    H271079   0.103   1.407   0.320 -0.3480 -0.2691  0.6675
16530TIP3   OH271080   2.638   0.032   0.508  0.3751 -0.6309 -0.2924
16530TIP3    H171081   2.641   0.125   0.489 -0.4931 -0.3788  0.6959
16530TIP3    H271082   2.694  -0.008   0.441  1.5969  0.6828 -0.1157
16531TIP3   OH271083   6.815   4.949  11.666  0.0150  0.3273  0.1332
16531TIP3    H171084   6.790   4.859  11.643 -0.3855  0.6525 -0.7614
16531TIP3    H271085   6.905   4.942  11.696 -0.0074 -0.3763  0.0616
16532TIP3   OH271086   5.939   2.225   5.749  0.3543 -0.2259  0.2070
16532TIP3    H171087   6.006   2.273   5.797  0.6483  0.4335 -0.8148
16532TIP3    H271088   5.987   2.178   5.681 -0.2422  0.6220 -0.8256
16533TIP3   OH271089   4.700   1.494  16.074 -0.0604  0.0091 -0.3815
16533TIP3    H171090   4.639   1.495  16.000 -0.0484  3.6858 -0.4933
16533TIP3    H271091   4.768   1.556  16.050  2.0129 -1.5055  1.2064
16534TIP3   OH271092   3.492   2.109  14.353  0.5552  0.2421 -0.6480
16534TIP3    H171093   3.473   2.043  14.421  0.3344  0.6751 -0.2873
16534TIP3    H271094   3.567   2.073  14.306 -1.5877 -2.0158 -2.7323
16535TIP3   OH271095   5.930   3.719  16.682  0.4298 -0.2027 -0.4005
16535TIP3    H171096   5.855   3.776  16.699  1.0228  0.9548 -1.5220
16535TIP3    H271097   5.913   3.682  16.595  0.3387 -1.3229  0.0671
16536TIP3   OH271098   4.662   2.054   6.889 -0.2939  0.2680  0.2419
16536TIP3    H171099   4.739   2.084   6.841 -0.4504 -0.4892 -0.4981
16536TIP3    H271100   4.604   2.131   6.893 -0.2438  0.3611 -0.7122
16537TIP3   OH271101   0.918   6.599   2.429 -0.6334 -0.4577 -0.3112
16537TIP3    H171102   0.981   6.527   2.428 -0.3224 -0.1998 -1.7121
16537TIP3    H271103   0.872   6.591   2.345 -1.4888  0.2125  0.0778
16538TIP3   OH271104   2.598   3.260  15.592  0.1340 -0.0501  0.5050
16538TIP3    H171105   2.677   3.278  15.644 -0.1989 -0.4268  1.1513
16538TIP3    H271106   2.592   3.164  15.591 -0.4225 -0.0173  0.6238
16539TIP3   OH271107   3.035   6.628   4.611 -0.0656  0.2944  0.8999
16539TIP3    H171108   2.949   6.610   4.650 -0.2108  0.9956  0.9087
16539TIP3    H271109   3.050   6.721   4.627  1.0652  0.0144  1.6235
16540TIP3   OH271110   0.901   2.407   0.875  0.1247 -0.6841  0.0074
16540TIP3    H171111   0.883   2.322   0.835 -4.1824  0.0655 -0.1682
16540TIP3    H271112   0.870   2.471   0.811  1.3825  0.9745  0.9761
16541TIP3   OH271113   2.834   5.470   4.913  0.0955  0.6210 -0.3303
16541TIP3    H171114   2.798   5.412   4.846  0.8292 -1.0645  0.6816
16541TIP3    H271115   2.776   5.546   4.912 -0.8708 -0.0908 -1.7367
16542TIP3   OH271116   1.758   5.402  17.025 -0.3376  0.1619 -0.1306
16542TIP3    H171117   1.687   5.353  16.984  0.2182 -1.7495  1.0842
16542TIP3    H271118   1.748   5.387  17.119  0.8793  0.9627  0.1632
16543TIP3   OH271119   3.033   5.533  14.255 -0.2934 -0.0598  0.3781
16543TIP3    H171120   2.969   5.604  14.263  0.3704  0.6580 -0.4749
16543TIP3    H271121   3.101   5.569  14.198  0.1527 -1.3207  0.0946
16544TIP3   OH271122   1.114   0.713  12.307 -0.1155 -0.0395  0.0194
16544TIP3    H171123   1.101   0.807  12.297 -1.4339 -0.1383  0.6536
16544TIP3    H271124   1.033   0.681  12.346  1.2811 -1.0336  2.3496
16545TIP3   OH271125   1.171   4.832   1.389 -0.3032  0.4552  0.0145
16545TIP3    H171126   1.079   4.858   1.397 -0.7138 -0.2611 -1.9155
16545TIP3    H271127   1.215   4.911   1.356 -0.3072  0.6423  0.4458
16546TIP3   OH271128   5.395   6.478   5.111 -0.5706  0.5386  0.5401
16546TIP3    H171129   5.318   6.467   5.167 -2.2791  1.3395 -1.5147
16546TIP3    H271130   5.361   6.472   5.022  2.1943 -1.7943 -0.5225
16547TIP3   OH271131   2.188   0.822  15.223 -0.8138 -0.6112  0.0654
16547TIP3    H171132   2.264   0.801  15.277 -0.8497 -1.9085 -0.3468
16547TIP3    H271133   2.211   0.905  15.181  0.5738 -1.2044 -0.4033
16548TIP3   OH271134   0.452   0.028  12.819  0.2249 -0.0354 -0.0602
16548TIP3    H171135   0.511   0.102  12.828 -0.9359  0.7985  1.2090
16548TIP3    H271136   0.457   0.003  12.727  1.2520  1.0935 -0.3251
16549TIP3   OH271137   1.929   3.707   3.324  0.4315 -0.2264 -1.0187
16549TIP3    H171138   1.967   3.735   3.407 -0.4864 -0.8815 -0.3468
16549TIP3    H271139   1.910   3.788   3.277  1.3616  0.1412 -0.7892
16550TIP3   OH271140   6.808   5.877  14.468 -0.0199 -0.0119  0.1206
16550TIP3    H171141   6.834   5.855  14.378 -1.2361 -0.3187 -0.1831
16550TIP3    H271142   6.720   5.913  14.458  0.7557  2.3169  0.9283
16551TIP3   OH271143   1.507   5.737   4.880 -0.1083 -0.3648  0.4616
16551TIP3    H171144   1.531   5.709   4.792 -0.9594  0.3086 -0.0056
16551TIP3    H271145   1.589   5.736   4.929  1.0480  2.2770 -1.1513
16552TIP3   OH271146   4.890   5.577  14.424 -0.0116  0.0836  0.3491
16552TIP3    H171147   4.815   5.522  14.401  0.8619 -0.1367 -2.3665
16552TIP3    H271148   4.965   5.518  14.419  0.7073  1.0309 -0.5309
16553TIP3   OH271149   2.473   4.259  15.314 -0.1404 -0.1643  0.3182
16553TIP3    H171150   2.394   4.262  15.367 -0.5714  1.6316 -0.3525
16553TIP3    H271151   2.525   4.189  15.352 -1.4810 -0.5144  1.5818
16554TIP3   OH271152   3.246   4.044   5.035  0.2877 -0.2273  0.0981
16554TIP3    H171153   3.336   4.061   5.064  1.3627 -0.9656 -2.5227
16554TIP3    H271154   3.256   4.003   4.949 -2.5797 -0.5908 -0.1528
16555TIP3   OH271155   5.590   0.643  16.856 -0.2593  0.5085 -0.5400
16555TIP3    H171156   5.631   0.697  16.923 -1.7936  0.9620  0.0811
16555TIP3    H271157   5.588   0.698  16.778 -0.5855  0.8636 -0.2846
16556TIP3   OH271158   0.080   0.091  15.531  0.1820 -0.1135  0.4321
16556TIP3    H171159   0.159   0.039  15.519  0.8628  0.9883 -0.0465
16556TIP3    H271160   0.111   0.173  15.569 -0.5637  0.7633 -0.7788
16557TIP3   OH271161   1.903   5.571   3.759  0.2886 -0.1021  0.0137
16557TIP3    H171162   1.916   5.648   3.814  1.1199 -0.4189  0.2758
16557TIP3    H271163   1.886   5.606   3.672  0.7574  0.3760  0.1099
16558TIP3   OH271164   2.558   1.441   4.893 -0.3348 -0.3306 -0.3667
16558TIP3    H171165   2.511   1.413   4.972 -0.7097 -1.3411 -0.9392
16558TIP3    H271166   2.501   1.509   4.855 -0.9861 -1.0362 -0.6659
16559TIP3   OH271167   2.013   6.593  11.522  0.2732  0.2800 -0.2416
16559TIP3    H171168   2.000   6.583  11.428 -0.0246  1.1475 -0.3013
16559TIP3    H271169   2.064   6.516  11.547 -0.0410 -0.2033 -1.0241
16560TIP3   OH271170   0.357   1.579  15.075  0.0591  0.5644  0.3536
16560TIP3    H171171   0.270   1.559  15.112  0.1513  0.7701  0.6828
16560TIP3    H271172   0.402   1.495  15.075  0.6526  0.8276  2.2753
16561TIP3   OH271173   3.259   5.260  15.002  0.2966 -0.5326 -0.1946
16561TIP3    H171174   3.290   5.187  15.056 -0.9943 -1.1857 -0.2894
16561TIP3    H271175   3.270   5.337  15.057  1.1970 -0.8570  0.1049
16562TIP3   OH271176   5.466   0.575  14.289  0.1006  0.1505 -0.4898
16562TIP3    H171177   5.431   0.526  14.364 -0.5706  0.3409 -0.6686
16562TIP3    H271178   5.500   0.507  14.231 -0.3488 -0.0800 -0.4946
16563TIP3   OH271179   0.152   0.759   2.063 -0.2706 -0.1238  0.4973
16563TIP3    H171180   0.118   0.795   2.144 -2.0638  0.7135 -0.5602
16563TIP3    H271181   0.102   0.678   2.050 -1.8803  1.0249 -0.9808
16564TIP3   OH271182   0.260   3.222  11.577  0.2047  0.2018 -0.1197
16564TIP3    H171183   0.209   3.300  11.602 -2.1612 -0.8985 -1.1412
16564TIP3    H271184   0.307   3.249  11.498 -0.6431  0.6020 -0.5048
16565TIP3   OH271185   6.335   4.197  14.973 -0.5450  0.3192  0.2474
16565TIP3    H171186   6.286   4.142  15.035  0.1674 -0.3756  0.2025
16565TIP3    H271187   6.292   4.182  14.889 -0.4758 -0.0266  0.2712
16566TIP3   OH271188   2.908   2.471   0.221 -0.0737 -0.0518  0.0701
16566TIP3    H171189   2.864   2.435   0.298 -0.2574 -0.5213 -0.2571
16566TIP3    H271190   2.856   2.442   0.147  1.5246 -1.8471 -0.4530
16567TIP3   OH271191   1.075   1.574  13.210 -0.1868 -0.0580 -0.1794
16567TIP3    H171192   1.146   1.635  13.232 -0.4805  0.7491 -1.3525
16567TIP3    H271193   1.105   1.531  13.129 -0.3875 -0.8143  0.1379
16568TIP3   OH271194   6.708   6.049   5.337 -0.2758  0.1855 -0.2273
16568TIP3    H171195   6.771   6.120   5.326 -1.3176  1.1085 -0.4695
16568TIP3    H271196   6.758   5.969   5.318  0.9720  0.8234  0.2778
16569TIP3   OH271197   5.076   6.347   2.839  0.1571  0.3043 -0.6460
16569TIP3    H171198   4.983   6.331   2.827  0.7585 -2.9589 -1.8288
16569TIP3    H271199   5.090   6.337   2.934 -0.4962 -0.4596 -0.6273
16570TIP3   OH271200   0.862   2.926   0.327 -0.9526 -0.5186  0.1677
16570TIP3    H171201   0.954   2.915   0.352 -0.6560 -0.4635 -0.8404
16570TIP3    H271202   0.816   2.937   0.410  0.0613  0.3322  0.6493
16571TIP3   OH271203   2.524   2.307   3.799  0.6273  0.8318 -0.2156
16571TIP3    H171204   2.450   2.363   3.773  0.9162  0.7555 -1.2252
16571TIP3    H271205   2.505   2.284   3.890 -0.6845  0.6824 -0.5067
16572TIP3   OH271206   4.121   6.303   2.694  0.2709 -0.0724  0.4170
16572TIP3    H171207   4.140   6.212   2.719  0.8430 -0.2068 -0.4405
16572TIP3    H271208   4.123   6.352   2.776 -0.8328 -0.9551  1.0039
16573TIP3   OH271209   2.589   3.557   4.823 -0.4126  0.0064  0.2917
16573TIP3    H171210   2.630   3.540   4.907 -0.0321  0.6079  0.2284
16573TIP3    H271211   2.505   3.511   4.828  1.4624 -3.9806 -0.7448
16574TIP3   OH271212   1.830   1.849  10.962 -0.0462  0.2248 -0.4397
16574TIP3    H171213   1.920   1.882  10.961 -0.0967  0.4056  0.1954
16574TIP3    H271214   1.836   1.760  10.928  0.5597 -0.1782  0.6616
16575TIP3   OH271215   3.765   5.166  11.380  0.1699 -0.5648 -0.0511
16575TIP3    H171216   3.824   5.210  11.319 -1.0074 -0.0224 -0.8444
16575TIP3    H271217   3.783   5.206  11.464 -0.3010  0.8939 -0.6097
16576TIP3   OH271218   2.517   2.361   3.042  0.3429 -0.0350  0.2607
16576TIP3    H171219   2.569   2.339   2.966 -0.5369  0.6897 -0.5884
16576TIP3    H271220   2.472   2.280   3.065 -0.4072  0.0512 -0.8334
16577TIP3   OH271221   1.152   1.729  12.835  0.2695  0.3153  0.3335
16577TIP3    H171222   1.240   1.708  12.866  0.1826 -2.0881 -0.7725
16577TIP3    H271223   1.120   1.797  12.894  1.8389 -0.7344  2.4932
16578TIP3   OH271224   1.818   4.097   4.405 -0.5536 -0.2384 -0.1261
16578TIP3    H171225   1.736   4.051   4.423 -0.4446  0.0822  1.3031
16578TIP3    H271226   1.816   4.114   4.311 -0.7951 -2.7684 -0.6372
16579TIP3   OH271227   1.817   3.629  12.339 -0.3553 -0.6536  0.2634
16579TIP3    H171228   1.884   3.641  12.406 -0.5211  1.8571  0.0634
16579TIP3    H271229   1.742   3.679  12.370 -1.0750 -0.9225 -0.9557
16580TIP3   OH271230   0.689   4.360   3.387 -0.5935 -0.5960  0.2623
16580TIP3    H171231   0.714   4.324   3.303 -1.2143 -0.5857  0.0672
16580TIP3    H271232   0.643   4.289   3.431  0.6511 -0.9492  1.0341
16581TIP3   OH271233   3.980   4.832   0.993 -0.5734  0.3531  0.6047
16581TIP3    H171234   3.940   4.828   0.906 -1.3131 -0.1430  0.9579
16581TIP3    H271235   4.038   4.908   0.989 -1.0270  0.6755 -0.1455
16582TIP3   OH271236   4.445   1.409   5.877  0.9217  0.1950  0.2709
16582TIP3    H171237   4.465   1.393   5.969 -2.5122 -1.2975  0.9333
16582TIP3    H271238   4.357   1.372   5.865  0.1457  2.5928 -2.9690
16583TIP3   OH271239   4.735   0.808   5.757  0.2146  0.3277  0.5103
16583TIP3    H171240   4.763   0.842   5.842  0.2807  0.5860  0.3855
16583TIP3    H271241   4.795   0.735   5.740 -0.3828 -0.3266  1.1094
16584TIP3   OH271242   0.278   0.912  11.988 -0.4612  0.3975  0.4267
16584TIP3    H171243   0.238   0.848  12.047 -0.6334  1.3868  1.4068
16584TIP3    H271244   0.270   0.872  11.901 -1.7220 -0.3506  0.8495
16585TIP3   OH271245   5.528   0.423   6.177 -0.0116 -0.5593  0.3036
16585TIP3    H171246   5.624   0.412   6.174  0.2482  1.2788  0.6907
16585TIP3    H271247   5.516   0.517   6.193 -1.8915 -0.2821 -2.2113
16586TIP3   OH271248   4.211   5.620   1.044 -0.6378 -0.0139  0.0439
16586TIP3    H171249   4.280   5.570   1.087 -2.2845 -0.8172  1.9386
16586TIP3    H271250   4.208   5.703   1.092 -1.7465 -0.4594  0.7669
16587TIP3   OH271251   1.784   0.247   3.422  0.0823  0.1598 -0.1441
16587TIP3    H171252   1.789   0.159   3.385  0.0990  0.7173 -1.5094
16587TIP3    H271253   1.836   0.243   3.502  1.3230 -0.6882 -0.9709
16588TIP3   OH271254   1.485   5.768  14.559 -0.3975  0.2670 -0.7592
16588TIP3    H171255   1.443   5.846  14.525 -0.9686  0.5457  0.5295
16588TIP3    H271256   1.471   5.701  14.492 -0.6469  1.0369 -1.4845
16589TIP3   OH271257   3.671   4.674   4.593  0.5069 -0.0936  0.1121
16589TIP3    H171258   3.585   4.638   4.615  0.1239  0.7292 -0.0020
16589TIP3    H271259   3.652   4.752   4.541  1.3411 -2.5564 -4.3999
16590TIP3   OH271260   2.922   3.903  16.238 -0.0898 -0.1181  0.4816
16590TIP3    H171261   2.901   3.986  16.281 -1.6850 -0.3567  0.2354
16590TIP3    H271262   3.016   3.907  16.222 -0.3062  2.1391 -0.5779
16591TIP3   OH271263   6.699   1.897  16.078  0.5341  0.4273  0.0884
16591TIP3    H171264   6.787   1.923  16.052  0.3484  0.6681 -0.3074
16591TIP3    H271265   6.704   1.802  16.088  0.2418  0.0825 -2.3793
16592TIP3   OH271266   3.427   0.901   5.459 -0.5303  0.0951 -0.6169
16592TIP3    H171267   3.490   0.829   5.469 -0.3557  0.2509 -0.5976
16592TIP3    H271268   3.457   0.967   5.521  1.5288  1.7850 -3.1931
16593TIP3   OH271269   6.254   5.564   4.672 -0.0793 -0.2270 -0.0684
16593TIP3    H171270   6.300   5.511   4.608 -0.3817 -0.2562 -0.2636
16593TIP3    H271271   6.203   5.626   4.620 -0.7068 -0.5703  0.1260
16594TIP3   OH271272   6.036   5.485   3.865  0.2401  0.0515 -0.1868
16594TIP3    H171273   5.986   5.467   3.785  0.0631  0.9798 -0.2918
16594TIP3    H271274   6.099   5.413   3.870 -0.9603 -1.0426 -0.1531
16595TIP3   OH271275   4.880   0.415   4.302 -0.2642  0.0509  0.2134
16595TIP3    H171276   4.957   0.434   4.247  0.2029 -2.8328 -0.2727
16595TIP3    H271277   4.893   0.325   4.332 -2.1552  0.4026  2.3956
16596TIP3   OH271278   3.819   6.628  13.226  0.1414  0.1418  0.5343
16596TIP3    H171279   3.747   6.645  13.287  0.8480  0.9120  1.1836
16596TIP3    H271280   3.798   6.543  13.187 -1.6403  0.8035 -0.0678
16597TIP3   OH271281   1.401   6.222  12.490 -0.3171 -0.4071 -0.6499
16597TIP3    H171282   1.329   6.162  12.472  0.3290 -1.2173 -0.5860
16597TIP3    H271283   1.436   6.193  12.574 -0.2170  0.2778 -0.4528
16598TIP3   OH271284   5.434   3.041  14.164 -0.3159 -0.0433  0.9783
16598TIP3    H171285   5.341   3.020  14.172 -0.8961  2.3899  1.4251
16598TIP3    H271286   5.458   3.009  14.077 -0.6721 -3.5264  1.9894
16599TIP3   OH271287   3.554   0.255   0.324 -0.3615 -0.3190 -0.1608
16599TIP3    H171288   3.510   0.259   0.239  1.3899 -0.2203 -1.1135
16599TIP3    H271289   3.486   0.278   0.388 -1.5151  0.4357 -1.6058
16600TIP3   OH271290   0.536   6.772  16.671  0.2974 -0.1426  0.2523
16600TIP3    H171291   0.577   6.686  16.676 -2.5070 -1.9559 -3.5354
16600TIP3    H271292   0.460   6.766  16.729  0.0011 -0.2880 -0.1507
16601TIP3   OH271293   1.615   5.159   4.068 -0.2373 -0.3279  0.5268
16601TIP3    H171294   1.638   5.112   4.148 -1.4833  0.2394  1.2442
16601TIP3    H271295   1.597   5.249   4.096  0.1201  0.0870 -0.5188
16602TIP3   OH271296   2.204   0.097   3.818 -0.2749  0.7003  0.3847
16602TIP3    H171297   2.248   0.102   3.733 -1.0078  3.6337  0.0552
16602TIP3    H271298   2.269   0.131   3.880 -0.1576 -0.3161  0.8390
16603TIP3   OH271299   1.299   6.734   1.786  0.1582  0.7388  0.4586
16603TIP3    H171300   1.296   6.822   1.823 -2.4155  0.6396  0.6052
16603TIP3    H271301   1.241   6.737   1.711 -0.1865 -0.9064  0.6277
16604TIP3   OH271302   1.924   1.155   4.175  0.0740  0.0033  0.0187
16604TIP3    H171303   1.899   1.148   4.083  0.0855  0.5700 -0.0322
16604TIP3    H271304   1.938   1.064   4.203 -1.7241 -0.3339 -0.0353
16605TIP3   OH271305   5.914   5.459   0.360  0.2844  0.2038  0.0615
16605TIP3    H171306   5.925   5.367   0.383 -3.8145 -0.8801 -1.4265
16605TIP3    H271307   5.886   5.502   0.441 -0.8483 -0.5937  0.1105
16606TIP3   OH271308   2.506   4.626   2.608  0.0908 -0.1974 -0.5782
16606TIP3    H171309   2.497   4.552   2.549 -1.3508 -0.8726  0.4233
16606TIP3    H271310   2.430   4.621   2.665  1.7633 -0.0324  1.8415
16607TIP3   OH271311   1.989   3.693   4.802 -0.1417  0.1725 -0.1315
16607TIP3    H171312   1.908   3.735   4.775 -0.4696  0.0475  0.6440
16607TIP3    H271313   2.020   3.744   4.877 -0.3030 -0.6762  0.5266
16608TIP3   OH271314   0.986   6.617  13.139  0.2575  0.3970  0.1629
16608TIP3    H171315   1.001   6.536  13.091  0.4482  0.9214 -0.6775
16608TIP3    H271316   1.044   6.611  13.215  1.2915  0.3409 -0.6167
16609TIP3   OH271317   4.605   3.434  11.315 -0.6177  0.0411 -0.0089
16609TIP3    H171318   4.534   3.434  11.252 -0.0314  0.6958 -0.6940
16609TIP3    H271319   4.675   3.483  11.272  0.0608 -0.1462  0.8522
16610TIP3   OH271320   6.110   0.967  14.783 -0.0218  0.7032 -0.3428
16610TIP3    H171321   6.029   0.988  14.736  0.2925  1.3494 -0.5951
16610TIP3    H271322   6.160   1.048  14.783  0.2132  0.5751  0.6559
16611TIP3   OH271323   5.683   5.418   3.857 -0.0489 -0.6343  0.4636
16611TIP3    H171324   5.747   5.410   3.927 -0.6801 -0.6449  1.0514
16611TIP3    H271325   5.624   5.487   3.887 -1.2711 -1.7506  0.7061
16612TIP3   OH271326   6.207   1.222   4.636 -0.3297 -0.1145  0.3278
16612TIP3    H171327   6.180   1.184   4.553  0.1251 -0.1447  0.1922
16612TIP3    H271328   6.161   1.306   4.640 -0.9933 -0.4721  0.4273
16613TIP3   OH271329   6.381   6.283  12.439  0.5794  0.2731 -0.3672
16613TIP3    H171330   6.468   6.248  12.419  0.1968 -1.1625  0.3532
16613TIP3    H271331   6.322   6.209  12.425 -0.7505  1.5894 -2.2083
16614TIP3   OH271332   1.718   2.530  10.579 -0.1319  0.3422  0.1015
16614TIP3    H171333   1.742   2.479  10.502 -1.2230 -1.7535  1.0468
16614TIP3    H271334   1.800   2.563  10.614  0.4731  0.3987 -1.3323
16615TIP3   OH271335   4.813   4.243   0.153  0.2435  0.2015  0.0100
16615TIP3    H171336   4.851   4.159   0.178 -1.1172 -0.7129 -0.8346
16615TIP3    H271337   4.750   4.263   0.223 -0.2463 -0.0575 -0.3516
16616TIP3   OH271338   5.294   4.610   5.443 -0.6037  0.1650 -0.2868
16616TIP3    H171339   5.375   4.651   5.474  0.0403 -0.3839 -1.1806
16616TIP3    H271340   5.322   4.524   5.412 -1.7890 -0.6405  0.7860
16617TIP3   OH271341   5.919   3.711  12.010 -0.7281  0.2980 -0.2684
16617TIP3    H171342   5.849   3.682  11.952 -1.5448 -1.5666  1.5141
16617TIP3    H271343   5.989   3.647  11.997  0.2546  1.5188 -1.2278
16618TIP3   OH271344   0.486   0.285  16.910 -0.3606 -0.0942  0.3165
16618TIP3    H171345   0.507   0.216  16.973  0.6452  0.0232  0.1186
16618TIP3    H271346   0.528   0.257  16.829 -0.4749  0.4481  0.0660
16619TIP3   OH271347   6.558   3.271  14.877 -0.9762  0.3287  0.5308
16619TIP3    H171348   6.644   3.282  14.838 -1.0781 -0.2721  0.1200
16619TIP3    H271349   6.571   3.205  14.945 -1.3829 -0.8324 -0.4856
16620TIP3   OH271350   2.354   0.505  11.970 -0.6268 -0.4651 -0.2551
16620TIP3    H171351   2.303   0.472  12.045 -2.0888  1.0849 -0.4779
16620TIP3    H271352   2.290   0.512  11.899  0.5752 -1.1922 -1.4614
16621TIP3   OH271353   0.877   4.815  12.710 -0.2055  0.7263 -0.4032
16621TIP3    H171354   0.886   4.910  12.719 -2.3234  1.0893 -1.6254
16621TIP3    H271355   0.819   4.803  12.635 -1.3060 -1.5030  0.7135
16622TIP3   OH271356   3.564   4.118   2.233 -0.2050 -0.0305 -0.2623
16622TIP3    H171357   3.595   4.098   2.321  0.7779 -1.1535 -0.8375
16622TIP3    H271358   3.640   4.101   2.176 -1.3488 -1.1860 -1.5301
16623TIP3   OH271359   1.500   3.116   4.137  0.2059  0.0914 -0.4076
16623TIP3    H171360   1.546   3.127   4.220 -0.2632  0.1640 -0.1557
16623TIP3    H271361   1.540   3.039   4.097  0.2206 -0.1270  0.0262
16624TIP3   OH271362   3.787   5.910  10.951 -0.0626 -0.2479 -0.4695
16624TIP3    H171363   3.799   5.947  11.038 -0.5413 -3.9056  1.3471
16624TIP3    H271364   3.695   5.926  10.930 -0.4110 -0.8632  0.5217
16625TIP3   OH271365   0.391   2.445  12.053  0.4295  0.1016  0.6336
16625TIP3    H171366   0.441   2.527  12.049  1.0189 -0.1076  2.4355
16625TIP3    H271367   0.441   2.384  11.999  0.4844  0.6785  0.0169
16626TIP3   OH271368   1.045   0.484   1.511 -0.1145 -0.3329  0.1737
16626TIP3    H171369   1.024   0.544   1.582  1.0648  0.2635  0.0421
16626TIP3    H271370   1.087   0.409   1.554 -1.0087 -0.7892  0.2723
16627TIP3   OH271371   4.540   3.745   5.330  0.2719  0.5542 -0.7648
16627TIP3    H171372   4.594   3.824   5.329  0.4270  0.4927  0.5957
16627TIP3    H271373   4.597   3.676   5.294  0.6511  0.7529 -0.5472
16628TIP3   OH271374   4.904   4.579   0.248  0.3333  0.0653 -0.0630
16628TIP3    H171375   4.890   4.667   0.284 -0.0453 -0.2236  0.5069
16628TIP3    H271376   4.871   4.585   0.158 -0.5582  0.2564  0.2703
16629TIP3   OH271377   3.946   6.302  11.253  0.1859  0.3354 -0.2131
16629TIP3    H171378   3.999   6.379  11.236  0.6452  0.4262  1.4303
16629TIP3    H271379   3.859   6.324  11.220  0.2202  1.7114  0.5575
16630TIP3   OH271380   0.546   2.442   5.714 -0.0451  0.3611  0.3337
16630TIP3    H171381   0.573   2.367   5.767 -0.9156 -0.1547  0.0772
16630TIP3    H271382   0.573   2.419   5.625  1.7672  1.3993  0.5729
16631TIP3   OH271383   1.803   4.098   4.135 -0.1532 -0.3568  0.5871
16631TIP3    H171384   1.874   4.078   4.074 -0.1454 -1.6286  0.9969
16631TIP3    H271385   1.723   4.090   4.082 -0.0108  1.8964 -0.0929
16632TIP3   OH271386   2.270   6.046  16.973 -0.3122  0.2684 -0.6019
16632TIP3    H171387   2.358   6.047  16.936 -0.1126 -0.4352 -0.1651
16632TIP3    H271388   2.284   6.036  17.067 -0.8671 -0.1024 -0.5574
16633TIP3   OH271389   3.320   5.326  14.455 -0.0118  0.1869 -0.1855
16633TIP3    H171390   3.308   5.254  14.517 -1.7890  0.3568 -0.2778
16633TIP3    H271391   3.235   5.370  14.452  0.4307  1.0263 -1.7080
16634TIP3   OH271392   2.092   0.861  11.696  0.3424  0.7119  0.0726
16634TIP3    H171393   2.096   0.900  11.783 -0.0782  2.4820 -0.6498
16634TIP3    H271394   2.016   0.802  11.700  2.1923 -1.7357  1.7908
16635TIP3   OH271395   4.111   4.427  13.565 -0.0518 -0.4596 -0.1384
16635TIP3    H171396   4.069   4.341  13.561 -1.8836  0.3885 -0.2697
16635TIP3    H271397   4.120   4.454  13.474  1.0203 -0.7186 -0.1219
16636TIP3   OH271398   2.345   3.274  16.423  0.6624  0.3972  0.0696
16636TIP3    H171399   2.374   3.227  16.345  0.0498 -0.7963  0.5280
16636TIP3    H271400   2.373   3.219  16.496 -1.8274 -0.3688  0.5688
16637TIP3   OH271401   2.940   6.533   0.252  0.0126 -0.0309  0.2052
16637TIP3    H171402   2.906   6.450   0.220 -2.1759  0.9650 -0.2191
16637TIP3    H271403   2.924   6.531   0.346  1.8162 -0.8652  0.5414
16638TIP3   OH271404   0.939   6.028   0.457  0.2650 -0.1738 -0.2262
16638TIP3    H171405   0.991   6.090   0.508  0.2380  0.1402 -0.5731
16638TIP3    H271406   0.903   6.081   0.385 -0.4457 -0.4082 -0.0492
16639TIP3   OH271407   0.061   3.080   0.985 -0.3950 -0.2944 -0.2520
16639TIP3    H171408   0.154   3.060   0.973 -0.5015 -0.4263 -0.8927
16639TIP3    H271409   0.046   3.068   1.079  0.4169  0.5175 -0.0029
16640TIP3   OH271410   1.744   1.632   3.968 -1.0450 -0.1013 -0.0758
16640TIP3    H171411   1.664   1.671   3.933 -0.9517  0.0974 -0.0716
16640TIP3    H271412   1.730   1.630   4.062  0.0296  2.4745  0.2352
16641TIP3   OH271413   0.427   5.335  16.877  0.0660 -0.7169 -0.1111
16641TIP3    H171414   0.492   5.292  16.822  1.3133 -0.0245  0.7864
16641TIP3    H271415   0.346   5.287  16.859  0.5463 -0.8839 -2.0787
16642TIP3   OH271416   6.293   4.255  13.969  0.1046 -0.0684  0.1257
16642TIP3    H171417   6.233   4.328  13.986  0.8088  0.9013 -1.3175
16642TIP3    H271418   6.237   4.179  13.960 -0.7510  0.4910  0.6129
16643TIP3   OH271419   3.066   5.785  15.667 -0.2852  0.2641 -0.5211
16643TIP3    H171420   3.101   5.718  15.725  0.1665  1.9877  1.3306
16643TIP3    H271421   2.978   5.802  15.701 -0.2727  0.8294 -0.7650
16644TIP3   OH271422   2.095   6.797  16.760  0.3593  0.2618  0.7542
16644TIP3    H171423   2.015   6.763  16.721  0.6163  0.1080  0.3446
16644TIP3    H271424   2.072   6.885  16.789  0.4739  0.8642 -0.8710
16645TIP3   OH271425   0.265   4.032  12.392 -0.4527  0.0963 -0.0714
16645TIP3    H171426   0.252   3.966  12.324 -0.1183 -1.1306  1.0075
16645TIP3    H271427   0.353   4.017  12.425 -0.3232  1.1754  0.1272
16646TIP3   OH271428   6.588   2.668   0.730  0.5040  0.2316 -0.3701
16646TIP3    H171429   6.632   2.598   0.779 -0.2865  1.2692  1.9753
16646TIP3    H271430   6.549   2.623   0.655 -0.1478 -1.9394  1.1442
16647TIP3   OH271431   5.132   5.845   3.505  0.4540  1.0771 -0.3219
16647TIP3    H171432   5.095   5.798   3.431 -0.5568  0.6727  0.4226
16647TIP3    H271433   5.091   5.931   3.502 -0.1073  0.8277  0.1639
16648TIP3   OH271434   4.118   4.002   3.410  0.4038 -0.5435  0.6735
16648TIP3    H171435   4.186   3.974   3.472  0.5283 -1.2223  0.2454
16648TIP3    H271436   4.039   4.009   3.463  0.5591 -0.8821  0.9572
16649TIP3   OH271437   2.070   3.165   0.263  0.1981  0.2795  0.5714
16649TIP3    H171438   2.144   3.104   0.265 -0.7809 -1.0535 -0.8477
16649TIP3    H271439   2.071   3.201   0.174 -1.7866 -1.0846 -0.0941
16650TIP3   OH271440   4.673   2.508   1.919 -0.0012  0.1803  0.0212
16650TIP3    H171441   4.760   2.467   1.919 -0.1217 -0.2428 -2.4063
16650TIP3    H271442   4.612   2.436   1.907 -0.7722  0.4377  2.0823
16651TIP3   OH271443   5.750   3.565   6.475 -0.8797  0.2900 -0.1327
16651TIP3    H171444   5.786   3.639   6.426  2.1044  1.2207  3.0581
16651TIP3    H271445   5.693   3.604   6.541 -0.9451 -0.4505  0.2636
16652TIP3   OH271446   5.135   4.258  13.143 -0.5718 -0.2963  0.6829
16652TIP3    H171447   5.049   4.219  13.129 -0.6331  0.1228 -0.1205
16652TIP3    H271448   5.153   4.309  13.064  0.6288 -0.7720  0.6135
16653TIP3   OH271449   1.946   2.371  15.562  0.1522  0.2941  0.0067
16653TIP3    H171450   1.966   2.335  15.648  2.2406  0.5560 -0.3180
16653TIP3    H271451   1.958   2.466  15.572  1.0414  0.2705 -0.7029
16654TIP3   OH271452   2.849   1.282   5.706 -0.4015 -0.3158 -0.1435
16654TIP3    H171453   2.816   1.201   5.746  1.1285 -0.4366  0.9881
16654TIP3    H271454   2.807   1.352   5.754 -0.9372 -0.4414 -0.4242
16655TIP3   OH271455   6.255   0.031   4.745  0.3015 -0.3498 -0.6463
16655TIP3    H171456   6.285   0.105   4.694 -0.5381  0.1307 -0.4583
16655TIP3    H271457   6.232   0.068   4.831 -1.9774 -0.4480 -1.1565
16656TIP3   OH271458   0.237   1.146   0.492  0.5703  0.0833 -0.4198
16656TIP3    H171459   0.275   1.231   0.514 -0.0531  0.0197  0.9771
16656TIP3    H271460   0.264   1.088   0.563 -1.0303 -0.2808 -0.0749
16657TIP3   OH271461   1.095   4.567   4.573  0.0670  0.2823  0.1840
16657TIP3    H171462   1.104   4.618   4.653  0.1671  1.9423 -0.8324
16657TIP3    H271463   1.182   4.533   4.556  0.1082  0.1629  0.6298
16658TIP3   OH271464   2.811   5.429  16.741 -0.5008 -0.6478  0.2426
16658TIP3    H171465   2.893   5.386  16.718 -0.2502  0.5930 -1.3098
16658TIP3    H271466   2.744   5.363  16.725 -0.2276 -0.2595 -3.0832
16659TIP3   OH271467   0.080   4.611  16.446  0.0084 -0.2704 -0.4268
16659TIP3    H171468   0.010   4.677  16.449 -0.2896 -0.6193  1.1408
16659TIP3    H271469   0.042   4.534  16.488  0.5510 -1.2746 -1.7063
16660TIP3   OH271470   6.193   4.377   1.239 -0.2519  0.0776  0.0097
16660TIP3    H171471   6.165   4.455   1.191 -1.9730  0.3497  1.3835
16660TIP3    H271472   6.203   4.406   1.330 -0.9355 -1.2845  0.5487
16661TIP3   OH271473   5.590   5.196   5.738  0.6757  0.1384 -0.1974
16661TIP3    H171474   5.649   5.206   5.664 -1.1885  0.1834 -1.7677
16661TIP3    H271475   5.616   5.265   5.799  0.9773  1.4743 -1.7461
16662TIP3   OH271476   5.587   0.746  13.331  0.0525 -0.2758 -0.6929
16662TIP3    H171477   5.611   0.827  13.285  1.8594 -0.5671 -0.3462
16662TIP3    H271478   5.578   0.772  13.423 -2.2295  0.0490 -0.9656
16663TIP3   OH271479   0.251   3.180   0.040 -0.3921 -0.2541 -0.3441
16663TIP3    H171480   0.331   3.147  -0.001 -1.8527 -1.3942 -2.4743
16663TIP3    H271481   0.241   3.268   0.005  0.2147  0.1083  0.3791
16664TIP3   OH271482   4.357   5.479   1.711 -0.1497  0.4978 -0.0022
16664TIP3    H171483   4.362   5.432   1.795 -1.2879  0.3997  0.0282
16664TIP3    H271484   4.280   5.535   1.719 -0.9416 -0.3378 -1.3814
16665TIP3   OH271485   2.003   3.827   5.707  0.2746  0.2160 -0.0361
16665TIP3    H171486   1.917   3.817   5.666  0.5102 -3.0605  0.0601
16665TIP3    H271487   2.035   3.738   5.720  1.6495  1.1089  4.3439
16666TIP3   OH271488   2.541   4.282  11.946  0.0016  0.2335  0.4115
16666TIP3    H171489   2.456   4.318  11.972 -0.7358  0.8301 -2.3798
16666TIP3    H271490   2.598   4.359  11.938 -0.5664  0.5092 -2.0705
16667TIP3   OH271491   1.512   0.680   1.861  0.6582 -0.5739  0.0592
16667TIP3    H171492   1.419   0.656   1.861  0.5884 -0.4272  1.6111
16667TIP3    H271493   1.513   0.775   1.849  0.6224 -0.6187 -0.2916
16668TIP3   OH271494   2.620   5.266  12.157  0.0208 -0.2820 -0.2446
16668TIP3    H171495   2.686   5.243  12.223  0.4326  0.6700 -0.3062
16668TIP3    H271496   2.559   5.192  12.158 -0.0375 -0.2489  1.2669
16669TIP3   OH271497   0.319   0.708   4.437 -0.4045  0.6763  0.4212
16669TIP3    H171498   0.287   0.716   4.527 -1.0447 -0.8050  0.3592
16669TIP3    H271499   0.245   0.734   4.383 -1.1124 -1.3900  0.3036
16670TIP3   OH271500   0.237   1.329   4.293 -0.4212 -0.4736 -0.5560
16670TIP3    H171501   0.245   1.270   4.218 -1.4324 -0.1645 -0.9143
16670TIP3    H271502   0.223   1.415   4.254  1.0672  0.0397 -0.0383
16671TIP3   OH271503   4.976   2.443  10.778  0.2368  0.5169 -0.1202
16671TIP3    H171504   5.047   2.449  10.714 -0.4049 -0.1014 -0.9158
16671TIP3    H271505   5.006   2.376  10.840  0.1011 -0.1770 -0.7906
16672TIP3   OH271506   3.693   5.499   6.217 -0.6396 -0.1871 -0.4284
16672TIP3    H171507   3.741   5.545   6.148  0.2611  0.6937  0.7521
16672TIP3    H271508   3.609   5.545   6.221 -0.1906  0.6285 -0.0603
16673TIP3   OH271509   6.484   0.934  14.761  0.4471  0.6029  0.0685
16673TIP3    H171510   6.479   0.851  14.713  1.8959  0.7231 -0.3204
16673TIP3    H271511   6.484   0.907  14.853 -0.6764  0.2828 -0.0039
16674TIP3   OH271512   0.172   5.989   1.828 -0.0132 -0.1395 -0.2247
16674TIP3    H171513   0.201   5.990   1.920 -0.1832  1.7219 -0.1410
16674TIP3    H271514   0.252   5.975   1.778  0.6038  1.7678  0.1322
16675TIP3   OH271515   6.467   6.346  13.916  0.6525  0.7602 -0.1085
16675TIP3    H171516   6.520   6.423  13.894  0.7871  0.8273  0.4181
16675TIP3    H271517   6.521   6.271  13.891  1.0372  0.8273  0.4997
16676TIP3   OH271518   3.425   0.253   4.921  0.0129  0.1154  0.3536
16676TIP3    H171519   3.445   0.300   4.839  0.3709  0.2273  0.5042
16676TIP3    H271520   3.354   0.304   4.960 -0.1617  0.0609  0.1128
16677TIP3   OH271521   0.615   4.836   1.151  0.2261  0.3091 -0.1012
16677TIP3    H171522   0.659   4.879   1.225  0.3511  3.2416 -1.7255
16677TIP3    H271523   0.523   4.832   1.176  0.5112 -0.3031  0.8856
16678TIP3   OH271524   1.742   5.955   0.040  0.2068  0.0679  0.4326
16678TIP3    H171525   1.735   6.044   0.007  0.6591  0.3537  1.0612
16678TIP3    H271526   1.722   5.963   0.134  0.3012 -0.4792  0.5023
16679TIP3   OH271527   1.800   0.668   2.439 -0.2191 -0.4466  0.0324
16679TIP3    H171528   1.818   0.575   2.425  2.1257  0.0950 -1.0325
16679TIP3    H271529   1.824   0.710   2.357 -0.2012  1.2450  0.8585
16680TIP3   OH271530   3.905   5.956  10.692 -0.4421  0.2026  0.1078
16680TIP3    H171531   3.879   5.952  10.784 -2.1358  1.3872 -0.2803
16680TIP3    H271532   3.865   5.879  10.652 -1.6807  0.9132 -0.0684
16681TIP3   OH271533   6.501   5.305  11.542  0.6261 -0.3833 -0.4284
16681TIP3    H171534   6.463   5.226  11.580 -1.9179  0.4122 -1.1079
16681TIP3    H271535   6.595   5.287  11.537  0.2423 -2.9456  0.3166
16682TIP3   OH271536   0.987   2.099   1.095 -0.3561  0.3216 -0.9246
16682TIP3    H171537   1.077   2.127   1.077 -0.3645  0.5016 -0.7034
16682TIP3    H271538   0.946   2.176   1.135 -0.0404 -0.3529  0.8237
16683TIP3   OH271539   2.597   6.193  15.081 -0.1708  0.4772 -0.4928
16683TIP3    H171540   2.544   6.261  15.122  0.1123  0.9351 -0.8751
16683TIP3    H271541   2.675   6.239  15.050  0.7490 -0.2924  0.5942
16684TIP3   OH271542   4.938   0.589  14.876 -0.2850  0.0052  0.2120
16684TIP3    H171543   4.932   0.540  14.795  1.1863 -0.1782  0.2039
16684TIP3    H271544   4.930   0.523  14.945 -1.5053  0.1576  0.2543
16685TIP3   OH271545   2.895   3.953   0.692  0.3928  0.3172 -0.2174
16685TIP3    H171546   2.831   4.024   0.689  0.1925  0.1266 -2.6535
16685TIP3    H271547   2.978   3.994   0.667  0.0770 -0.3990 -2.7240
16686TIP3   OH271548   3.248   1.159  11.432 -0.1689  0.0498  0.4375
16686TIP3    H171549   3.242   1.238  11.486 -0.0066  1.4268 -1.4317
16686TIP3    H271550   3.257   1.192  11.343 -0.3026 -2.1157 -0.4433
16687TIP3   OH271551   4.861   1.705  13.562  0.2759 -0.0982 -0.0185
16687TIP3    H171552   4.849   1.794  13.529  0.7371 -0.2714 -0.6718
16687TIP3    H271553   4.814   1.704  13.646  1.2178  1.0903  0.5618
16688TIP3   OH271554   4.583   3.718   0.292 -0.5617 -1.1293 -0.1819
16688TIP3    H171555   4.652   3.774   0.257 -0.8473 -0.0424  0.9241
16688TIP3    H271556   4.503   3.750   0.251 -0.6745 -1.0117  0.1295
16689TIP3   OH271557   3.030   2.186   5.198  0.1466  0.0249  0.1228
16689TIP3    H171558   2.986   2.267   5.175  0.2175  0.3565  1.1048
16689TIP3    H271559   3.124   2.208   5.194  0.1557  0.2454  1.2053
16690TIP3   OH271560   6.299   2.451  11.147  0.3944  0.3609  0.6081
16690TIP3    H171561   6.235   2.460  11.218 -2.8768 -2.0279 -1.7341
16690TIP3    H271562   6.294   2.533  11.099 -0.8333  0.2612  0.5477
16691TIP3   OH271563   6.373   1.130   5.956  0.2857  0.1609 -0.2207
16691TIP3    H171564   6.416   1.214   5.974  0.7332 -0.0257 -0.3943
16691TIP3    H271565   6.295   1.131   6.010  0.5070  0.5136  0.0997
16692TIP3   OH271566   0.215   4.144  11.991 -0.3045 -0.0078  0.5052
16692TIP3    H171567   0.139   4.124  12.046  0.0148 -1.7825  0.3565
16692TIP3    H271568   0.267   4.206  12.044 -1.1423  0.1086  1.2090
16693TIP3   OH271569   0.031   0.502  15.828  0.1847  0.3667  0.3739
16693TIP3    H171570   0.054   0.573  15.888  1.0341 -0.2507  0.7929
16693TIP3    H271571  -0.035   0.540  15.770  1.2538  1.7784  0.0298
16694TIP3   OH271572   3.123   4.025  11.557 -0.4161 -0.0199 -0.6478
16694TIP3    H171573   3.095   4.081  11.485  1.6055  3.1193  0.7888
16694TIP3    H271574   3.213   4.052  11.575 -0.1721 -2.0685  1.7919
16695TIP3   OH271575   3.113   1.473  15.258  0.3541 -0.2842  0.2109
16695TIP3    H171576   3.176   1.544  15.273  0.3349  0.2977 -2.1538
16695TIP3    H271577   3.029   1.517  15.249  0.5474 -0.3271 -2.7959
16696TIP3   OH271578   3.340   4.152  12.394  0.2585 -0.3325 -0.2403
16696TIP3    H171579   3.393   4.114  12.465 -0.2710  0.5464  0.6502
16696TIP3    H271580   3.252   4.118  12.410  0.1437 -0.1549 -0.5058
16697TIP3   OH271581   0.141   4.506   5.932  0.0666 -0.4572  0.4170
16697TIP3    H171582   0.088   4.490   5.854  0.1485 -0.5184  0.3736
16697TIP3    H271583   0.231   4.495   5.902  0.1738  0.9336  0.1947
16698TIP3   OH271584   6.631   2.134  12.737 -0.3687 -0.0301 -0.2711
16698TIP3    H171585   6.681   2.055  12.717  0.1183  0.8307 -2.8238
16698TIP3    H271586   6.549   2.123  12.690 -1.0746  0.2165  0.8588
16699TIP3   OH271587   4.344   6.291  13.991 -0.1261  0.1579  0.7475
16699TIP3    H171588   4.345   6.199  14.014 -2.5303  0.6571  3.3930
16699TIP3    H271589   4.320   6.336  14.073 -1.3449  2.8956 -0.9704
16700TIP3   OH271590   1.612   1.401   3.024  0.1028 -0.1776 -0.4358
16700TIP3    H171591   1.555   1.470   2.989 -0.3212 -0.2512  0.0899
16700TIP3    H271592   1.647   1.437   3.105  0.1766 -0.4385 -0.3511
16701TIP3   OH271593   1.612   1.754   6.134 -0.2793  0.4037 -0.9370
16701TIP3    H171594   1.663   1.830   6.161 -2.8529  1.5372  1.1294
16701TIP3    H271595   1.665   1.679   6.161  0.8612  1.4846 -0.0596
16702TIP3   OH271596   4.751   3.843   5.560  0.2058  0.8947 -0.4013
16702TIP3    H171597   4.773   3.933   5.535  1.0480  0.4863 -1.2082
16702TIP3    H271598   4.836   3.798   5.561 -0.1025  0.3116  0.8583
16703TIP3   OH271599   6.845   5.989   4.854  0.1614 -0.0679 -0.2730
16703TIP3    H171600   6.843   5.896   4.833  1.6710 -0.2734  0.3568
16703TIP3    H271601   6.938   6.013   4.850 -0.2072  1.4679 -0.6418
16704TIP3   OH271602   6.419   6.142   5.118 -0.3872 -0.4190  0.2561
16704TIP3    H171603   6.506   6.149   5.079 -0.4054  0.9242  0.4160
16704TIP3    H271604   6.424   6.065   5.174  0.2289 -1.2457 -0.8942
16705TIP3   OH271605   6.405   1.312   2.426  0.1060  0.1503 -0.6952
16705TIP3    H171606   6.447   1.264   2.355 -0.7979 -2.0058  0.1575
16705TIP3    H271607   6.402   1.250   2.499 -0.9676  1.5715  0.5319
16706TIP3   OH271608   2.650   5.073   4.489  0.7214 -0.3843  0.1517
16706TIP3    H171609   2.605   5.043   4.410  0.3010 -2.6841  1.2017
16706TIP3    H271610   2.630   5.007   4.555  3.0222  0.2204  1.5557
16707TIP3   OH271611   4.587   2.207   2.691 -0.7372  0.2768  0.3057
16707TIP3    H171612   4.495   2.189   2.710 -1.2897  0.2948 -2.0809
16707TIP3    H271613   4.605   2.159   2.610  2.0727 -1.6911  1.8994
16708TIP3   OH271614   3.922   5.671  12.707 -0.6248  0.9420 -0.0892
16708TIP3    H171615   3.867   5.596  12.684 -0.4299  0.6801  0.3064
16708TIP3    H271616   3.966   5.694  12.626  0.2620 -0.1454  0.0689
16709TIP3   OH271617   1.890   4.087  13.716 -0.4786  0.0881 -0.6262
16709TIP3    H171618   1.866   4.025  13.786  0.6062  1.2386  0.8191
16709TIP3    H271619   1.816   4.083  13.655 -1.7604 -0.5251  0.8870
16710TIP3   OH271620   2.464   3.468  14.431  0.0820  0.1363 -0.1300
16710TIP3    H171621   2.511   3.397  14.388  0.9551  0.7495 -0.2147
16710TIP3    H271622   2.531   3.515  14.480 -0.6360  0.3892  0.6334
16711TIP3   OH271623   6.535   0.121  14.659 -0.6521 -0.3467 -0.0038
16711TIP3    H171624   6.590   0.133  14.582 -1.3523  1.9720 -0.2133
16711TIP3    H271625   6.575   0.175  14.727 -2.4029  1.1187 -0.0619
16712TIP3   OH271626   3.775   4.646  15.521  0.4759 -0.0416  0.6718
16712TIP3    H171627   3.753   4.724  15.573  0.6819  0.8006 -0.4613
16712TIP3    H271628   3.823   4.681  15.446 -1.0896 -1.0510 -0.8672
16713TIP3   OH271629   2.466   3.048   0.359  0.3613  0.5478 -0.2186
16713TIP3    H171630   2.533   2.979   0.359  2.4106  2.4462  0.5144
16713TIP3    H271631   2.393   3.010   0.309  1.0608 -2.4236  0.8325
16714TIP3   OH271632   0.972   6.344  13.860 -0.5523 -0.0519  0.0298
16714TIP3    H171633   0.981   6.269  13.801  1.8135  0.3617 -0.2187
16714TIP3    H271634   0.989   6.420  13.805 -0.6651  0.5091  0.7551
16715TIP3   OH271635   5.348   5.381  16.523  0.0079 -0.5363  0.2741
16715TIP3    H171636   5.442   5.398  16.527 -0.0770 -0.2877  1.4112
16715TIP3    H271637   5.315   5.445  16.460  0.6491 -0.8809 -0.4251
16716TIP3   OH271638   2.289   1.760  13.382 -0.1197  0.1116 -0.6748
16716TIP3    H171639   2.207   1.721  13.350 -0.1630 -0.6954  0.3466
16716TIP3    H271640   2.343   1.685  13.407  0.2273  0.6651  0.3319
16717TIP3   OH271641   6.376   5.392  16.198 -0.0264  0.6978 -0.4657
16717TIP3    H171642   6.325   5.369  16.275 -0.9427 -0.9040 -1.4889
16717TIP3    H271643   6.462   5.353  16.215  0.6567  2.6265  0.8584
16718TIP3   OH271644   2.658   6.022  10.430  0.6818  0.0430 -0.0501
16718TIP3    H171645   2.657   6.065  10.344 -0.2322 -0.9823 -0.5835
16718TIP3    H271646   2.618   5.937  10.414  0.4608 -0.1517  1.4104
16719TIP3   OH271647   3.715   4.217   5.551  0.4245 -0.0711  0.1702
16719TIP3    H171648   3.643   4.260   5.598  0.3372  0.7114 -0.6496
16719TIP3    H271649   3.672   4.172   5.478  0.3857 -2.4530  1.5540
16720TIP3   OH271650   2.220   1.249   2.110 -0.2723  0.0136  0.1118
16720TIP3    H171651   2.316   1.249   2.117 -0.2663 -0.1541  0.0197
16720TIP3    H271652   2.195   1.341   2.124  0.1017  0.6691 -2.8411
16721TIP3   OH271653   3.589   4.221  15.808  0.2006 -0.3040  0.2708
16721TIP3    H171654   3.498   4.208  15.834 -0.4086  0.1092 -1.4942
16721TIP3    H271655   3.584   4.279  15.732  2.0745  1.2542  1.2461
16722TIP3   OH271656   3.761   2.643  11.964 -0.0865  0.0229 -0.2057
16722TIP3    H171657   3.760   2.738  11.951 -0.0396  0.3139  1.7264
16722TIP3    H271658   3.788   2.608  11.879  2.5143  1.8578 -0.2569
16723TIP3   OH271659   3.253   2.145  15.000  0.4473  0.8338 -0.1907
16723TIP3    H171660   3.167   2.179  15.028 -0.9767 -1.6966 -1.1063
16723TIP3    H271661   3.260   2.170  14.908 -0.3632 -0.7430 -0.7187
16724TIP3   OH271662   6.167   4.776  12.103  0.2287 -0.4041  0.3757
16724TIP3    H171663   6.083   4.744  12.069  0.6466 -0.2527 -0.8406
16724TIP3    H271664   6.232   4.747  12.038  0.8294  1.4476  0.0807
16725TIP3   OH271665   3.942   4.147   3.639  0.2106 -0.3180 -0.3521
16725TIP3    H171666   3.875   4.142   3.571 -0.6099 -0.4662  0.4452
16725TIP3    H271667   3.928   4.233   3.679  0.6433 -0.2591 -0.3276
16726TIP3   OH271668   3.275   0.448   0.437 -0.1576 -0.2708  0.8518
16726TIP3    H171669   3.206   0.511   0.416  1.3650  2.1320  2.4399
16726TIP3    H271670   3.230   0.364   0.445 -2.2721  0.5157 -1.6021
16727TIP3   OH271671   2.754   1.547   2.941  0.1203 -0.1268  0.5053
16727TIP3    H171672   2.778   1.583   3.026 -0.8961  2.7027 -0.2830
16727TIP3    H271673   2.660   1.563   2.933  0.0118 -1.2154 -0.7867
16728TIP3   OH271674   0.285   1.484  11.636  0.1049  0.1846 -0.4078
16728TIP3    H171675   0.354   1.536  11.595  0.5547 -0.2836 -0.2483
16728TIP3    H271676   0.323   1.452  11.717  0.3782 -1.6687 -1.2270
16729TIP3   OH271677   5.001   6.741  14.816  0.5434 -0.8398  0.2723
16729TIP3    H171678   5.058   6.672  14.781  1.2613 -0.5622  0.8697
16729TIP3    H271679   4.913   6.703  14.813  0.5617 -0.7951 -1.8643
16730TIP3   OH271680   6.100   1.025  10.477 -0.3644 -0.6439  0.7499
16730TIP3    H171681   6.099   1.045  10.384  3.0387  1.7262  1.0495
16730TIP3    H271682   6.152   0.945  10.484  1.2591  0.3575  0.6674
16731TIP3   OH271683   5.708   4.562  12.416 -0.5460  0.4954 -1.0344
16731TIP3    H171684   5.741   4.488  12.466 -0.0113  1.1461 -0.3952
16731TIP3    H271685   5.626   4.586  12.460  0.7606  2.1586  0.7177
16732TIP3   OH271686   6.820   0.235   5.003  0.4764  0.4968 -0.2001
16732TIP3    H171687   6.908   0.219   5.036  0.2897 -0.4901 -0.1245
16732TIP3    H271688   6.824   0.322   4.963  1.8329 -0.0476 -1.3361
16733TIP3   OH271689   6.170   2.087   1.451 -0.2208 -0.2939  1.0278
16733TIP3    H171690   6.189   2.141   1.374 -2.2928 -0.5082  0.2838
16733TIP3    H271691   6.248   2.034   1.464  0.5706  0.5085 -0.2809
16734TIP3   OH271692   4.264   3.381   3.904  0.2873 -0.4105 -0.2116
16734TIP3    H171693   4.312   3.299   3.892  1.0146 -0.0252 -0.0225
16734TIP3    H271694   4.322   3.435   3.957 -0.1636  0.2469 -0.3749
16735TIP3   OH271695   4.870   6.590  16.574  0.3100  0.0660  0.5664
16735TIP3    H171696   4.950   6.539  16.583  0.5854  0.6336  1.4946
16735TIP3    H271697   4.858   6.599  16.480 -0.8508 -3.3611  0.2468
16736TIP3   OH271698   6.053   4.164   6.011 -0.2130  0.5741  0.1469
16736TIP3    H171699   6.053   4.228   6.083  3.9537  0.5978  0.3345
16736TIP3    H271700   6.084   4.083   6.051  2.5877  0.6946 -1.5750
16737TIP3   OH271701   2.142   1.991  15.953 -0.0175 -0.3997 -0.4038
16737TIP3    H171702   2.192   2.015  15.875 -1.3914 -0.7264 -1.4314
16737TIP3    H271703   2.053   1.976  15.921 -0.8130  0.2153  1.3526
16738TIP3   OH271704   6.585   4.363  13.947 -0.0671 -0.0596  0.3526
16738TIP3    H171705   6.508   4.305  13.949 -0.5441  0.4282 -1.9553
16738TIP3    H271706   6.639   4.328  13.877  1.6381 -0.0710  1.6016
16739TIP3   OH271707   4.860   2.186   5.176 -0.1442 -0.4203  0.8342
16739TIP3    H171708   4.944   2.230   5.164 -0.8562  0.4915 -1.1724
16739TIP3    H271709   4.795   2.254   5.164 -1.2459 -1.6612 -0.6849
16740TIP3   OH271710   6.457   2.298   6.721  0.0449 -0.4439 -0.0565
16740TIP3    H171711   6.522   2.269   6.785  0.4588 -0.8201 -0.6418
16740TIP3    H271712   6.492   2.380   6.685 -0.4347  0.0434  0.5580
16741TIP3   OH271713   2.764   6.056   1.562 -0.0564 -0.5043 -0.0136
16741TIP3    H171714   2.770   5.989   1.631 -1.3307  0.3660  0.9996
16741TIP3    H271715   2.674   6.086   1.566 -0.7080 -1.6229 -3.2915
16742TIP3   OH271716   5.162   5.808   2.432  0.0910  0.1970 -0.2783
16742TIP3    H171717   5.111   5.850   2.363 -1.6697  0.7413  1.2459
16742TIP3    H271718   5.230   5.873   2.454 -0.4627  0.8008 -0.3004
16743TIP3   OH271719   2.504   6.837   2.095  0.3717 -0.4334 -0.1236
16743TIP3    H171720   2.549   6.834   2.179  0.4165 -1.1563 -0.1633
16743TIP3    H271721   2.411   6.842   2.117  0.4585  2.2772 -0.0316
16744TIP3   OH271722   3.335   3.218   0.254 -0.0582  0.2392 -0.1599
16744TIP3    H171723   3.404   3.193   0.315 -1.3557  0.5621  1.5329
16744TIP3    H271724   3.381   3.246   0.175  1.9711  3.2261  1.8684
16745TIP3   OH271725   3.542   4.391  11.582  0.0372  0.8209  0.6059
16745TIP3    H171726   3.621   4.380  11.635  1.0906 -1.6050 -1.2738
16745TIP3    H271727   3.536   4.486  11.568  2.5683  1.0970  0.8938
16746TIP3   OH271728   3.427   6.443   5.520  0.0053  0.0962  0.3568
16746TIP3    H171729   3.438   6.432   5.426 -0.0073 -1.0894  0.4834
16746TIP3    H271730   3.516   6.441   5.556 -0.1098 -3.5926  0.7631
16747TIP3   OH271731   5.477   2.183  14.459 -0.2098  0.2244  0.1642
16747TIP3    H171732   5.545   2.121  14.432 -0.6366 -0.6584  1.0152
16747TIP3    H271733   5.400   2.128  14.476 -1.2601  1.2410 -1.1201
16748TIP3   OH271734   2.551   1.128   6.055 -0.5270 -0.2870  0.0603
16748TIP3    H171735   2.472   1.099   6.101 -0.0044  0.8398  1.7725
16748TIP3    H271736   2.623   1.090   6.105  0.0386 -1.3804 -1.5428
16749TIP3   OH271737   3.816   2.214   5.103 -0.0987 -0.5097 -0.5533
16749TIP3    H171738   3.794   2.202   5.195 -1.0439  0.2530 -0.6711
16749TIP3    H271739   3.739   2.186   5.055  0.7964 -2.0041 -1.1893
16750TIP3   OH271740   3.099   2.093  13.638  0.2634  0.6749 -0.3197
16750TIP3    H171741   3.148   2.160  13.591  0.4527  0.1347 -0.9161
16750TIP3    H271742   3.008   2.120  13.632  0.5173  2.2794  1.7435
16751TIP3   OH271743   3.069   0.219  13.189  0.0040 -0.1033  0.3277
16751TIP3    H171744   3.133   0.151  13.167 -0.5103 -0.7433  0.7535
16751TIP3    H271745   3.029   0.188  13.271 -0.0705  0.8344  0.6596
16752TIP3   OH271746   5.214   2.321  11.089  0.2903 -0.7511 -0.1569
16752TIP3    H171747   5.146   2.309  11.023  0.1785 -0.1970 -0.1484
16752TIP3    H271748   5.287   2.267  11.059 -0.3004 -1.6776  0.0500
16753TIP3   OH271749   2.819   4.997  11.277 -0.4344 -0.1929  0.3550
16753TIP3    H171750   2.798   5.080  11.234 -1.9342 -0.6554  0.1398
16753TIP3    H271751   2.791   5.009  11.367  0.8312  0.0754  0.7201
16754TIP3   OH271752   5.909   2.076   2.966  0.2557 -0.7879  0.0230
16754TIP3    H171753   5.856   1.997   2.982 -0.3672 -0.4330 -0.2435
16754TIP3    H271754   5.898   2.128   3.046  1.8746 -1.6172  0.8330
16755TIP3   OH271755   3.470   5.792   0.584 -0.5848  0.4467 -0.1005
16755TIP3    H171756   3.498   5.705   0.555 -0.2719  0.2543  0.7508
16755TIP3    H271757   3.524   5.852   0.533 -1.1719  0.1681 -1.0805
16756TIP3   OH271758   4.829   5.374  11.302  0.3320 -0.4094 -0.4130
16756TIP3    H171759   4.911   5.352  11.258  0.6334  0.4833 -0.3277
16756TIP3    H271760   4.857   5.417  11.384 -0.2212 -1.4193  0.3200
16757TIP3   OH271761   0.830   3.190   4.005  0.2084  0.4641 -0.8719
16757TIP3    H171762   0.746   3.218   4.041  0.6481 -1.4805  1.9508
16757TIP3    H271763   0.815   3.185   3.911 -2.7511  0.3956 -0.4923
16758TIP3   OH271764   2.623   6.467  16.522  0.8543 -0.2311 -0.4106
16758TIP3    H171765   2.698   6.455  16.579  0.2413  1.9174  0.9721
16758TIP3    H271766   2.573   6.386  16.529  1.1277 -0.2607  1.6294
16759TIP3   OH271767   3.378   6.330  16.316 -0.2288  0.3298 -0.3506
16759TIP3    H171768   3.444   6.346  16.383  0.1215 -1.9703 -0.0954
16759TIP3    H271769   3.351   6.418  16.288 -0.2737  1.3898  2.6638
16760TIP3   OH271770   5.808   5.899  10.627 -0.0150 -0.3824 -0.5646
16760TIP3    H171771   5.718   5.922  10.651  0.0427  1.7042 -2.0469
16760TIP3    H271772   5.835   5.836  10.693 -2.4666 -0.8684  0.0915
16761TIP3   OH271773   2.734   5.305   4.719 -0.1472 -0.2866 -0.0553
16761TIP3    H171774   2.682   5.238   4.764 -0.1910 -0.0885  0.1939
16761TIP3    H271775   2.775   5.258   4.646  0.7093 -0.8435  0.7559
16762TIP3   OH271776   4.755   6.544   1.408  0.4536  0.4311  0.3472
16762TIP3    H171777   4.729   6.548   1.316 -0.1748  1.8693  0.5532
16762TIP3    H271778   4.823   6.478   1.412  0.2992  0.1669 -1.1064
16763TIP3   OH271779   6.345   3.424   5.367  0.3873  0.1129 -0.3572
16763TIP3    H171780   6.386   3.511   5.369  1.1321 -0.1967 -1.3335
16763TIP3    H271781   6.405   3.368   5.415  0.8140 -0.2150 -1.2542
16764TIP3   OH271782   5.233   6.435  13.994 -0.7247  0.1272  0.4005
16764TIP3    H171783   5.269   6.493  13.927 -2.2734  0.8966  0.1847
16764TIP3    H271784   5.309   6.392  14.032  0.2574  0.3059 -1.2750
16765TIP3   OH271785   2.637   4.287   6.669  0.4043 -0.3624  0.5085
16765TIP3    H171786   2.705   4.232   6.631  0.2502  0.2620 -0.7223
16765TIP3    H271787   2.685   4.358   6.713  0.5899 -1.2236  1.7411
16766TIP3   OH271788   1.482   0.702   3.295  0.1611  0.5089  0.9002
16766TIP3    H171789   1.449   0.726   3.382 -1.2626 -2.5084  1.3247
16766TIP3    H271790   1.482   0.606   3.295  0.7026  0.4064 -2.2500
16767TIP3   OH271791   1.181   1.573   2.326  0.5244  0.1337  0.6746
16767TIP3    H171792   1.095   1.582   2.367  1.0827 -2.2799  2.5884
16767TIP3    H271793   1.161   1.552   2.234 -0.8550  1.4828  0.6237
16768TIP3   OH271794   2.077   3.491   1.344  0.3840  0.0827  0.0908
16768TIP3    H171795   2.139   3.431   1.303  0.1517 -1.6384  2.0882
16768TIP3    H271796   1.991   3.459   1.319  0.2447 -0.8941  1.7054
16769TIP3   OH271797   2.944   1.127  16.140 -0.2302 -0.1665  0.5883
16769TIP3    H171798   2.940   1.204  16.197 -0.6680 -0.6501  1.2243
16769TIP3    H271799   2.853   1.100  16.130 -0.0911 -0.5098  0.2336
16770TIP3   OH271800   6.360   2.538   4.116  0.8447 -0.0901 -0.1115
16770TIP3    H171801   6.417   2.571   4.185 -0.0009 -1.0448  1.0864
16770TIP3    H271802   6.359   2.443   4.130  0.9882 -0.3490 -1.7111
16771TIP3   OH271803   2.832   0.881   6.003  0.0333 -0.5845  0.2261
16771TIP3    H171804   2.773   0.839   6.066 -0.9444 -0.6611 -0.7242
16771TIP3    H271805   2.775   0.934   5.948  1.2062  2.0443  1.3550
16772TIP3   OH271806   2.834   2.330   5.380  0.1221 -0.0776  0.0004
16772TIP3    H171807   2.884   2.253   5.409 -0.5696 -1.2651 -1.7368
16772TIP3    H271808   2.880   2.359   5.301 -1.2903 -0.5899 -1.0615
16773TIP3   OH271809   0.109   5.706   5.943  0.2345  0.2393 -0.6565
16773TIP3    H171810   0.131   5.696   6.036 -2.1337 -1.0383 -0.1704
16773TIP3    H271811   0.060   5.788   5.939  0.9487  0.6691 -0.9485
16774TIP3   OH271812   1.305   2.632  12.835 -0.2696 -0.4797 -0.2520
16774TIP3    H171813   1.281   2.627  12.927 -0.9468 -1.0148 -0.4529
16774TIP3    H271814   1.375   2.567  12.825 -0.3955 -0.6258 -0.1780
16775TIP3   OH271815   1.352   2.582   6.537  0.5557  0.2169  0.1125
16775TIP3    H171816   1.303   2.500   6.537  0.6600  0.1046  2.2059
16775TIP3    H271817   1.427   2.565   6.594  1.4547  1.2943 -0.6940
16776TIP3   OH271818   2.813   3.027   4.669  0.9056  0.1348 -0.2028
16776TIP3    H171819   2.727   2.999   4.700  0.7489 -0.0299 -0.7832
16776TIP3    H271820   2.874   2.964   4.707  0.6777 -0.2846 -0.5267
16777TIP3   OH271821   3.798   1.520   6.179  0.8131 -0.3553  0.1715
16777TIP3    H171822   3.863   1.451   6.190  0.5614 -0.2468  3.1704
16777TIP3    H271823   3.844   1.600   6.204  0.2581  0.1314 -0.3413
16778TIP3   OH271824   2.954   2.835   6.049 -0.5948 -0.2221  0.1626
16778TIP3    H171825   2.966   2.900   6.118 -1.1695  0.0035  0.0545
16778TIP3    H271826   2.996   2.756   6.083  0.0071  0.1691  0.3406
16779TIP3   OH271827   1.654   2.334   1.172  0.1725 -0.0531 -0.9517
16779TIP3    H171828   1.623   2.261   1.226  0.8962 -0.9476 -1.6969
16779TIP3    H271829   1.578   2.392   1.164 -0.3531 -0.6082 -0.1550
16780TIP3   OH271830   1.783   6.343  10.054 -0.7770 -0.1524  0.2424
16780TIP3    H171831   1.728   6.418  10.030  0.9953  0.6444 -1.6221
16780TIP3    H271832   1.796   6.297   9.972 -0.3424 -1.5015  1.0496
16781TIP3   OH271833   1.366   2.817   2.416  0.1725  0.6523 -0.6471
16781TIP3    H171834   1.305   2.874   2.370 -0.1554 -1.3403 -2.8601
16781TIP3    H271835   1.398   2.756   2.349  0.1649 -2.0345  1.5865
16782TIP3   OH271836   3.658   5.106  16.474  0.6683 -0.5373  0.0441
16782TIP3    H171837   3.658   5.142  16.386 -0.2163  2.5110  1.1642
16782TIP3    H271838   3.748   5.117  16.505  0.8266 -1.0132 -0.2395
16783TIP3   OH271839   5.303   2.707   6.771  0.2106  0.3668  0.5677
16783TIP3    H171840   5.264   2.794   6.770  0.3119  0.4686 -1.9926
16783TIP3    H271841   5.381   2.715   6.717  0.6689 -1.1383  0.9483
16784TIP3   OH271842   4.123   5.734  14.374 -0.4310 -0.0327  0.6467
16784TIP3    H171843   4.044   5.730  14.428 -2.5253  0.6165 -2.1570
16784TIP3    H271844   4.091   5.751  14.285  2.9447  1.3809 -0.4674
16785TIP3   OH271845   1.377   3.677  11.346  0.0341  0.2049  0.2372
16785TIP3    H171846   1.292   3.699  11.383 -0.0209  2.2014 -0.9466
16785TIP3    H271847   1.440   3.715  11.406  0.0784 -0.4472  0.6106
16786TIP3   OH271848   2.875   3.083   1.632  0.2156  0.4919 -0.1166
16786TIP3    H171849   2.781   3.092   1.648 -0.2123  0.1126 -2.1442
16786TIP3    H271850   2.899   3.001   1.674 -0.8065 -0.4150 -1.2488
16787TIP3   OH271851   4.718   1.948  10.428  0.2755  0.2574  0.1184
16787TIP3    H171852   4.775   1.950  10.351 -0.6588 -1.2774 -0.6539
16787TIP3    H271853   4.649   1.886  10.405 -0.2921  0.1276  2.0213
16788TIP3   OH271854   1.858   5.547   5.893 -0.0908  0.0465  0.0085
16788TIP3    H171855   1.811   5.556   5.810 -0.8137 -0.6453  0.3271
16788TIP3    H271856   1.790   5.523   5.956  0.0755  2.5915  1.2714
16789TIP3   OH271857   2.454   2.582   3.322 -0.6032 -0.2758 -0.4559
16789TIP3    H171858   2.405   2.603   3.402 -0.8344  0.3287 -0.7473
16789TIP3    H271859   2.390   2.593   3.252  0.2114  1.6330 -0.9615
16790TIP3   OH271860   2.819   6.773  13.652  0.2390  0.1846  0.7259
16790TIP3    H171861   2.897   6.828  13.657  1.2758 -1.1408 -0.3589
16790TIP3    H271862   2.766   6.802  13.726  0.1923  3.4043 -0.3967
16791TIP3   OH271863   5.032   5.705  10.313  0.7785 -0.3938  0.3202
16791TIP3    H171864   4.985   5.630  10.349 -0.0925  0.6321  1.4027
16791TIP3    H271865   4.978   5.734  10.239  1.0306 -0.7397  0.0015
16792TIP3   OH271866   3.917   4.990   5.604  0.8419 -0.0764  0.0725
16792TIP3    H171867   3.926   5.022   5.514  0.3788 -0.2719 -0.0477
16792TIP3    H271868   3.959   4.904   5.603 -0.4647 -0.7433 -0.3476
16793TIP3   OH271869   5.148   0.049  13.070 -0.2699 -0.2609  0.1931
16793TIP3    H171870   5.161   0.128  13.122  0.5525 -1.1376  1.3704
16793TIP3    H271871   5.107   0.080  12.989 -1.5547  1.1388  1.3259
16794TIP3   OH271872   5.227   2.621   2.745  0.1249 -0.0909 -0.1566
16794TIP3    H171873   5.189   2.533   2.754  2.2018 -1.1279 -0.8764
16794TIP3    H271874   5.262   2.640   2.832 -2.1344  1.0050  0.6014
16795TIP3   OH271875   0.013   6.058   3.547  0.5908 -0.1781 -0.5420
16795TIP3    H171876   0.018   6.086   3.455  0.5367 -0.3089 -0.5854
16795TIP3    H271877  -0.041   6.125   3.589 -1.6543 -1.5032 -1.1623
16796TIP3   OH271878   5.300   0.945  15.972  0.2048  0.1930 -0.5406
16796TIP3    H171879   5.365   0.918  15.908  0.7436  1.0494 -0.3613
16796TIP3    H271880   5.327   1.032  15.999 -1.0126  0.5653 -0.4589
16797TIP3   OH271881   3.744   0.989   0.445  0.2885  0.0543  0.1204
16797TIP3    H171882   3.649   0.994   0.453  0.2147 -0.7751 -0.0927
16797TIP3    H271883   3.778   1.005   0.533 -0.1369 -1.2933  0.5563
16798TIP3   OH271884   4.199   6.464  14.952  0.4046 -0.0753 -0.1636
16798TIP3    H171885   4.223   6.432  14.865 -0.0104 -0.6294 -0.0773
16798TIP3    H271886   4.259   6.419  15.011  0.9809  0.6310 -0.1913
16799TIP3   OH271887   3.840   5.185   5.263  0.2232 -0.0545 -0.5809
16799TIP3    H171888   3.871   5.246   5.197 -0.7303 -1.8652 -2.8253
16799TIP3    H271889   3.905   5.115   5.264  0.1717 -0.1061  0.3649
16800TIP3   OH271890   6.762   5.013  16.719  0.3945 -0.1330  0.0730
16800TIP3    H171891   6.685   4.993  16.665 -0.6330 -0.4568  1.5738
16800TIP3    H271892   6.767   5.108  16.719  0.2566 -0.1235 -0.3834
16801TIP3   OH271893   4.582   0.366   1.084 -0.1849 -0.3064 -0.3282
16801TIP3    H171894   4.575   0.323   1.169 -0.6503 -0.5081 -0.4638
16801TIP3    H271895   4.524   0.316   1.027 -0.0537 -0.0323 -0.7085
16802TIP3   OH271896   1.871   0.126  13.109 -0.3583 -0.0520 -0.2702
16802TIP3    H171897   1.875   0.090  13.198  0.6152 -1.1027 -0.7177
16802TIP3    H271898   1.782   0.161  13.102 -0.8123 -0.9363  0.7525
16803TIP3   OH271899   3.159   4.924  12.821  0.2076  0.3217  0.6941
16803TIP3    H171900   3.077   4.895  12.862  1.3679 -1.4022  1.9910
16803TIP3    H271901   3.184   5.002  12.870 -0.3737  0.5264  0.6698
16804TIP3   OH271902   2.869   1.797   4.557 -0.1539 -0.3319 -0.6076
16804TIP3    H171903   2.916   1.828   4.634  0.5911  0.4711 -1.3574
16804TIP3    H271904   2.801   1.862   4.542 -0.8614 -0.9445 -0.1387
16805TIP3   OH271905   5.555   0.599  15.083 -0.2418 -0.6346  0.1036
16805TIP3    H171906   5.578   0.642  15.165  1.5538  1.7936 -1.5334
16805TIP3    H271907   5.463   0.572  15.094  0.1656 -1.0453  3.0957
16806TIP3   OH271908   4.422   4.187  15.751 -0.1294 -0.1124  0.6338
16806TIP3    H171909   4.340   4.234  15.738  0.1095  0.4812  1.1917
16806TIP3    H271910   4.424   4.168  15.845  0.5159  0.1525  0.6779
16807TIP3   OH271911   3.867   4.437  13.211 -0.7359 -0.0075 -0.3822
16807TIP3    H171912   3.898   4.488  13.285 -0.8690  1.4471 -1.2823
16807TIP3    H271913   3.818   4.365  13.250  0.4534 -0.1262  0.9573
16808TIP3   OH271914   5.255   4.193   1.913  0.1075 -0.1918 -0.2672
16808TIP3    H171915   5.263   4.221   2.005 -1.1657 -0.6060  0.0023
16808TIP3    H271916   5.314   4.118   1.906 -0.1365 -0.4619  0.3700
16809TIP3   OH271917   1.002   0.431  15.579  0.0067 -0.0663 -0.3030
16809TIP3    H171918   1.050   0.511  15.557 -0.4560 -0.0505 -1.3090
16809TIP3    H271919   1.053   0.392  15.650  0.0899  1.2498  0.3919
16810TIP3   OH271920   5.513   1.315  17.093 -0.0583 -0.0500  0.2132
16810TIP3    H171921   5.605   1.328  17.069  0.6322  0.5355  2.8620
16810TIP3    H271922   5.515   1.240  17.153 -1.1095  0.7979  1.3443
16811TIP3   OH271923   4.681   3.959  11.688 -0.1731 -0.4394 -0.7098
16811TIP3    H171924   4.720   3.963  11.601  0.3628  0.2741 -0.4469
16811TIP3    H271925   4.737   3.899  11.738  1.7169  1.8793  0.1777
16812TIP3   OH271926   3.629   6.444  14.984 -0.1581 -0.0761 -0.3242
16812TIP3    H171927   3.595   6.397  15.060 -0.1208 -0.3895 -0.5000
16812TIP3    H271928   3.587   6.530  14.988  0.9288  0.4180  0.8461
16813TIP3   OH271929   0.781   2.348   3.575  0.0148  0.0420 -0.2095
16813TIP3    H171930   0.791   2.256   3.550  2.3539 -0.5107  2.3387
16813TIP3    H271931   0.750   2.345   3.665 -0.8123  1.7941 -0.4013
16814TIP3   OH271932   3.250   0.904  14.642 -0.2694 -0.5514  0.3823
16814TIP3    H171933   3.245   0.924  14.548  0.3830 -0.4455  0.3631
16814TIP3    H271934   3.184   0.960  14.682 -2.5617 -2.5717 -0.2835
16815TIP3   OH271935   4.897   6.203  15.440 -0.2118 -0.3465  0.2310
16815TIP3    H171936   4.905   6.117  15.482  0.8816 -0.1964  0.3647
16815TIP3    H271937   4.952   6.260  15.493 -2.3118  0.8862  1.2309
16816TIP3   OH271938   5.087   2.396   3.497 -0.1673 -0.2988  0.9726
16816TIP3    H171939   5.073   2.355   3.583 -0.6966  0.3596  1.2149
16816TIP3    H271940   5.177   2.428   3.500  0.3629 -1.7124  0.6531
16817TIP3   OH271941   1.065   6.042  14.476 -0.2771  0.2463  0.4319
16817TIP3    H171942   0.989   6.011  14.525  1.1842 -1.3474  1.8080
16817TIP3    H271943   1.109   5.962  14.448  0.4446  1.1491 -1.0877
16818TIP3   OH271944   6.687   4.831   5.469  0.0282 -0.1830  0.3783
16818TIP3    H171945   6.601   4.817   5.431  0.0743 -2.0428  0.8672
16818TIP3    H271946   6.677   4.809   5.562  1.0193 -0.4083  0.4504
16819TIP3   OH271947   4.209   1.175  13.567  0.4514 -0.1329  0.4492
16819TIP3    H171948   4.194   1.081  13.564  1.0309 -0.2793  1.5390
16819TIP3    H271949   4.132   1.213  13.525  0.6276 -1.1136 -0.8162
16820TIP3   OH271950   6.546   6.472   1.004 -0.5929  0.0542 -0.0756
16820TIP3    H171951   6.502   6.388   0.993 -1.6924  0.1897  2.5503
16820TIP3    H271952   6.476   6.533   1.027  0.6881  0.6070  2.7565
16821TIP3   OH271953   0.223   3.533   5.590 -0.1676 -0.1449 -0.2356
16821TIP3    H171954   0.287   3.562   5.525  0.1636  0.8237  0.4959
16821TIP3    H271955   0.158   3.604   5.593  0.2298  0.1818  1.0238
16822TIP3   OH271956   1.410   0.604  14.860 -0.1225  0.0458  0.1234
16822TIP3    H171957   1.474   0.557  14.806  0.8656 -0.0300  1.3092
16822TIP3    H271958   1.457   0.681  14.891 -0.1918 -0.6031  1.9502
16823TIP3   OH271959   6.433   5.153   0.293  0.3385  0.2439 -0.5749
16823TIP3    H171960   6.361   5.206   0.258  0.4729  0.5723 -0.3585
16823TIP3    H271961   6.422   5.159   0.388  0.4691  0.0379 -0.5460
16824TIP3   OH271962   3.960   3.303  16.802  0.5537 -0.1618 -0.5488
16824TIP3    H171963   3.940   3.388  16.763  0.3925 -1.0995 -2.6542
16824TIP3    H271964   3.922   3.308  16.890 -2.2906  0.8519 -1.7095
16825TIP3   OH271965   1.080   0.208   0.097 -0.1142  0.4023  0.0047
16825TIP3    H171966   1.060   0.134   0.154  0.9887  0.9771  1.1775
16825TIP3    H271967   1.123   0.168   0.021  0.1180 -0.1970  0.4446
16826TIP3   OH271968   0.499   6.152   4.735  0.4590 -0.5020 -0.1393
16826TIP3    H171969   0.560   6.079   4.730  1.7071  0.4972 -0.0900
16826TIP3    H271970   0.547   6.221   4.781  0.0417  1.0388 -1.9020
16827TIP3   OH271971   2.194   0.949   4.411  0.1714 -0.4490  0.2300
16827TIP3    H171972   2.196   0.952   4.315 -0.6632  1.4175  0.2367
16827TIP3    H271973   2.121   0.891   4.432 -0.7965  0.5490 -0.2976
16828TIP3   OH271974   4.004   0.137  11.463 -0.1802 -0.4562 -0.1439
16828TIP3    H171975   3.934   0.199  11.442  0.7652  0.3611 -0.9400
16828TIP3    H271976   3.990   0.064  11.403  0.6203  0.4548 -1.4808
16829TIP3   OH271977   6.005   4.954  15.528 -0.1103 -0.5145 -0.1238
16829TIP3    H171978   5.971   5.039  15.501 -0.1547 -0.7187 -0.7118
16829TIP3    H271979   6.074   4.934  15.466 -0.2534 -1.0130 -0.1328
16830TIP3   OH271980   3.845   5.870   4.520 -0.2261  0.5060  0.2666
16830TIP3    H171981   3.832   5.794   4.463 -1.2371 -0.6389  1.9352
16830TIP3    H271982   3.823   5.838   4.607  2.9173  1.7203  1.6231
16831TIP3   OH271983   3.745   5.714  16.846 -0.6300  0.5797  0.2347
16831TIP3    H171984   3.674   5.768  16.883 -1.0796 -0.4071  0.8512
16831TIP3    H271985   3.821   5.773  16.845 -1.6359  1.9429 -1.2703
16832TIP3   OH271986   3.618   2.471   1.584 -0.7139  0.3044 -0.1155
16832TIP3    H171987   3.632   2.378   1.603 -0.6371  0.4450  0.5074
16832TIP3    H271988   3.554   2.500   1.649  0.5096  1.1022  0.7583
16833TIP3   OH271989   2.044   3.423  15.051 -0.0723  0.2110  0.4428
16833TIP3    H171990   2.086   3.371  14.981  0.0687 -1.7978  1.9312
16833TIP3    H271991   2.058   3.371  15.130 -1.2363  1.8664  1.7833
16834TIP3   OH271992   5.596   5.601  16.291 -0.1543  0.2798  0.0999
16834TIP3    H171993   5.600   5.530  16.354  0.0468  0.4109  0.2353
16834TIP3    H271994   5.687   5.617  16.266 -0.1898  0.5375  0.1286
16835TIP3   OH271995   2.212   3.295   3.192 -0.5666  0.2915  0.3485
16835TIP3    H171996   2.172   3.375   3.226 -2.1252  0.8360 -2.5279
16835TIP3    H271997   2.139   3.238   3.170  0.4743 -1.1906  0.5536
16836TIP3   OH271998   1.249   3.119  14.255 -0.1842  0.8324  0.0324
16836TIP3    H171999   1.317   3.130  14.189 -1.4270  0.3341 -1.3757
16836TIP3    H272000   1.286   3.054  14.316  0.1918 -0.2533 -1.3025
16837TIP3   OH272001   2.200   3.592   5.924 -0.5714 -0.3170 -0.9782
16837TIP3    H172002   2.263   3.642   5.871 -1.7816  2.0494 -0.3222
16837TIP3    H272003   2.255   3.537   5.980  0.8252 -0.1043 -2.0758
16838TIP3   OH272004   1.701   3.887  16.769  0.4204  0.5509 -0.1329
16838TIP3    H172005   1.617   3.920  16.798  0.0931 -0.0036 -0.4292
16838TIP3    H272006   1.742   3.961  16.723  0.1805  0.8743  0.1716
16839TIP3   OH272007   3.578   5.390   2.068 -0.8266 -0.1423 -0.1963
16839TIP3    H172008   3.517   5.433   2.008 -0.4389  2.7425  1.2794
16839TIP3    H272009   3.522   5.356   2.138 -0.9571  0.3370 -0.0632
16840TIP3   OH272010   6.583   0.571  10.861  0.0497  0.0401 -0.6374
16840TIP3    H172011   6.505   0.599  10.909  1.1518  1.6011  0.3534
16840TIP3    H272012   6.610   0.490  10.904 -0.8389 -0.3406 -0.7861
16841TIP3   OH272013   1.430   2.470  14.824  0.1010  0.2056  0.0282
16841TIP3    H172014   1.494   2.542  14.826 -0.8605  1.0641  0.9503
16841TIP3    H272015   1.345   2.513  14.814 -0.6041 -0.6922  1.6980
16842TIP3   OH272016   6.685   4.866   0.478  0.3884 -0.1150  0.2974
16842TIP3    H172017   6.612   4.841   0.422 -1.7470  2.0252  1.9382
16842TIP3    H272018   6.763   4.850   0.424 -1.2094 -2.6180 -1.4644
16843TIP3   OH272019   5.950   5.433  12.625 -0.1986  0.0454 -0.9225
16843TIP3    H172020   6.034   5.435  12.578  0.3242 -1.3281 -0.1137
16843TIP3    H272021   5.968   5.480  12.707 -0.3887  0.2541 -1.0006
16844TIP3   OH272022   1.076   4.600  16.082 -0.6917 -0.0033  0.3057
16844TIP3    H172023   1.075   4.662  16.009 -0.7554 -0.2377  0.1057
16844TIP3    H272024   1.015   4.530  16.056 -0.5416 -0.2023  0.4798
16845TIP3   OH272025   2.885   6.527   1.122  0.2898 -0.9442 -0.2319
16845TIP3    H172026   2.930   6.444   1.111 -1.7731 -2.0033 -1.3725
16845TIP3    H272027   2.831   6.515   1.201  2.1446  0.4383  1.3491
16846TIP3   OH272028   1.284   1.771  13.533  0.3490 -0.5377 -0.6687
16846TIP3    H172029   1.274   1.778  13.628  0.7235  2.5174 -0.7523
16846TIP3    H272030   1.376   1.749  13.520  0.8298  1.1230 -0.3000
16847TIP3   OH272031   3.299   2.349   2.895  0.1114 -0.1073  0.0470
16847TIP3    H172032   3.293   2.437   2.932  0.3837 -0.0335 -0.0843
16847TIP3    H272033   3.346   2.361   2.812  0.7220 -0.4676  0.3352
16848TIP3   OH272034   3.073   6.261  12.500 -0.2812  0.0596 -0.2864
16848TIP3    H172035   3.152   6.303  12.533 -0.3911  1.0502 -1.2286
16848TIP3    H272036   3.034   6.218  12.577  0.9792 -0.1571  0.2472
16849TIP3   OH272037   4.603   4.237   2.079 -0.1010  0.5348  0.3146
16849TIP3    H172038   4.623   4.261   2.169 -0.5271  0.0481  0.5425
16849TIP3    H272039   4.688   4.222   2.038  0.1090  1.1655  0.5214
16850TIP3   OH272040   2.886   0.405  13.251 -0.4909 -0.0200 -0.3342
16850TIP3    H172041   2.935   0.484  13.229 -2.4113  1.4423  0.3679
16850TIP3    H272042   2.948   0.333  13.237  1.2894  1.5886 -1.0635
16851TIP3   OH272043   5.321   6.724  15.726 -0.3838  0.0964  0.1712
16851TIP3    H172044   5.232   6.723  15.691  0.2453 -3.8140 -1.7877
16851TIP3    H272045   5.367   6.788  15.672 -1.6645  1.3066  0.4435
16852TIP3   OH272046   4.372   1.768  15.547 -0.0075  0.2691  0.0432
16852TIP3    H172047   4.296   1.825  15.536  0.0730  0.1874 -0.9689
16852TIP3    H272048   4.418   1.806  15.622  0.8953  2.5591 -1.5363
16853TIP3   OH272049   3.999   2.990  11.246 -0.2141 -0.2203  0.1139
16853TIP3    H172050   4.063   3.061  11.252 -0.3631 -0.0376 -0.3964
16853TIP3    H272051   3.955   3.005  11.163  1.6693 -2.4603 -1.4437
16854TIP3   OH272052   5.110   3.148  12.308 -0.4058  0.4005 -0.0616
16854TIP3    H172053   5.205   3.142  12.320 -0.3153  1.8250  0.1142
16854TIP3    H272054   5.084   3.061  12.276  0.6858 -0.6115  1.6161
16855TIP3   OH272055   6.485   4.046   3.246  0.9274  0.1467 -0.2857
16855TIP3    H172056   6.528   4.031   3.161 -0.4925 -0.3607 -0.9445
16855TIP3    H272057   6.416   3.980   3.249 -0.7500  1.8551  0.0728
16856TIP3   OH272058   4.281   4.037   3.101 -0.0507  0.9312  0.0744
16856TIP3    H172059   4.311   4.123   3.073 -0.4871  0.0618 -3.4956
16856TIP3    H272060   4.333   3.975   3.051  0.2161 -0.9815  2.4902
16857TIP3   OH272061   2.778   5.091  11.965 -0.0809 -0.1268 -0.1261
16857TIP3    H172062   2.734   5.160  12.014  2.5456  1.0396  0.7991
16857TIP3    H272063   2.806   5.135  11.884  0.6627 -0.3886 -0.0159
16858TIP3   OH272064   0.075   0.672   3.435 -0.2229  0.0141 -0.1043
16858TIP3    H172065   0.171   0.676   3.432 -0.0880 -1.7670  0.8312
16858TIP3    H272066   0.051   0.736   3.503  0.3098  0.3427 -0.2170
16859TIP3   OH272067   6.357   0.576  15.936 -0.0789  0.7516  0.0339
16859TIP3    H172068   6.406   0.618  16.006  0.7354  0.1977 -0.1956
16859TIP3    H272069   6.363   0.482  15.955 -0.4104  0.6359 -0.4131
16860TIP3   OH272070   4.144   5.327   4.797 -0.1841  0.2856  0.3856
16860TIP3    H172071   4.236   5.353   4.796 -0.3340  0.8289  0.1604
16860TIP3    H272072   4.143   5.241   4.839  0.5560 -0.2550 -0.6669
16861TIP3   OH272073   6.831   0.938  15.928  0.2915  0.6370  0.0905
16861TIP3    H172074   6.761   0.977  15.980 -0.2187  0.5170 -0.4889
16861TIP3    H272075   6.787   0.907  15.848  0.4803 -1.8905  0.8603
16862TIP3   OH272076   6.640   6.673  11.638  0.4097 -0.4506 -0.1927
16862TIP3    H172077   6.637   6.599  11.577 -0.0495 -0.4106 -0.2231
16862TIP3    H272078   6.550   6.703  11.643  0.8534  1.2544 -1.5627
16863TIP3   OH272079   2.674   6.655   1.633  0.1368 -0.1184 -0.0717
16863TIP3    H172080   2.682   6.683   1.542  0.1692  2.3853  0.6527
16863TIP3    H272081   2.590   6.608   1.636 -1.8042  3.0581 -0.6810
16864TIP3   OH272082   4.155   3.271  15.729 -0.4669  0.1938  0.0223
16864TIP3    H172083   4.194   3.290  15.644  0.7822 -0.4599  0.4203
16864TIP3    H272084   4.167   3.352  15.779 -1.3580  0.6346 -0.4738
16865TIP3   OH272085   2.829   3.110  16.380  0.0605  0.1888 -0.1111
16865TIP3    H172086   2.909   3.058  16.385 -1.5189 -2.2860  1.6024
16865TIP3    H272087   2.836   3.172  16.452  0.9565  0.8895 -0.7705
16866TIP3   OH272088   4.234   1.197  16.624  0.4529  0.7577  0.0049
16866TIP3    H172089   4.216   1.123  16.682  1.9552  0.2582 -0.1127
16866TIP3    H272090   4.328   1.192  16.607  0.3658  1.9638 -1.0205
16867TIP3   OH272091   0.865   2.578  12.546 -0.1189  0.1425  1.0907
16867TIP3    H172092   0.958   2.596  12.558  0.0171  0.9616 -0.7824
16867TIP3    H272093   0.863   2.494  12.500 -0.2018  0.7091  0.0128
16868TIP3   OH272094   6.296   3.871   3.307  0.1595  0.4454  0.1159
16868TIP3    H172095   6.266   3.901   3.392  1.1888 -0.9341  1.0091
16868TIP3    H272096   6.231   3.807   3.279 -0.0348  0.6981 -0.0121
16869TIP3   OH272097   1.148   6.146  15.206 -0.0096  0.2567 -0.0274
16869TIP3    H172098   1.126   6.053  15.208  1.0567  0.0102  1.3044
16869TIP3    H272099   1.064   6.191  15.210 -0.6601 -0.6058 -2.4892
16870TIP3   OH272100   0.319   2.455   3.194  0.5775  0.6143  0.2163
16870TIP3    H172101   0.410   2.438   3.217  0.1985 -0.9385  0.7630
16870TIP3    H272102   0.306   2.409   3.111 -0.4237 -1.8962  1.6169
16871TIP3   OH272103   5.137   3.645   3.783 -0.1204 -0.7302  0.1123
16871TIP3    H172104   5.186   3.698   3.721 -1.3999  1.0354  0.5233
16871TIP3    H272105   5.112   3.705   3.853  1.5639 -2.7228  2.6028
16872TIP3   OH272106   6.728   5.930   2.300  0.1669 -0.0492  0.0948
16872TIP3    H172107   6.661   5.953   2.364  1.4018  2.1628  0.7053
16872TIP3    H272108   6.780   5.862   2.343 -0.6585 -0.5607  0.2997
16873TIP3   OH272109   5.625   5.103   4.025 -0.1047 -0.1742 -0.2161
16873TIP3    H172110   5.596   5.191   4.047  0.1991 -0.1722  0.1871
16873TIP3    H272111   5.718   5.102   4.049 -0.0222 -0.4998 -0.5302
16874TIP3   OH272112   0.751   4.165   3.168 -0.4541  0.5280  0.4880
16874TIP3    H172113   0.731   4.080   3.129 -0.6258 -0.2700  2.2429
16874TIP3    H272114   0.817   4.146   3.235 -0.0651  1.8702  0.5140
16875TIP3   OH272115   0.053   0.653  14.249  0.2337  0.2968  0.3653
16875TIP3    H172116  -0.010   0.696  14.307  0.5135  1.2375 -0.0110
16875TIP3    H272117   0.131   0.708  14.253  1.5521 -1.5471  1.8510
16876TIP3   OH272118   4.735   2.196   4.781  0.1218  0.1165  0.6811
16876TIP3    H172119   4.800   2.138   4.820 -0.6149 -0.4337  1.1388
16876TIP3    H272120   4.656   2.142   4.774  0.2109  0.2037 -1.6132
16877TIP3   OH272121   2.042   4.229   5.911  0.6956  0.3182  0.2602
16877TIP3    H172122   1.990   4.149   5.915  1.1475 -0.0556 -0.8144
16877TIP3    H272123   2.120   4.209   5.964 -1.0137  1.5470  3.4726
16878TIP3   OH272124   0.532   3.190  15.203  0.0784  0.1878 -0.2812
16878TIP3    H172125   0.490   3.272  15.178 -0.6294  0.1039  0.5534
16878TIP3    H272126   0.522   3.187  15.299  1.9559  0.1379 -0.0574
16879TIP3   OH272127   3.766   0.683  14.398 -0.1810  0.4342  0.5289
16879TIP3    H172128   3.825   0.609  14.412 -1.8315 -1.0686  0.0337
16879TIP3    H272129   3.753   0.720  14.485  0.2230 -0.2309  0.8829
16880TIP3   OH272130   0.862   2.167   5.204 -0.5960 -0.7723 -0.0339
16880TIP3    H172131   0.911   2.226   5.147  0.1808 -0.7957  0.5850
16880TIP3    H272132   0.891   2.079   5.180  0.6648 -0.7303  1.1853
16881TIP3   OH272133   2.293   3.194   0.951 -0.3688 -0.4615 -0.0065
16881TIP3    H172134   2.369   3.189   0.893 -0.8657 -0.4660 -0.6765
16881TIP3    H272135   2.281   3.104   0.982  0.0182 -0.4219  0.2596
16882TIP3   OH272136   0.213   6.112   3.302  0.8331  0.3108  0.8054
16882TIP3    H172137   0.239   6.050   3.233 -1.5648  0.0680  0.0175
16882TIP3    H272138   0.208   6.196   3.258  1.9226  0.6676  1.3481
16883TIP3   OH272139   3.385   4.069  13.994  0.4256  0.7144 -0.1896
16883TIP3    H172140   3.410   4.142  13.936  0.7290 -0.2441 -1.2978
16883TIP3    H272141   3.372   3.995  13.935  1.5804 -0.5278  1.0406
16884TIP3   OH272142   4.782   5.263   0.631  0.2438  0.4114  0.0090
16884TIP3    H172143   4.819   5.272   0.719 -1.9679 -3.4840  1.5693
16884TIP3    H272144   4.690   5.238   0.646 -0.0541 -1.0529 -3.3718
16885TIP3   OH272145   4.596   4.932   1.273 -0.3195 -0.4258  0.5560
16885TIP3    H172146   4.686   4.907   1.253 -0.4842 -0.3261 -0.3317
16885TIP3    H272147   4.589   4.923   1.368  0.3063 -1.4977  0.5147
16886TIP3   OH272148   3.683   1.792  12.871 -0.0573  0.4968  0.2383
16886TIP3    H172149   3.656   1.883  12.882 -0.4903  0.3812  0.1339
16886TIP3    H272150   3.766   1.786  12.919 -0.0668  0.9226  0.3152
16887TIP3   OH272151   2.141   0.968  14.437 -0.6110 -0.1356  0.4463
16887TIP3    H172152   2.121   0.941  14.347  0.1988  0.0852  0.1976
16887TIP3    H272153   2.171   0.888  14.480  0.4833  0.0737  0.0869
16888TIP3   OH272154   2.951   0.319  15.419 -0.1227  0.1063 -0.5755
16888TIP3    H172155   2.983   0.400  15.461 -0.7991 -0.8037  1.9056
16888TIP3    H272156   2.856   0.333  15.411 -0.5300 -1.0182  1.5019
16889TIP3   OH272157   1.633   4.571  12.998 -0.3091  0.5332 -0.3723
16889TIP3    H172158   1.657   4.592  12.908  0.2456 -0.8717 -0.5818
16889TIP3    H272159   1.687   4.631  13.051  2.1434 -1.0508 -0.9065
16890TIP3   OH272160   3.332   3.108   4.009 -0.5156  0.3174 -0.0875
16890TIP3    H172161   3.254   3.149   3.972 -1.0386 -0.9859 -0.4968
16890TIP3    H272162   3.405   3.162   3.979 -0.9739 -0.3163 -2.5325
16891TIP3   OH272163   6.472   0.527  11.769  0.3009 -0.5140 -0.4177
16891TIP3    H172164   6.457   0.514  11.675  1.3985  0.7885 -0.8168
16891TIP3    H272165   6.563   0.558  11.774 -0.1590  0.7060  0.9336
16892TIP3   OH272166   2.110   3.433  16.109 -0.1395 -0.4872 -0.0255
16892TIP3    H172167   2.018   3.454  16.090 -0.0894  0.5147  0.7757
16892TIP3    H272168   2.152   3.518  16.122  1.4119 -0.7619 -2.4656
16893TIP3   OH272169   5.354   6.347   4.141 -0.8745 -0.4628  0.2858
16893TIP3    H172170   5.370   6.370   4.049 -0.3759  1.3722  0.8018
16893TIP3    H272171   5.294   6.272   4.136 -1.1464 -0.1837 -1.5294
16894TIP3   OH272172   5.850   5.148  16.754  0.1505  0.1128  0.3759
16894TIP3    H172173   5.767   5.151  16.707 -0.4183 -0.0207  1.3510
16894TIP3    H272174   5.852   5.061  16.793  0.0173  0.6605  1.6490
16895TIP3   OH272175   2.876   0.126   2.891  0.1252  0.2382 -0.2418
16895TIP3    H172176   2.803   0.159   2.839 -0.7191 -2.5725 -0.9928
16895TIP3    H272177   2.867   0.031   2.889  1.6022 -0.1067  2.8841
16896TIP3   OH272178   1.554   4.478  13.270 -0.0297 -0.0153  0.3612
16896TIP3    H172179   1.505   4.553  13.304  0.0618  0.1756  0.0700
16896TIP3    H272180   1.631   4.515  13.229 -0.1830 -0.2329 -0.1409
16897TIP3   OH272181   0.381   5.659   0.556 -0.1631  0.0077  0.4366
16897TIP3    H172182   0.402   5.683   0.647 -1.4969  0.9527  0.5170
16897TIP3    H272183   0.288   5.637   0.558 -0.4559  1.0141 -0.8773
16898TIP3   OH272184   4.229   5.503  11.665 -0.1546  0.9801 -0.0507
16898TIP3    H172185   4.170   5.446  11.715  0.3672  1.5254  1.2402
16898TIP3    H272186   4.306   5.449  11.648 -0.4025  0.7388 -0.4049
16899TIP3   OH272187   1.950   2.340  16.388  0.5093  0.8511  0.2301
16899TIP3    H172188   1.941   2.278  16.316 -0.5835 -0.6872  1.6210
16899TIP3    H272189   2.023   2.306  16.440 -1.0278 -0.1693  1.8002
16900TIP3   OH272190   2.522   2.687  14.423  0.0437  0.1590  0.1571
16900TIP3    H172191   2.445   2.653  14.377  0.0666 -0.4569  0.5713
16900TIP3    H272192   2.596   2.663  14.367  0.1263 -1.0794  0.7653
16901TIP3   OH272193   6.702   5.819  11.204  0.6378 -0.4178 -0.6012
16901TIP3    H172194   6.695   5.902  11.250 -0.6443 -0.7642 -0.1431
16901TIP3    H272195   6.650   5.831  11.125  1.1654 -0.5083 -0.9728
16902TIP3   OH272196   5.203   2.749  13.609  0.4954  0.6639 -0.2863
16902TIP3    H172197   5.139   2.679  13.623  0.3574  1.0676  1.1679
16902TIP3    H272198   5.247   2.724  13.527  0.6557 -1.2838  0.3362
16903TIP3   OH272199   4.564   1.572   3.987 -0.5935 -0.2834  0.2054
16903TIP3    H172200   4.502   1.530   4.047 -0.9477 -1.1838 -0.7496
16903TIP3    H272201   4.594   1.650   4.033 -2.6153  0.3067  0.6245
16904TIP3   OH272202   4.737   6.643  14.192  0.8259 -0.2452 -0.2149
16904TIP3    H172203   4.729   6.549  14.179  1.5393 -0.3867  0.3362
16904TIP3    H272204   4.650   6.678  14.170 -0.0472 -1.2329  1.4864
16905TIP3   OH272205   3.641   5.334  12.670 -0.2119 -0.4687 -0.2213
16905TIP3    H172206   3.613   5.424  12.682  1.2766 -0.1148  0.9630
16905TIP3    H272207   3.729   5.341  12.633 -0.3170 -1.4463 -0.6892
16906TIP3   OH272208   6.129   0.118   1.503 -0.2812 -0.2549 -0.4607
16906TIP3    H172209   6.173   0.068   1.572 -1.2769 -2.0136 -1.0154
16906TIP3    H272210   6.115   0.054   1.433 -0.9789  1.0060 -1.5177
16907TIP3   OH272211   6.237   5.032   5.404 -0.1603 -0.0291  0.0686
16907TIP3    H172212   6.201   5.082   5.477  1.2464  2.4249 -0.7754
16907TIP3    H272213   6.196   5.071   5.326  0.5988 -0.5509 -0.6064
16908TIP3   OH272214   1.749   2.830   4.731 -0.2626  0.3957 -0.0236
16908TIP3    H172215   1.668   2.872   4.758  0.2252  2.4875 -1.5581
16908TIP3    H272216   1.746   2.832   4.635  1.5162  0.3668 -0.1090
16909TIP3   OH272217   6.678   0.297   1.333  0.2334  0.4745 -0.3964
16909TIP3    H172218   6.609   0.363   1.320  0.5514  1.4186  2.1435
16909TIP3    H272219   6.637   0.230   1.387  0.9322  0.3943  0.0391
16910TIP3   OH272220   3.969   3.102  17.077 -0.0616  0.0992  0.3818
16910TIP3    H172221   3.942   3.189  17.107 -0.9238 -0.1044  0.2121
16910TIP3    H272222   3.980   3.051  17.157  0.5133  0.3730  0.4845
16911TIP3   OH272223   4.992   1.799  14.089 -0.2554 -0.0695  0.0318
16911TIP3    H172224   5.016   1.889  14.112 -0.5148 -0.1480  0.6250
16911TIP3    H272225   5.004   1.750  14.170 -0.7830 -0.4318 -0.1066
16912TIP3   OH272226   2.993   1.634  11.810  1.0987  0.3889 -0.3216
16912TIP3    H172227   2.958   1.593  11.889  0.8275  1.8864  0.3865
16912TIP3    H272228   2.932   1.609  11.740 -0.8815  2.0649  0.6851
16913TIP3   OH272229   3.286   1.558   0.132  0.3764 -0.2263 -0.1775
16913TIP3    H172230   3.222   1.538   0.200 -1.5066  0.2264 -1.7188
16913TIP3    H272231   3.337   1.631   0.168 -2.2688  1.7522 -0.1743
16914TIP3   OH272232   0.323   5.946   2.465  0.0199  0.0603  0.5246
16914TIP3    H172233   0.335   5.891   2.388 -0.6693  1.4216 -0.6070
16914TIP3    H272234   0.286   5.887   2.531 -0.6340 -0.8619 -0.6244
16915TIP3   OH272235   1.768   2.938  11.707 -0.0717 -0.4144 -0.2627
16915TIP3    H172236   1.830   2.865  11.704  0.6462  0.2104 -1.2067
16915TIP3    H272237   1.763   2.961  11.800  0.9057 -0.6434 -0.1431
16916TIP3   OH272238   1.155   4.935   4.022 -0.5109 -0.5026  0.2934
16916TIP3    H172239   1.197   5.008   4.068  0.3182 -1.2269  0.7247
16916TIP3    H272240   1.065   4.934   4.055 -0.4635  0.1739  0.4535
16917TIP3   OH272241   5.613   6.390   1.138 -0.4878 -0.1221  0.1729
16917TIP3    H172242   5.698   6.347   1.140 -0.1878  0.4927  0.6828
16917TIP3    H272243   5.629   6.478   1.170 -0.4905  1.4911 -3.7134
16918TIP3   OH272244   0.975   5.878   0.871 -0.6265  0.3542  0.0404
16918TIP3    H172245   0.915   5.921   0.810  1.4358  3.3170 -0.1122
16918TIP3    H272246   0.982   5.938   0.945  1.6266 -0.1695  0.3344
16919TIP3   OH272247   2.155   0.039  13.104  0.2362  0.3064 -0.4694
16919TIP3    H172248   2.069   0.038  13.063 -0.3211  1.1443  0.6138
16919TIP3    H272249   2.214   0.073  13.037 -0.4699  0.7117 -0.8950
16920TIP3   OH272250   2.624   0.151   6.183 -0.2642 -0.3612  0.3902
16920TIP3    H172251   2.668   0.068   6.203  0.2795 -0.1466  0.1140
16920TIP3    H272252   2.657   0.175   6.096  0.0572  0.4603  0.7304
16921TIP3   OH272253   2.659   3.743  15.926 -0.4330  0.2121 -0.4165
16921TIP3    H172254   2.684   3.651  15.932 -0.8745  0.1559  0.8649
16921TIP3    H272255   2.569   3.746  15.959  0.0217  1.2676  0.8334
16922TIP3   OH272256   2.051   0.588  15.156  1.0321 -0.6973 -0.4104
16922TIP3    H172257   2.094   0.674  15.159  1.6863 -1.0130 -0.5484
16922TIP3    H272258   1.992   0.594  15.081  0.4410 -0.0812  0.0958
16923TIP3   OH272259   4.415   4.403   1.090  0.3602  0.1722  0.7271
16923TIP3    H172260   4.486   4.343   1.070 -0.3685 -1.0346  1.6485
16923TIP3    H272261   4.454   4.466   1.151  1.8742  2.3433 -2.2056
16924TIP3   OH272262   0.121   2.692   1.297  0.1826  0.2314 -0.2774
16924TIP3    H172263   0.189   2.703   1.231  0.3682 -0.2364 -0.1618
16924TIP3    H272264   0.106   2.781   1.330  1.7507  0.1608  0.7044
16925TIP3   OH272265   4.715   3.061   0.592 -0.0096  0.2254 -0.3052
16925TIP3    H172266   4.657   3.014   0.533 -1.8920 -0.1416  1.7084
16925TIP3    H272267   4.678   3.047   0.679  2.8397  0.3938  1.0719
16926TIP3   OH272268   0.711   4.063   1.821 -0.1303  0.7526 -0.1469
16926TIP3    H172269   0.721   4.011   1.901 -1.4169 -2.1141 -1.6941
16926TIP3    H272270   0.798   4.064   1.781  0.1894  0.9360  0.5374
16927TIP3   OH272271   3.687   4.387  13.588 -0.0330 -0.6037 -0.2352
16927TIP3    H172272   3.707   4.387  13.681  0.5593  1.8041 -0.3011
16927TIP3    H272273   3.592   4.397  13.584 -0.1309 -1.3211  0.0825
16928TIP3   OH272274   2.384   0.616   3.177 -0.3205  0.1879  0.0458
16928TIP3    H172275   2.376   0.673   3.100  1.0646 -0.6206 -0.7426
16928TIP3    H272276   2.307   0.637   3.231 -1.3829  0.7026 -1.5965
16929TIP3   OH272277   0.637   2.336  15.958 -0.4683 -0.5204 -0.2955
16929TIP3    H172278   0.676   2.423  15.951 -1.0869 -0.1161  1.0499
16929TIP3    H272279   0.584   2.327  15.878  1.2774 -0.5599 -1.4856
16930TIP3   OH272280   4.251   2.382  14.796  0.1889  0.0738  0.3335
16930TIP3    H172281   4.229   2.312  14.735  0.7939  0.8556 -0.8215
16930TIP3    H272282   4.289   2.337  14.872 -0.3698 -0.8962  0.0575
16931TIP3   OH272283   2.178   2.975   2.878  0.7331  0.0868 -0.5570
16931TIP3    H172284   2.265   2.952   2.846  1.4229  1.4042  0.2679
16931TIP3    H272285   2.150   3.048   2.822  0.5966  0.3220 -0.1891
16932TIP3   OH272286   6.776   0.304   5.412 -0.1538 -0.3076 -0.1176
16932TIP3    H172287   6.837   0.234   5.436  0.9851  0.6553 -0.1585
16932TIP3    H272288   6.755   0.347   5.494 -0.9676 -0.7707 -0.0743
16933TIP3   OH272289   2.403   3.005   5.722  0.0464 -0.0833 -0.3792
16933TIP3    H172290   2.328   3.025   5.778  1.1343 -1.5437  1.7575
16933TIP3    H272291   2.473   3.060   5.755  0.8149 -1.2526  0.0014
16934TIP3   OH272292   4.631   0.303  15.052  0.0632 -0.0938  0.2252
16934TIP3    H172293   4.565   0.372  15.062  1.2557  0.9967  0.7506
16934TIP3    H272294   4.582   0.230  15.013 -1.4041  0.7521  0.3815
16935TIP3   OH272295   4.574   2.727   2.061  0.2503  0.3893 -0.0598
16935TIP3    H172296   4.485   2.749   2.032  0.6431  1.8392 -0.2227
16935TIP3    H272297   4.602   2.657   2.002 -0.2877  0.8259 -0.8451
16936TIP3   OH272298   2.378   1.207  13.598  0.4284 -0.5207 -0.2098
16936TIP3    H172299   2.456   1.244  13.638 -0.0704  0.2004  0.1114
16936TIP3    H272300   2.391   1.219  13.504  0.8746 -0.7501 -0.1766
16937TIP3   OH272301   5.940   1.867   6.020 -0.0246 -0.0510  0.3002
16937TIP3    H172302   5.924   1.934   6.087 -1.2656  2.6742 -2.4607
16937TIP3    H272303   5.853   1.839   5.993  0.4764 -2.4468  0.9198
16938TIP3   OH272304   2.703   1.384  13.308 -0.4043  0.0130 -0.1481
16938TIP3    H172305   2.772   1.389  13.374 -1.3977  1.3017  0.8430
16938TIP3    H272306   2.732   1.443  13.238 -0.3254  0.2810  0.1083
16939TIP3   OH272307   1.556   2.812   1.587 -0.1705  0.2488  0.1245
16939TIP3    H172308   1.524   2.887   1.537 -0.4935  0.5121  0.7174
16939TIP3    H272309   1.491   2.800   1.656  1.6014  1.5926  2.1497
16940TIP3   OH272310   0.102   0.884   3.875 -0.1041 -0.0034  1.1249
16940TIP3    H172311   0.045   0.892   3.951 -1.7555 -0.7820  0.0430
16940TIP3    H272312   0.049   0.837   3.810  1.9737 -1.2928  0.2458
16941TIP3   OH272313   3.963   4.180  13.579  0.4298  0.5897  0.9366
16941TIP3    H172314   3.908   4.165  13.656  0.5055  1.5848  1.2039
16941TIP3    H272315   3.901   4.210  13.512  0.6759  2.1840  1.3819
16942TIP3   OH272316   2.372   6.108   0.798  0.4314  0.6068 -0.9857
16942TIP3    H172317   2.299   6.050   0.778  0.2567  0.6137 -0.3947
16942TIP3    H272318   2.331   6.184   0.839  0.8895 -0.1824  1.0853
16943TIP3   OH272319   4.925   6.799  16.086 -0.1134  0.3020  0.3144
16943TIP3    H172320   5.018   6.804  16.067  0.1975 -0.0725  1.6002
16943TIP3    H272321   4.882   6.808  16.001  1.0384  1.7548 -0.1500
16944TIP3   OH272322   4.824   5.006   4.638  0.0095 -1.0831 -0.2166
16944TIP3    H172323   4.857   4.921   4.668  1.4452 -1.0562 -1.5669
16944TIP3    H272324   4.899   5.046   4.594 -0.4257  1.2227  0.9994
16945TIP3   OH272325   2.863   0.361   4.773  0.4034  0.2281 -0.2864
16945TIP3    H172326   2.802   0.309   4.825  2.9895 -0.1877  2.6278
16945TIP3    H272327   2.808   0.404   4.707 -2.5627 -2.1318  0.4487
16946TIP3   OH272328   1.907   3.269  13.632  0.0353 -0.1685  0.0709
16946TIP3    H172329   1.914   3.219  13.551 -0.8106  2.0663 -1.4873
16946TIP3    H272330   1.815   3.295  13.636  0.2027  0.2889  1.4380
16947TIP3   OH272331   6.458   3.911   0.365 -0.0388  0.5632 -0.2281
16947TIP3    H172332   6.440   3.899   0.458 -0.5532 -0.4607 -0.4440
16947TIP3    H272333   6.554   3.904   0.359 -0.1213 -1.6160 -0.0244
16948TIP3   OH272334   2.771   2.395   3.463 -0.3177  0.2793 -0.3228
16948TIP3    H172335   2.842   2.334   3.441 -1.4548 -0.9112 -0.8152
16948TIP3    H272336   2.745   2.432   3.378 -0.6991  0.2389 -0.2228
16949TIP3   OH272337   6.274   4.198   5.857  0.0725 -0.1907 -0.6590
16949TIP3    H172338   6.254   4.167   5.768 -0.1786  0.6528 -0.9088
16949TIP3    H272339   6.203   4.165   5.911 -1.0982  1.2845 -1.2181
16950TIP3   OH272340   0.114   4.657  10.972  0.0862 -0.1294  0.1444
16950TIP3    H172341   0.206   4.629  10.974  0.0794 -0.1867 -0.2867
16950TIP3    H272342   0.077   4.612  10.895  0.0649  1.0297 -0.5433
16951TIP3   OH272343   3.352   0.806   2.737 -0.2272 -0.2456 -0.0003
16951TIP3    H172344   3.416   0.740   2.712 -0.2233  0.3314 -1.6375
16951TIP3    H272345   3.355   0.808   2.833 -0.3097 -2.6610  0.1125
16952TIP3   OH272346   6.246   2.067  14.131 -0.9931 -0.1778 -0.4180
16952TIP3    H172347   6.222   2.145  14.180  0.4262 -0.7485  1.2724
16952TIP3    H272348   6.172   2.008  14.143 -0.8008 -0.1878  0.8060
16953TIP3   OH272349   2.243   1.664  14.752  0.8422 -0.5556  0.4223
16953TIP3    H172350   2.222   1.608  14.826  1.8270 -1.3640  0.1088
16953TIP3    H272351   2.178   1.734  14.756  0.6785 -0.7578  1.8462
16954TIP3   OH272352   2.464   3.454   2.311  0.1191  0.0541  0.9360
16954TIP3    H172353   2.485   3.426   2.400  0.6770  1.6302  1.3196
16954TIP3    H272354   2.404   3.528   2.322  1.2671  1.1512  0.0574
16955TIP3   OH272355   5.560   6.853  12.881 -0.1842 -0.2086 -0.5449
16955TIP3    H172356   5.603   6.937  12.862  0.5080  0.2485  2.5243
16955TIP3    H272357   5.632   6.795  12.906 -1.0241 -0.2910  1.8735
16956TIP3   OH272358   2.346   2.751   3.093  0.2251  0.3255 -0.6114
16956TIP3    H172359   2.395   2.790   3.164 -0.3941  1.5107 -0.8115
16956TIP3    H272360   2.286   2.820   3.064 -1.5663 -1.0389 -0.3713
16957TIP3   OH272361   0.773   3.759  15.632  0.1886  0.4065 -0.2921
16957TIP3    H172362   0.793   3.827  15.567  2.1674 -1.2126 -1.4884
16957TIP3    H272363   0.748   3.682  15.580 -0.3281 -0.3082  0.9693
16958TIP3   OH272364   5.840   0.741  15.586 -0.3990  0.0361  0.0893
16958TIP3    H172365   5.904   0.733  15.657 -0.7401  1.1262  0.5347
16958TIP3    H272366   5.803   0.653  15.577  0.4213 -0.3638  0.5150
16959TIP3   OH272367   0.687   1.111  11.920 -0.8016 -0.4443  0.3545
16959TIP3    H172368   0.710   1.081  11.832 -0.2882  0.8775  0.0164
16959TIP3    H272369   0.772   1.124  11.963 -1.0521 -1.1543  1.0828
16960TIP3   OH272370   4.590   2.238  16.736 -0.1289  0.1249  0.0792
16960TIP3    H172371   4.614   2.216  16.826 -0.6223  0.6058  0.3304
16960TIP3    H272372   4.541   2.162  16.705  1.5672 -0.8471 -0.4138
16961TIP3   OH272373   2.378   4.788   2.127 -0.2919  0.2025 -0.5030
16961TIP3    H172374   2.374   4.829   2.214  2.6282  0.3734 -0.3543
16961TIP3    H272375   2.414   4.700   2.144  1.1982  0.5731 -1.5748
16962TIP3   OH272376   6.651   5.425  13.391  0.3637 -0.3576  0.0420
16962TIP3    H172377   6.688   5.354  13.339  4.9996  2.4220 -0.9690
16962TIP3    H272378   6.681   5.408  13.480  2.2694  0.6758 -0.3616
16963TIP3   OH272379   5.618   1.873  11.401 -0.6336 -0.2054 -0.0385
16963TIP3    H172380   5.527   1.878  11.373 -0.4449  0.6558 -0.5353
16963TIP3    H272381   5.631   1.951  11.455 -0.8958 -1.6333  2.2637
16964TIP3   OH272382   6.259   2.239  15.317  0.0345  0.0727  1.0031
16964TIP3    H172383   6.256   2.189  15.399  0.2295 -1.8604 -0.1121
16964TIP3    H272384   6.350   2.268  15.309 -0.4127  2.0768  2.4422
16965TIP3   OH272385   1.205   2.454   4.820 -0.3097 -0.2732 -0.4238
16965TIP3    H172386   1.211   2.503   4.738  1.1156  0.6557  0.1828
16965TIP3    H272387   1.280   2.394   4.817  0.2271  0.3120  0.4976
16966TIP3   OH272388   5.079   0.193  16.060 -0.0084 -0.0890 -0.2184
16966TIP3    H172389   5.067   0.172  16.152  0.9129  1.5288  0.3051
16966TIP3    H272390   4.992   0.218  16.029 -0.4763 -1.3786 -0.0263
16967TIP3   OH272391   0.723   2.629  13.025  0.3292  0.6844 -0.2104
16967TIP3    H172392   0.749   2.704  12.972  0.5764  1.1083  0.4912
16967TIP3    H272393   0.629   2.643  13.041  0.5887  1.4049  0.7762
16968TIP3   OH272394   0.436   4.938  14.669 -0.2774 -0.0540 -0.0038
16968TIP3    H172395   0.381   4.889  14.608  0.8636 -0.6878 -0.5493
16968TIP3    H272396   0.471   5.010  14.617  2.0856 -1.5633 -0.6692
16969TIP3   OH272397   3.419   3.641  11.828  0.6716 -0.3963 -0.1778
16969TIP3    H172398   3.366   3.709  11.785  2.1827  0.6294 -0.4961
16969TIP3    H272399   3.494   3.629  11.770  2.3082  0.3583  1.6558
16970TIP3   OH272400   1.652   1.133   1.269 -0.8720 -0.4260 -0.0916
16970TIP3    H172401   1.607   1.056   1.235  0.1837 -0.7538 -0.8021
16970TIP3    H272402   1.738   1.132   1.226 -0.8767  1.2060 -0.2196
16971TIP3   OH272403   0.226   5.152  14.276 -0.7113 -0.6955  0.4145
16971TIP3    H172404   0.300   5.204  14.246 -0.0923 -0.5880  2.0685
16971TIP3    H272405   0.253   5.061  14.263 -0.1866 -0.6597  1.2468
16972TIP3   OH272406   0.642   3.054  12.794 -0.2655 -0.6483 -0.0137
16972TIP3    H172407   0.580   3.106  12.845  0.0864  1.1773 -1.3280
16972TIP3    H272408   0.590   3.020  12.721  0.0666  0.1246 -0.6201
16973TIP3   OH272409   3.859   4.331  16.254  0.1117 -0.2161  0.8481
16973TIP3    H172410   3.883   4.247  16.293 -0.7079 -0.5757  0.5945
16973TIP3    H272411   3.943   4.375  16.239  0.4802 -0.1548  2.7948
16974TIP3   OH272412   5.398   6.716   3.610  0.3529  0.0900  0.4439
16974TIP3    H172413   5.336   6.764   3.665  0.2661  0.4330  0.0570
16974TIP3    H272414   5.418   6.777   3.538 -0.5557 -0.8230 -0.6214
16975TIP3   OH272415   1.800   5.175  16.094 -0.0447 -0.1016 -0.0136
16975TIP3    H172416   1.746   5.253  16.093 -1.2585 -0.9041  0.7732
16975TIP3    H272417   1.838   5.173  16.182  0.1846 -0.2576 -0.1153
16976TIP3   OH272418   2.074   1.360   4.407  0.2851  0.3129 -0.3843
16976TIP3    H172419   2.119   1.316   4.479  0.0330  1.2699  0.3825
16976TIP3    H272420   2.128   1.341   4.330  0.4165 -0.9434 -0.0051
16977TIP3   OH272421   5.768   6.269   2.999 -0.3194  0.1808  0.4366
16977TIP3    H172422   5.701   6.218   3.045  0.6031  0.8131  2.5767
16977TIP3    H272423   5.845   6.266   3.055  0.5452  1.8763 -0.5510
16978TIP3   OH272424   2.423   4.470   5.578 -0.6560 -0.0599  0.4037
16978TIP3    H172425   2.331   4.450   5.560  0.0857 -1.9284 -1.8619
16978TIP3    H272426   2.426   4.565   5.587 -2.5182  0.2632 -1.5578
16979TIP3   OH272427   4.254   3.264  16.952  0.0708 -0.5570 -0.6810
16979TIP3    H172428   4.198   3.340  16.964  1.3452  0.3466 -0.2177
16979TIP3    H272429   4.196   3.195  16.920 -0.9494  0.8401 -1.9174
16980TIP3   OH272430   4.453   0.873   4.814  0.0080  0.0694 -0.0880
16980TIP3    H172431   4.438   0.803   4.751 -0.4451  0.5095 -0.4732
16980TIP3    H272432   4.400   0.946   4.783  0.5475  0.6205  0.2562
16981TIP3   OH272433   1.089   0.624   2.863  0.6866  0.3686  0.0840
16981TIP3    H172434   1.092   0.566   2.938 -0.3135 -0.2400 -0.3263
16981TIP3    H272435   1.167   0.602   2.812 -0.7255 -2.1648 -1.1489
16982TIP3   OH272436   3.119   1.667   4.522 -0.3653  0.6882 -0.0772
16982TIP3    H172437   3.026   1.680   4.538 -0.4087 -0.6041  0.7864
16982TIP3    H272438   3.124   1.584   4.475  0.3181  1.0146 -0.6001
16983TIP3   OH272439   0.108   4.146  13.836  0.1954 -0.3896 -0.2268
16983TIP3    H172440   0.035   4.098  13.797  0.9656 -0.9456 -1.0211
16983TIP3    H272441   0.149   4.192  13.763  0.0826  0.6856  0.3641
16984TIP3   OH272442   4.095   6.657   4.158 -0.6707  0.0027  0.0672
16984TIP3    H172443   4.084   6.738   4.108 -0.4140  0.3547  0.5787
16984TIP3    H272444   4.137   6.684   4.239 -0.2575 -0.6944  0.0943
16985TIP3   OH272445   4.938   0.170   4.089  0.1976  0.1677 -0.1480
16985TIP3    H172446   4.939   0.264   4.074 -1.6782  0.1575 -0.5423
16985TIP3    H272447   4.977   0.159   4.175 -1.8235  1.5740  1.0306
16986TIP3   OH272448   2.444   3.582  11.905 -0.4781  0.6917 -0.6307
16986TIP3    H172449   2.453   3.496  11.864 -2.8964  0.1690 -0.2484
16986TIP3    H272450   2.457   3.565  11.999  0.9577  1.1346 -0.7259
16987TIP3   OH272451   6.017   1.121  13.350  0.5618  0.6421 -0.1400
16987TIP3    H172452   6.107   1.155  13.345  0.7737 -0.0742 -2.1371
16987TIP3    H272453   5.962   1.199  13.352  1.1858  1.0823  0.2397
16988TIP3   OH272454   3.087   3.836  12.546  0.2064  0.2979 -0.0523
16988TIP3    H172455   3.079   3.925  12.578 -1.8016  1.2604 -2.8514
16988TIP3    H272456   3.005   3.794  12.571  0.0465  0.0581 -0.9363
16989TIP3   OH272457   1.809   4.871  12.911  0.1849 -0.0366 -0.4577
16989TIP3    H172458   1.870   4.938  12.942  2.8662 -2.5899  0.2120
16989TIP3    H272459   1.843   4.847  12.824  0.0702 -1.3611 -0.1562
16990TIP3   OH272460   5.370   0.817   4.118  0.1750  0.5111  0.2712
16990TIP3    H172461   5.290   0.775   4.149  0.3239  0.1867  0.2272
16990TIP3    H272462   5.342   0.901   4.084 -0.5076 -0.4962 -1.8530
16991TIP3   OH272463   0.886   4.061   3.375  0.1079  0.7165  0.6645
16991TIP3    H172464   0.950   4.046   3.445  0.7360  1.1408  0.1937
16991TIP3    H272465   0.820   3.994   3.389  1.7265 -1.1470 -0.1114
16992TIP3   OH272466   4.439   5.767  12.679  0.7256 -0.3924  0.2005
16992TIP3    H172467   4.410   5.767  12.770 -1.2600 -0.4582 -0.3943
16992TIP3    H272468   4.498   5.692  12.673  0.9690 -0.3254  1.4401
16993TIP3   OH272469   2.091   1.997   2.187  0.1462  0.5266 -0.2719
16993TIP3    H172470   2.178   1.970   2.158  0.9097  1.6948  0.8081
16993TIP3    H272471   2.043   1.915   2.197  1.8424 -0.3782  1.2843
16994TIP3   OH272472   4.843   3.684   6.751  0.6895  0.5158  0.4935
16994TIP3    H172473   4.877   3.769   6.724  0.3995 -0.1013 -1.9882
16994TIP3    H272474   4.791   3.654   6.677 -1.7389 -0.5098  2.4612
16995TIP3   OH272475   1.335   6.158  13.589  0.1511 -0.3771  0.0117
16995TIP3    H172476   1.385   6.158  13.508 -0.0235 -1.9272 -0.1170
16995TIP3    H272477   1.378   6.225  13.643  0.7301  0.1433 -1.0560
16996TIP3   OH272478   4.226   4.064   6.427 -0.2266 -0.4497 -0.0260
16996TIP3    H172479   4.149   4.117   6.447  0.0966  0.5776 -1.3579
16996TIP3    H272480   4.192   3.988   6.381 -0.4889 -0.0941 -0.4354
16997TIP3   OH272481   1.076   0.027   5.452  0.2669 -0.1663  0.8813
16997TIP3    H172482   1.082  -0.063   5.420 -1.7421 -0.6206  1.6117
16997TIP3    H272483   1.165   0.061   5.445  0.8764 -1.8624 -0.3782
16998TIP3   OH272484   2.346   6.537   3.535  0.7442 -0.0819  0.0436
16998TIP3    H172485   2.439   6.514   3.540  0.8169  0.3638  0.8758
16998TIP3    H272486   2.337   6.614   3.592  0.1613  0.8087 -1.1857
16999TIP3   OH272487   1.101   0.420   6.296 -0.0062 -0.0511  0.5247
16999TIP3    H172488   1.037   0.387   6.233  1.3338 -2.2410  0.2155
16999TIP3    H272489   1.061   0.404   6.381 -0.4306 -0.1468  0.3127
17000TIP3   OH272490   2.892   2.001   2.944  0.3853  0.3619  0.2738
17000TIP3    H172491   2.959   2.066   2.922  0.7373  0.2919  1.1018
17000TIP3    H272492   2.941   1.928   2.982  0.1221 -0.9028 -1.6520
17001TIP3   OH272493   4.532   3.842  11.139  0.2047 -0.3260  0.0931
17001TIP3    H172494   4.438   3.845  11.160  0.2847  1.9451  0.3085
17001TIP3    H272495   4.535   3.812  11.048 -0.7871  0.2955 -0.1596
17002TIP3   OH272496   5.708   0.278  12.245 -0.8094 -0.4659 -0.2999
17002TIP3    H172497   5.792   0.265  12.201 -1.4308  0.7695 -1.9608
17002TIP3    H272498   5.694   0.373  12.241 -3.0567 -0.7872 -1.6258
17003TIP3   OH272499   5.338   4.527  12.147  0.4593  0.2824 -0.4721
17003TIP3    H172500   5.245   4.548  12.138  0.5877  0.7670 -0.7153
17003TIP3    H272501   5.383   4.597  12.101  0.9797  0.4974  0.3396
17004TIP3   OH272502   5.946   1.621   4.916 -0.0928  0.0351 -0.5207
17004TIP3    H172503   5.927   1.704   4.873  0.9763 -0.7192 -2.5848
17004TIP3    H272504   5.860   1.583   4.935 -0.7110 -0.3016 -3.5132
17005TIP3   OH272505   0.047   0.041   0.484 -0.0325  0.2188 -0.6889
17005TIP3    H172506   0.141   0.031   0.498  0.0279 -0.2633 -1.4252
17005TIP3    H272507   0.039   0.110   0.418 -0.2071  0.4329 -0.4474
17006TIP3   OH272508   6.588   4.285   0.659 -0.2066  0.3047 -0.1045
17006TIP3    H172509   6.495   4.306   0.666 -0.6253 -1.5223  0.3731
17006TIP3    H272510   6.592   4.189   0.665  1.8760  0.4337  2.0982
17007TIP3   OH272511   1.207   2.441   1.362  0.3678 -0.3802 -0.4294
17007TIP3    H172512   1.163   2.501   1.421  1.5247  0.1763 -0.0974
17007TIP3    H272513   1.172   2.461   1.275 -0.0504  0.0194 -0.1704
17008TIP3   OH272514   0.912   2.468   4.660 -0.2377 -0.0894  0.2356
17008TIP3    H172515   0.880   2.415   4.734 -1.4829 -0.6481 -0.6621
17008TIP3    H272516   1.000   2.496   4.687 -0.1728 -1.2941  1.4055
17009TIP3   OH272517   5.120   6.641  15.563 -0.0950  0.0332 -0.1615
17009TIP3    H172518   5.152   6.584  15.492  3.4087 -0.1721  1.3750
17009TIP3    H272519   5.131   6.730  15.529  1.5607 -0.0627  0.0732
17010TIP3   OH272520   4.309   1.125  15.913  0.0935  0.1578 -0.0546
17010TIP3    H172521   4.331   1.198  15.970  1.9643  0.0931 -0.6173
17010TIP3    H272522   4.335   1.154  15.826 -0.9608 -0.4573 -0.6014
17011TIP3   OH272523   5.369   0.746  16.131  0.6775  0.2266 -0.2940
17011TIP3    H172524   5.333   0.811  16.070  0.8550  0.3820 -0.2321
17011TIP3    H272525   5.323   0.763  16.213 -1.8471 -1.9213 -1.0987
17012TIP3   OH272526   4.913   5.877   6.258 -0.2501  0.1499 -0.3693
17012TIP3    H172527   4.819   5.859   6.250 -0.3526 -0.0672  1.1420
17012TIP3    H272528   4.949   5.799   6.299  1.1192 -0.9812 -3.3961
17013TIP3   OH272529   4.483   2.020   4.717  0.0604 -0.3445 -0.0925
17013TIP3    H172530   4.431   1.954   4.763 -0.7471  1.1659  1.2697
17013TIP3    H272531   4.430   2.043   4.641 -1.4935  1.3594  1.4125
17014TIP3   OH272532   2.424   0.155   0.892 -0.3920  0.3621  1.2473
17014TIP3    H172533   2.447   0.088   0.828 -2.0783  0.2639  0.6822
17014TIP3    H272534   2.502   0.165   0.946  0.8935  0.0952 -0.5061
17015TIP3   OH272535   3.832   3.616  13.437  0.7193 -0.2229  0.1403
17015TIP3    H172536   3.743   3.583  13.432  0.5973 -0.0637  1.0557
17015TIP3    H272537   3.887   3.538  13.444  0.5628 -0.2834  0.6845
17016TIP3   OH272538   5.671   2.075  12.750 -0.0390  0.0291  0.4194
17016TIP3    H172539   5.667   1.980  12.755 -1.1188  0.0359  0.0548
17016TIP3    H272540   5.585   2.101  12.717  1.0625  0.9679 -2.0059
17017TIP3   OH272541   4.113   5.405  15.145 -0.2155 -0.0480  0.4666
17017TIP3    H172542   4.159   5.322  15.156 -1.4482 -0.8929 -0.4738
17017TIP3    H272543   4.022   5.384  15.164 -0.3775  1.4078  1.5008
17018TIP3   OH272544   4.967   3.633   5.520  0.5584  0.0448 -0.9963
17018TIP3    H172545   5.018   3.703   5.479  1.5794  0.3459  0.6898
17018TIP3    H272546   5.032   3.572   5.555 -0.3131 -1.3219 -1.6936
17019TIP3   OH272547   1.088   4.035   4.380  0.0103  0.0143 -0.1988
17019TIP3    H172548   1.061   4.126   4.366  2.3960  1.1215  1.5002
17019TIP3    H272549   1.149   4.017   4.309  0.0051 -0.0063 -0.1980
17020TIP3   OH272550   4.964   2.838  16.405 -0.3765 -0.4246 -0.3094
17020TIP3    H172551   5.053   2.873  16.407 -0.5047 -0.1049 -0.1854
17020TIP3    H272552   4.907   2.915  16.412 -0.6739 -0.5455 -1.2165
17021TIP3   OH272553   0.242   1.994  17.059 -0.8525  0.5660  0.2893
17021TIP3    H172554   0.307   1.935  17.019 -0.3214  2.2506 -1.4944
17021TIP3    H272555   0.280   2.017  17.143 -0.2418 -0.2696  0.2603
17022TIP3   OH272556   2.165   1.822  15.070 -0.0094  0.9618 -0.3995
17022TIP3    H172557   2.251   1.784  15.054 -1.0050 -0.5868 -2.5685
17022TIP3    H272558   2.135   1.782  15.151  1.3329  1.6059  0.4370
17023TIP3   OH272559   1.086   3.026   2.611  0.3063  0.2310 -0.1904
17023TIP3    H172560   0.993   3.006   2.623  0.4240 -0.5238 -0.4911
17023TIP3    H272561   1.105   3.093   2.676 -0.6836  1.1148 -0.7782
17024TIP3   OH272562   3.426   6.491   1.947 -0.1252  0.3821  0.4400
17024TIP3    H172563   3.408   6.579   1.912  0.6604  0.4337  0.1473
17024TIP3    H272564   3.410   6.432   1.873 -0.3410  0.3034  0.5473
17025TIP3   OH272565   4.397   2.242  15.000  0.2617 -0.1917  0.3256
17025TIP3    H172566   4.425   2.150  14.993 -1.0256 -0.5745 -0.0131
17025TIP3    H272567   4.367   2.251  15.090  1.3147  0.1840  0.6511
17026TIP3   OH272568   6.592   5.273  12.496  0.3676  0.0708 -0.0050
17026TIP3    H172569   6.577   5.368  12.495  0.5164  0.0962  0.2429
17026TIP3    H272570   6.504   5.235  12.505  0.4921  0.2546  3.1166
17027TIP3   OH272571   0.348   3.938   1.622 -0.0020 -0.4149 -0.0719
17027TIP3    H172572   0.410   3.872   1.655 -0.3003 -0.7258 -0.1323
17027TIP3    H272573   0.342   4.002   1.693 -1.4053 -1.5932  0.9134
17028TIP3   OH272574   0.309   6.742  16.797  0.0071 -0.0667 -0.1143
17028TIP3    H172575   0.261   6.820  16.829 -1.2892 -0.9912  0.2881
17028TIP3    H272576   0.299   6.678  16.868  1.6268 -0.3946 -0.1565
17029TIP3   OH272577   2.549   5.952  13.078  0.4749 -0.3631  0.0219
17029TIP3    H172578   2.629   5.974  13.030  0.2302 -0.9558 -0.6827
17029TIP3    H272579   2.526   5.864  13.048  0.0806 -0.5837  0.9300
17030TIP3   OH272580   2.558   0.791   1.270 -0.5937  0.1515 -0.1484
17030TIP3    H172581   2.579   0.731   1.341 -0.1310  1.3002  0.7236
17030TIP3    H272582   2.468   0.818   1.286 -0.6107  0.1239 -0.1996
17031TIP3   OH272583   1.136   3.825   6.321  0.6661 -0.0655  0.1362
17031TIP3    H172584   1.076   3.879   6.270  0.3210 -2.0773 -1.7669
17031TIP3    H272585   1.218   3.874   6.322  0.1099  0.9180 -0.6958
17032TIP3   OH272586   3.364   6.168   2.043  0.2090  0.1450  0.3678
17032TIP3    H172587   3.453   6.202   2.056  0.3397 -0.4542  1.1015
17032TIP3    H272588   3.354   6.101   2.110  0.2710 -1.8890 -1.5159
17033TIP3   OH272589   2.346   6.054  13.214  0.0212 -0.8686 -0.6050
17033TIP3    H172590   2.334   6.148  13.203 -1.8031 -1.0360 -0.3295
17033TIP3    H272591   2.425   6.034  13.164  1.5505  1.0770  0.8946
17034TIP3   OH272592   6.798   3.301  16.568 -0.4018 -0.1384  0.4730
17034TIP3    H172593   6.880   3.255  16.549 -0.8289 -0.9033  0.4488
17034TIP3    H272594   6.744   3.286  16.490  0.0215  1.7675 -0.2420
17035TIP3   OH272595   1.176   2.249   0.249 -0.0744  0.0072  0.4507
17035TIP3    H172596   1.163   2.240   0.155  0.4872  2.9521 -0.0245
17035TIP3    H272597   1.271   2.260   0.259 -0.1660  0.1026  1.3155
17036TIP3   OH272598   0.140   2.593  11.088 -0.0256 -0.2010 -0.0303
17036TIP3    H172599   0.154   2.508  11.046 -0.0481 -1.9217  3.0687
17036TIP3    H272600   0.046   2.595  11.106  0.0247  0.3397  0.1950
17037TIP3   OH272601   3.219   5.992  11.177 -0.7233 -0.3069 -0.3889
17037TIP3    H172602   3.180   6.071  11.140  1.6260  1.3332  0.4335
17037TIP3    H272603   3.222   6.009  11.272  1.0757 -0.7521 -0.3391
17038TIP3   OH272604   5.745   1.914   0.353  0.3558  0.4769  0.4416
17038TIP3    H172605   5.765   1.824   0.327  1.3860  1.2095 -1.5090
17038TIP3    H272606   5.694   1.905   0.434  2.6556 -1.7820  1.7956
17039TIP3   OH272607   2.843   0.521   1.270  0.1777  0.5094 -0.0715
17039TIP3    H172608   2.900   0.449   1.296 -1.3568 -0.9925 -0.7405
17039TIP3    H272609   2.838   0.515   1.174 -3.0137 -1.0123  0.0592
17040TIP3   OH272610   2.979   5.483  12.218 -0.1595  0.0968 -0.2878
17040TIP3    H172611   3.018   5.519  12.298 -1.0206  1.4266 -0.4287
17040TIP3    H272612   2.931   5.405  12.247 -0.4595  0.5647  0.5066
17041TIP3   OH272613   3.926   4.390   2.129  0.2769  0.5918  0.0107
17041TIP3    H172614   3.966   4.329   2.067  2.3087  0.5150  1.3022
17041TIP3    H272615   4.000   4.426   2.178 -1.1051  2.0701  1.1021
17042TIP3   OH272616   1.168   4.967  15.598  0.4747 -0.4978  0.0042
17042TIP3    H172617   1.263   4.961  15.605  0.7898  1.7849 -1.5221
17042TIP3    H272618   1.147   4.920  15.518  0.2011 -1.5344  0.6594
17043TIP3   OH272619   0.297   2.642  16.867  0.5475 -0.2079 -0.3809
17043TIP3    H172620   0.319   2.549  16.874 -1.0354 -0.4992  1.6048
17043TIP3    H272621   0.305   2.675  16.956 -0.3262  1.2030 -0.7967
17044TIP3   OH272622   0.197   0.050   3.980  0.6352 -0.6175  1.0449
17044TIP3    H172623   0.293   0.047   3.982  0.6118 -1.4775  1.5878
17044TIP3    H272624   0.171   0.026   4.068 -0.0803  0.3980  1.1210
17045TIP3   OH272625   2.174   1.094   1.717 -0.2885 -0.1305 -0.2654
17045TIP3    H172626   2.083   1.109   1.693 -0.3812 -0.2304  0.0148
17045TIP3    H272627   2.200   1.174   1.764 -1.0057 -1.0933  1.8727
17046TIP3   OH272628   5.104   4.962   5.568  0.3256  0.4858 -0.3061
17046TIP3    H172629   5.052   5.042   5.560 -1.3200 -0.5343 -0.5034
17046TIP3    H272630   5.145   4.951   5.483 -0.2652  0.5928 -0.6094
17047TIP3   OH272631   4.823   6.689  12.345 -0.3433  0.3917  0.0628
17047TIP3    H172632   4.897   6.628  12.346 -0.2257  0.5196  1.5995
17047TIP3    H272633   4.838   6.745  12.421 -1.0883  1.5737 -0.6341
17048TIP3   OH272634   6.450   4.603   3.986 -0.2423 -0.2646  0.3175
17048TIP3    H172635   6.472   4.517   4.023  0.2220 -1.2976 -2.1041
17048TIP3    H272636   6.426   4.584   3.895  0.1568  2.2233 -0.3848
17049TIP3   OH272637   2.806   4.700   1.391  1.0004  0.1439  0.3685
17049TIP3    H172638   2.806   4.783   1.342 -1.3392 -0.1765 -0.3154
17049TIP3    H272639   2.876   4.649   1.351  0.9302  0.9303 -0.8169
17050TIP3   OH272640   5.775   4.300  14.700  0.1175  0.2615  0.0770
17050TIP3    H172641   5.816   4.271  14.619 -1.8043 -2.4144 -0.0763
17050TIP3    H272642   5.773   4.222  14.755 -0.1671  1.5832  2.0505
17051TIP3   OH272643   5.711   6.214   1.348 -0.0110 -0.4893  0.0026
17051TIP3    H172644   5.617   6.231   1.333  0.3041  2.2811  0.6317
17051TIP3    H272645   5.745   6.193   1.261 -0.9934 -0.1855 -0.4755
17052TIP3   OH272646   0.259   1.899   4.078 -0.1535 -0.4474  0.4124
17052TIP3    H172647   0.267   1.803   4.076  1.7367 -0.3348 -1.7648
17052TIP3    H272648   0.174   1.916   4.039 -0.8600 -1.2496  1.5569
17053TIP3   OH272649   6.121   6.546  10.862 -0.0624  0.2051  0.2480
17053TIP3    H172650   6.096   6.496  10.784 -0.5237 -0.3351  0.7277
17053TIP3    H272651   6.207   6.581  10.842  0.6212 -1.4298  0.1780
17054TIP3   OH272652   2.955   6.323  13.017  0.4391 -0.4341  0.2320
17054TIP3    H172653   2.928   6.405  12.976  0.5579 -0.8761 -0.7525
17054TIP3    H272654   2.982   6.267  12.944 -2.1352 -2.3216  0.5882
17055TIP3   OH272655   5.855   3.914  14.607 -0.2953  0.4008  0.5721
17055TIP3    H172656   5.780   3.857  14.622  1.5445 -2.8597 -1.4135
17055TIP3    H272657   5.916   3.892  14.677  1.1148 -1.5265 -1.1501
17056TIP3   OH272658   4.567   2.333   0.136  0.2437  0.0501  0.3820
17056TIP3    H172659   4.550   2.427   0.123 -2.2711 -0.2057  1.2983
17056TIP3    H272660   4.615   2.329   0.219 -0.7144  0.4938  0.9803
17057TIP3   OH272661   5.194   1.025  16.873  0.4995 -0.3622 -0.0742
17057TIP3    H172662   5.269   0.986  16.828  1.2809 -0.7457  1.4660
17057TIP3    H272663   5.152   0.952  16.918  1.1208  0.2901  1.6640
17058TIP3   OH272664   5.667   0.997  15.320 -0.3928  0.4803 -0.2875
17058TIP3    H172665   5.731   0.925  15.318 -0.6436  0.2646 -0.6801
17058TIP3    H272666   5.694   1.055  15.248 -0.7123  0.3209 -0.5392
17059TIP3   OH272667   3.118   4.628   0.408 -0.1507  0.1656  0.2262
17059TIP3    H172668   3.071   4.668   0.335  0.7920  1.3833  0.2633
17059TIP3    H272669   3.067   4.549   0.428 -2.6176  1.7792  0.7546
17060TIP3   OH272670   5.473   5.783  15.448  0.5379 -0.1757  0.0804
17060TIP3    H172671   5.478   5.878  15.437  0.8586 -0.1583  0.3876
17060TIP3    H272672   5.485   5.769  15.542 -1.5676 -0.3699  0.3825
17061TIP3   OH272673   0.835   2.822  12.889 -0.7177  0.6498  0.4309
17061TIP3    H172674   0.790   2.906  12.888 -0.8844  0.5622  0.4843
17061TIP3    H272675   0.879   2.817  12.805  1.0658  1.7387  1.2526
17062TIP3   OH272676   5.371   0.143   1.707 -0.1742  0.5549  0.1942
17062TIP3    H172677   5.405   0.163   1.620  4.8154 -1.2658  1.3287
17062TIP3    H272678   5.314   0.067   1.695 -0.9983  1.4100 -1.5769
17063TIP3   OH272679   4.456   1.634  16.386 -0.2043  0.1737  0.0492
17063TIP3    H172680   4.436   1.726  16.404  1.2504  0.8544 -1.5884
17063TIP3    H272681   4.372   1.595  16.362 -0.5712  1.4914 -0.8690
17064TIP3   OH272682   5.825   5.400   4.108 -0.3249 -0.3645 -1.0962
17064TIP3    H172683   5.828   5.310   4.141  1.5145 -0.1962 -0.7246
17064TIP3    H272684   5.916   5.427   4.102 -0.8204  1.3190 -1.6973
17065TIP3   OH272685   5.520   0.381  13.643  0.5321 -0.1053  0.0344
17065TIP3    H172686   5.484   0.293  13.647 -1.2770  0.6042  0.3730
17065TIP3    H272687   5.477   0.428  13.715  1.6145  1.0106 -0.0087
17066TIP3   OH272688   1.292   1.060  15.843 -0.6551  0.1198 -0.2819
17066TIP3    H172689   1.229   1.131  15.848 -1.7475 -0.7110 -1.5902
17066TIP3    H272690   1.354   1.087  15.775 -1.2263 -0.2763 -0.9722
17067TIP3   OH272691   5.404   2.302   4.026  0.0623  0.1984  0.5119
17067TIP3    H172692   5.474   2.291   4.090  0.4567 -2.3534 -0.2710
17067TIP3    H272693   5.363   2.216   4.019 -3.2472  1.5741  0.9549
17068TIP3   OH272694   5.657   1.583   3.455 -0.3301  0.1519 -0.0721
17068TIP3    H172695   5.719   1.531   3.506 -0.7909  0.5658  0.9454
17068TIP3    H272696   5.699   1.595   3.370  2.0008  2.2568  1.2698
17069TIP3   OH272697   2.339   2.986   4.075 -0.4254 -0.1990 -0.4175
17069TIP3    H172698   2.257   3.035   4.066 -1.8901 -2.3124  0.3822
17069TIP3    H272699   2.349   2.973   4.169 -0.6839 -2.2220 -0.6117
17070TIP3   OH272700   0.180   5.921  16.374 -0.1939  0.0177 -0.2864
17070TIP3    H172701   0.154   5.840  16.331  1.0124  1.1047 -3.3715
17070TIP3    H272702   0.243   5.894  16.441 -0.6967 -1.6486 -0.4345
17071TIP3   OH272703   6.722   1.746   0.304 -0.0428  0.3093 -0.6417
17071TIP3    H172704   6.736   1.769   0.396  0.1995 -0.6744 -0.4190
17071TIP3    H272705   6.713   1.830   0.259  0.8040  0.8280  0.1248
17072TIP3   OH272706   1.618   0.818   0.451  0.1588  0.3667 -0.0323
17072TIP3    H172707   1.532   0.849   0.423 -0.2848  0.0443  0.9293
17072TIP3    H272708   1.669   0.811   0.370 -0.8959  0.0058 -0.6801
17073TIP3   OH272709   1.583   5.958  16.851 -0.0959  0.1757  0.1201
17073TIP3    H172710   1.602   5.891  16.916  1.1255  1.2209  0.8817
17073TIP3    H272711   1.668   5.994  16.827 -0.7238  1.4630 -0.2654
17074TIP3   OH272712   6.068   1.967  16.524  0.1668  0.8603 -0.1960
17074TIP3    H172713   6.110   1.958  16.610  0.1566 -2.8811 -0.4127
17074TIP3    H272714   6.017   1.887  16.514 -1.0748  1.8902 -3.0868
17075TIP3   OH272715   5.317   4.528  15.746  0.0286 -0.5957 -0.1738
17075TIP3    H172716   5.360   4.465  15.688  0.5962  1.4181 -2.0797
17075TIP3    H272717   5.293   4.601  15.689 -0.7543  0.8659  1.8934
17076TIP3   OH272718   1.487   0.501  12.030 -0.5444 -0.5073 -0.2774
17076TIP3    H172719   1.401   0.474  12.000 -1.5415  1.2041  0.8685
17076TIP3    H272720   1.516   0.565  11.966 -0.4592 -0.5236 -0.2551
17077TIP3   OH272721   6.275   1.557  12.217 -0.2889 -0.0963 -0.2382
17077TIP3    H172722   6.194   1.551  12.166 -0.2615  1.0993 -0.4628
17077TIP3    H272723   6.262   1.633  12.274 -0.7827 -2.0520  2.4342
17078TIP3   OH272724   4.927   2.607  11.506 -0.2665 -0.8409  0.2677
17078TIP3    H172725   4.965   2.545  11.568  3.0055  0.8954  0.2277
17078TIP3    H272726   4.898   2.681  11.561  1.6794  0.2418 -0.0673
17079TIP3   OH272727   5.426   6.608   2.140 -0.3789  0.3374  0.4610
17079TIP3    H172728   5.452   6.627   2.230 -1.8677  1.8903  0.6362
17079TIP3    H272729   5.499   6.638   2.086 -0.2837  1.2509  1.0817
17080TIP3   OH272730   1.307   1.924   3.839 -0.9255  0.1681  0.1591
17080TIP3    H172731   1.392   1.879   3.841 -1.3784 -0.7016  0.5608
17080TIP3    H272732   1.289   1.945   3.930 -1.1699  0.2922  0.0818
17081TIP3   OH272733   2.405   4.438   0.575  0.3524  0.8700 -0.5588
17081TIP3    H172734   2.430   4.446   0.483  0.9095  1.6493 -0.3505
17081TIP3    H272735   2.411   4.344   0.593 -1.6046  0.4321 -1.8145
17082TIP3   OH272736   1.682   3.475   1.057  0.4437  0.0825  0.0379
17082TIP3    H172737   1.682   3.546   1.120  1.0922  0.2979 -0.1965
17082TIP3    H272738   1.770   3.477   1.018  0.5686 -1.0186  0.2283
17083TIP3   OH272739   4.512   2.672  16.755  0.3639 -0.2445 -0.5416
17083TIP3    H172740   4.485   2.746  16.700  0.6916 -0.3261 -0.8151
17083TIP3    H272741   4.567   2.619  16.698  2.2069  0.5963  0.3587
17084TIP3   OH272742   2.477   3.570  13.984  0.3337 -0.0452  0.2365
17084TIP3    H172743   2.417   3.499  14.008  0.6630 -0.4373 -0.0793
17084TIP3    H272744   2.561   3.545  14.022  0.8143 -0.5813 -1.1208
17085TIP3   OH272745   1.421   2.229  14.033  0.1752 -0.2022  0.2953
17085TIP3    H172746   1.492   2.293  14.032  0.9752 -1.0554  0.6585
17085TIP3    H272747   1.461   2.148  14.000 -0.6955 -0.6306  0.2637
17086TIP3   OH272748   6.525   1.301   5.292  0.1113 -0.5280 -0.3290
17086TIP3    H172749   6.614   1.265   5.284  0.1780 -0.5622  0.4960
17086TIP3    H272750   6.477   1.235   5.342  0.2481  0.5372  1.2647
17087TIP3   OH272751   1.602   0.624   3.815 -0.2514 -0.2613  0.0366
17087TIP3    H172752   1.664   0.675   3.762 -0.2402 -0.1859  0.1236
17087TIP3    H272753   1.635   0.631   3.904 -1.2006  1.0034  0.3161
17088TIP3   OH272754   6.134   6.403  16.213 -0.3383  0.1036  0.0326
17088TIP3    H172755   6.048   6.362  16.206  0.7474 -2.0871 -1.8281
17088TIP3    H272756   6.116   6.494  16.238 -3.0750 -0.6178  1.0078
17089TIP3   OH272757   1.677   6.381  12.448 -0.2682 -0.1525  0.8593
17089TIP3    H172758   1.700   6.295  12.484 -1.3832 -0.8594 -0.0611
17089TIP3    H272759   1.583   6.390  12.466 -0.3296  0.5247  0.2304
17090TIP3   OH272760   5.866   5.470   1.813  0.2439  0.3795  0.1373
17090TIP3    H172761   5.821   5.393   1.776  0.4413 -0.3096  1.2856
17090TIP3    H272762   5.928   5.496   1.745  0.2559 -0.5450 -0.2215
17091TIP3   OH272763   4.928   6.357  14.915 -0.2339  1.0431  0.0504
17091TIP3    H172764   4.883   6.287  14.962  0.4308 -1.5367 -2.8097
17091TIP3    H272765   4.862   6.391  14.854  0.7692 -0.9482 -2.3186
17092TIP3   OH272766   0.044   4.336  11.529  0.1784  0.0264 -0.2251
17092TIP3    H172767   0.105   4.302  11.594  1.9577 -1.6126 -2.5661
17092TIP3    H272768  -0.040   4.294  11.549  0.4304  0.2920  1.5112
17093TIP3   OH272769   4.433   0.295  15.506  0.1228 -0.4469 -0.1945
17093TIP3    H172770   4.376   0.326  15.435  0.3027  0.8013  0.1866
17093TIP3    H272771   4.502   0.360  15.511 -0.1967 -0.2057  1.5069
17094TIP3   OH272772   6.273   0.351  11.488 -0.3276  0.6122  0.8508
17094TIP3    H172773   6.328   0.423  11.519  0.6108  1.2072 -1.8582
17094TIP3    H272774   6.246   0.378  11.400 -1.6640 -1.4575  0.5608
17095TIP3   OH272775   0.920   2.253   4.450  0.1159 -0.3766  0.4397
17095TIP3    H172776   0.826   2.242   4.435 -0.1283 -1.7805  2.5464
17095TIP3    H272777   0.927   2.331   4.504  0.2428  0.0613 -0.1940
17096TIP3   OH272778   5.797   1.025   4.748  0.1219 -0.4249 -0.0729
17096TIP3    H172779   5.824   1.069   4.829  1.3477  1.7926 -1.5654
17096TIP3    H272780   5.733   0.960   4.776  0.6432  0.1174  2.6833
17097TIP3   OH272781   4.061   4.526   1.642 -0.0921 -0.5581  0.3722
17097TIP3    H172782   4.052   4.432   1.659 -0.8310 -0.3611  1.1673
17097TIP3    H272783   4.116   4.558   1.713  0.5983 -0.4693 -0.1956
17098TIP3   OH272784   1.334   4.276   5.023  0.2393  0.3142  0.4501
17098TIP3    H172785   1.250   4.232   5.004  0.5185  0.6884 -2.0197
17098TIP3    H272786   1.326   4.305   5.114 -1.5217 -1.3509  0.9050
17099TIP3   OH272787   2.953   5.000   2.392  0.7640 -0.1290  0.0631
17099TIP3    H172788   3.013   4.941   2.437 -1.0514 -1.1913  1.2516
17099TIP3    H272789   3.007   5.045   2.327  2.6720 -1.4744  0.6221
17100TIP3   OH272790   0.555   3.949  13.531 -0.1202  0.4471 -0.2250
17100TIP3    H172791   0.607   3.991  13.463  2.1556 -2.1752 -0.2994
17100TIP3    H272792   0.479   3.914  13.484  0.7676 -0.2098 -1.2372
17101TIP3   OH272793   2.223   2.998  11.199 -0.1804  0.2175  0.3354
17101TIP3    H172794   2.197   3.026  11.112 -1.6797 -0.1294  0.6371
17101TIP3    H272795   2.196   3.069  11.257 -0.8980 -0.3384  0.7103
17102TIP3   OH272796   1.912   5.075  16.900 -0.0541 -0.1642 -0.3534
17102TIP3    H172797   1.994   5.120  16.880 -0.4073  0.1711 -1.0836
17102TIP3    H272798   1.939   4.996  16.947  0.9345 -1.4458 -2.8574
17103TIP3   OH272799   6.550   6.578   3.691 -0.5181  0.2274 -0.8014
17103TIP3    H172800   6.560   6.659   3.741 -1.2101 -1.3644  2.1313
17103TIP3    H272801   6.639   6.544   3.682 -0.3352  0.7774 -1.1120
17104TIP3   OH272802   3.489   4.630  10.804  0.1238 -0.1655 -0.2820
17104TIP3    H172803   3.530   4.546  10.786 -0.0107 -0.5313  0.9722
17104TIP3    H272804   3.402   4.623  10.764  1.0029  0.3829 -2.4033
17105TIP3   OH272805   5.982   1.465   1.896 -0.6059  0.1655 -0.0271
17105TIP3    H172806   5.998   1.492   1.986 -3.3349 -0.8847  0.8669
17105TIP3    H272807   5.918   1.528   1.863  0.5590  0.7011 -1.3669
17106TIP3   OH272808   1.282   2.152   1.391  0.0190  0.0582  0.3861
17106TIP3    H172809   1.263   2.243   1.409 -0.5402 -0.1696  0.9719
17106TIP3    H272810   1.255   2.139   1.300  1.6274  0.8761 -0.2570
17107TIP3   OH272811   5.321   1.274  15.597  0.0149  0.0652  0.1039
17107TIP3    H172812   5.404   1.230  15.616  0.0371  0.6547  1.5640
17107TIP3    H272813   5.345   1.347  15.540  0.3571 -0.3366 -0.2667
17108TIP3   OH272814   4.162   6.554  13.837 -0.0319 -0.4789  0.4397
17108TIP3    H172815   4.122   6.539  13.752  0.6068  1.0740 -0.1802
17108TIP3    H272816   4.089   6.582  13.893 -0.4555 -1.5279  0.4362
17109TIP3   OH272817   6.105   3.878   2.453 -0.0336  0.2617 -0.5296
17109TIP3    H172818   6.191   3.835   2.454 -1.2503 -2.5679  2.5786
17109TIP3    H272819   6.045   3.809   2.426 -1.8950  0.3328  2.8870
17110TIP3   OH272820   4.818   2.166  12.132 -0.2310 -0.2831  0.4318
17110TIP3    H172821   4.870   2.165  12.052  0.4298  0.0295  0.8442
17110TIP3    H272822   4.748   2.230  12.115  0.4741  0.5148  0.4464
17111TIP3   OH272823   3.081   3.179  11.730  0.3989 -0.2178  0.2705
17111TIP3    H172824   3.129   3.099  11.752 -1.0307 -1.3881 -0.7023
17111TIP3    H272825   3.075   3.178  11.635  0.3235  1.0524  0.2446
17112TIP3   OH272826   2.154   5.377   0.579 -0.3991  0.8221 -0.0718
17112TIP3    H172827   2.109   5.400   0.660 -0.6517  0.5276 -0.1260
17112TIP3    H272828   2.133   5.449   0.519 -2.2247 -0.1092 -0.6342
17113TIP3   OH272829   2.496   0.375  14.223  0.3496  0.1732  0.1731
17113TIP3    H172830   2.478   0.469  14.228  0.8865  0.5072 -2.7811
17113TIP3    H272831   2.577   0.364  14.274 -0.7174  0.9213  2.1428
17114TIP3   OH272832   4.771   0.307   5.286  0.0720 -0.5619 -0.0686
17114TIP3    H172833   4.729   0.370   5.228  0.6784 -1.5145 -1.5990
17114TIP3    H272834   4.817   0.361   5.350 -2.5371  0.5221  1.0621
17115TIP3   OH272835   5.686   4.514   6.407  0.2698  0.0174  0.0270
17115TIP3    H172836   5.766   4.502   6.356  0.5076  0.1210  0.3697
17115TIP3    H272837   5.633   4.575   6.355  0.7636  0.5927  0.1858
17116TIP3   OH272838   4.021   0.734  11.719  0.4894  0.1774 -0.0304
17116TIP3    H172839   3.945   0.704  11.768  0.9041 -2.5732 -0.9149
17116TIP3    H272840   4.004   0.827  11.704 -3.7611 -0.6849 -1.9888
17117TIP3   OH272841   1.308   5.141   4.161  0.5591 -0.2383  0.0499
17117TIP3    H172842   1.254   5.192   4.221 -0.8113 -1.6526  0.1005
17117TIP3    H272843   1.379   5.108   4.215  1.2107  1.1960  0.1127
17118TIP3   OH272844   6.047   4.186   2.336  0.1966  0.3835  0.2964
17118TIP3    H172845   5.985   4.186   2.263  1.2951 -0.7692 -0.6721
17118TIP3    H272846   6.036   4.101   2.378 -1.9666  1.7714  2.9350
17119TIP3   OH272847   1.335   1.251   0.629 -0.4533 -0.5069 -0.6455
17119TIP3    H172848   1.340   1.177   0.569 -2.6832  0.2638 -1.8863
17119TIP3    H272849   1.377   1.323   0.582  0.1205 -0.5108 -0.1628
17120TIP3   OH272850   0.821   2.950   2.622 -0.9382  0.4837 -0.2243
17120TIP3    H172851   0.876   2.874   2.639 -0.2704  1.1665  0.7640
17120TIP3    H272852   0.734   2.913   2.602  0.1034 -0.6763 -3.1649
17121TIP3   OH272853   5.028   0.061  13.847  0.1213 -0.3034 -0.3556
17121TIP3    H172854   5.060  -0.007  13.788  1.4016 -0.1913  0.1803
17121TIP3    H272855   5.107   0.109  13.873 -0.5524  0.3000  0.6264
17122TIP3   OH272856   2.428   3.739   5.750 -0.0590 -0.3133  0.5044
17122TIP3    H172857   2.488   3.753   5.677  1.0483 -2.0093  1.0351
17122TIP3    H272858   2.384   3.823   5.761  0.5923  0.3185 -1.3431
17123TIP3   OH272859   2.291   3.740  16.994  0.0721  0.1876 -0.7248
17123TIP3    H172860   2.315   3.658  17.038  0.0636 -0.1775 -1.3796
17123TIP3    H272861   2.360   3.802  17.019 -0.6824  0.4031  0.9192
17124TIP3   OH272862   6.377   5.019  11.657  0.1884 -0.4474  0.1433
17124TIP3    H172863   6.323   4.941  11.664 -0.0160 -0.4909 -1.4706
17124TIP3    H272864   6.403   5.021  11.564 -0.7156  1.9712 -0.1215
17125TIP3   OH272865   2.982   6.736   6.012 -0.0430  0.5413  0.4611
17125TIP3    H172866   2.935   6.709   5.933 -1.2416  0.0327  1.3157
17125TIP3    H272867   2.987   6.657   6.065 -1.2138  1.3457  1.8432
17126TIP3   OH272868   5.035   0.589   4.578 -0.4649  0.3592 -0.3701
17126TIP3    H172869   5.107   0.552   4.527  0.0945  1.0629 -0.0996
17126TIP3    H272870   4.998   0.658   4.523 -1.0472 -0.1048 -0.5757
17127TIP3   OH272871   3.976   4.524  15.939  0.2876 -0.5891 -0.3842
17127TIP3    H172872   3.941   4.436  15.921  0.9749 -1.0701  0.5754
17127TIP3    H272873   4.069   4.518  15.919  0.4183 -0.1988  0.0771
17128TIP3   OH272874   3.863   3.828  16.382 -0.5283 -0.2764 -0.5776
17128TIP3    H172875   3.872   3.922  16.366 -1.2497 -0.3203 -1.2854
17128TIP3    H272876   3.946   3.803  16.423 -1.3405  1.1742  2.1366
17129TIP3   OH272877   5.170   2.198  14.612 -0.0102  0.1146 -0.2530
17129TIP3    H172878   5.188   2.110  14.579 -1.1392  0.0190 -0.6867
17129TIP3    H272879   5.199   2.196  14.703 -0.8182 -0.9995  0.0084
17130TIP3   OH272880   4.234   2.890   0.120  0.1161  0.2854  0.7074
17130TIP3    H172881   4.271   2.819   0.068  0.7303  1.9960 -1.3629
17130TIP3    H272882   4.305   2.920   0.176  0.1435 -0.1049  0.8807
17131TIP3   OH272883   1.111   0.882   0.632 -0.0485  0.0471  0.3454
17131TIP3    H172884   1.174   0.923   0.573 -0.6776  0.5055 -0.0123
17131TIP3    H272885   1.165   0.834   0.695  0.6657 -2.5820 -2.0625
17132TIP3   OH272886   0.211   6.694   1.245  0.8593 -0.0551 -0.3563
17132TIP3    H172887   0.211   6.711   1.151  0.6230 -0.3385 -0.4107
17132TIP3    H272888   0.179   6.775   1.284  4.1137  1.3242 -0.2496
17133TIP3   OH272889   6.348   2.262   4.177  0.0009  0.2623 -0.1686
17133TIP3    H172890   6.256   2.244   4.199 -0.2042  0.0190 -1.2127
17133TIP3    H272891   6.394   2.248   4.260 -1.0441  1.5455  0.6809
17134TIP3   OH272892   2.702   4.191   2.587  0.4471  0.6745 -0.3242
17134TIP3    H172893   2.761   4.120   2.610  2.1491  1.9718 -0.4861
17134TIP3    H272894   2.663   4.164   2.504 -0.6843 -1.0442  0.7104
17135TIP3   OH272895   1.375   2.946   0.361 -0.5709 -0.2625  0.2878
17135TIP3    H172896   1.364   2.999   0.440 -0.4207  1.0506 -0.5563
17135TIP3    H272897   1.353   3.004   0.289  1.8310 -0.6087 -0.8191
17136TIP3   OH272898   5.072   6.144  13.840 -0.3204  0.0524  0.1808
17136TIP3    H172899   5.163   6.129  13.866 -0.4405  1.0059  1.2211
17136TIP3    H272900   5.073   6.143  13.744  0.5973 -0.9661  0.1846
17137TIP3   OH272901   2.147   5.296  16.498 -0.1303 -0.0987 -0.3077
17137TIP3    H172902   2.230   5.308  16.545 -0.7006  0.4329  0.5882
17137TIP3    H272903   2.084   5.348  16.547 -0.7962  0.2931 -1.5484
17138TIP3   OH272904   1.037   0.327   0.749  0.4286 -0.6625 -0.4860
17138TIP3    H172905   0.995   0.413   0.743  0.8178 -0.4507 -0.2473
17138TIP3    H272906   1.098   0.336   0.822  0.7133 -1.0393 -0.6749
17139TIP3   OH272907   2.608   4.044   2.325  0.3686  0.5976 -0.2985
17139TIP3    H172908   2.536   4.108   2.323  0.8787  1.2295  0.9117
17139TIP3    H272909   2.662   4.067   2.249 -1.0044 -0.2869 -1.6064
17140TIP3   OH272910   2.108   5.958  15.002 -0.0701  0.8653  0.3008
17140TIP3    H172911   2.049   5.925  15.070  0.8526 -0.6268  0.4178
17140TIP3    H272912   2.086   5.907  14.924 -0.3504  1.7813 -0.2406
17141TIP3   OH272913   0.659   2.044   0.988  0.0401  0.3459  0.1452
17141TIP3    H172914   0.711   1.966   1.005 -0.0899  0.2298  0.0164
17141TIP3    H272915   0.678   2.103   1.061 -1.2288 -0.5020  1.1786
17142TIP3   OH272916   2.442   4.959  16.385  0.0440 -0.0238  0.2705
17142TIP3    H172917   2.419   4.976  16.294  1.4139 -0.9508 -0.2837
17142TIP3    H272918   2.520   4.904  16.380 -0.5127 -1.0505  1.9928
17143TIP3   OH272919   4.699   1.894  17.067 -0.0090 -0.1040  0.1825
17143TIP3    H172920   4.649   1.832  17.120 -1.2589  0.2243 -0.5780
17143TIP3    H272921   4.788   1.889  17.102 -0.7483  0.0076  2.2435
17144TIP3   OH272922   3.501   1.444  11.326  0.1778 -0.5689 -0.0657
17144TIP3    H172923   3.545   1.494  11.395  2.7108 -0.3331 -1.7542
17144TIP3    H272924   3.463   1.511  11.269  2.8011 -0.4534 -1.8292
17145TIP3   OH272925   1.379   5.546   4.620  0.4721  0.2588  0.1181
17145TIP3    H172926   1.373   5.450   4.622  1.9580  0.0137 -2.5033
17145TIP3    H272927   1.294   5.575   4.587  0.2135 -0.1893  0.3773
17146TIP3   OH272928   2.576   5.382   2.171  0.1110 -0.2894  0.7262
17146TIP3    H172929   2.623   5.466   2.177  0.4808 -0.3880 -0.5136
17146TIP3    H272930   2.645   5.316   2.176  0.0125 -0.4635 -0.1763
17147TIP3   OH272931   2.714   0.519  16.717 -0.3931 -0.1545 -0.4989
17147TIP3    H172932   2.618   0.525  16.722 -0.5715  3.0053 -3.5203
17147TIP3    H272933   2.744   0.607  16.738  1.9044 -1.0670  0.3210
17148TIP3   OH272934   1.458   2.257   2.790  0.1622 -0.4279  0.3531
17148TIP3    H172935   1.500   2.273   2.705 -0.9400  1.1789  0.0675
17148TIP3    H272936   1.367   2.235   2.768 -0.4204  1.0668  1.1227
17149TIP3   OH272937   0.838   1.651   0.026 -0.3334  0.4702  0.1438
17149TIP3    H172938   0.892   1.721  -0.011  0.7420 -0.0977  0.5954
17149TIP3    H272939   0.765   1.697   0.067  0.9428  1.4349  1.4341
17150TIP3   OH272940   6.530   1.415   0.426 -0.0327 -0.1748 -0.3809
17150TIP3    H172941   6.441   1.389   0.403  0.2933 -1.2684 -0.4931
17150TIP3    H272942   6.577   1.415   0.343  0.3574 -0.8399 -0.1694
17151TIP3   OH272943   0.370   2.828   4.210 -0.4246 -0.0103 -0.2832
17151TIP3    H172944   0.443   2.767   4.226  0.2070  0.8477  0.1611
17151TIP3    H272945   0.321   2.787   4.139  0.9826 -0.1971 -1.1952
17152TIP3   OH272946   4.219   3.898  12.137  0.0067  0.0961 -0.4822
17152TIP3    H172947   4.240   3.932  12.050 -0.2352  0.3752 -0.4308
17152TIP3    H272948   4.165   3.965  12.177  3.6340  2.1257  1.5595
17153TIP3   OH272949   0.648   0.034   3.906  0.2004  0.2724  0.1566
17153TIP3    H172950   0.587   0.084   3.852  0.7935  0.2722 -0.5346
17153TIP3    H272951   0.709   0.100   3.940 -1.3421  0.5963  2.5404
17154TIP3   OH272952   3.715   1.627   3.295 -0.2457 -0.2296  0.0357
17154TIP3    H172953   3.625   1.603   3.272 -1.0467  2.5561 -0.0714
17154TIP3    H272954   3.736   1.572   3.371 -1.6022 -1.7220 -0.6186
17155TIP3   OH272955   3.830   2.527   3.249 -0.0523 -0.6107 -0.1620
17155TIP3    H172956   3.759   2.562   3.194 -0.1951 -2.1698 -1.0328
17155TIP3    H272957   3.815   2.567   3.335  0.4962  2.3251 -1.2999
17156TIP3   OH272958   5.128   0.042  15.016  0.1488  0.0029 -0.0669
17156TIP3    H172959   5.194  -0.013  15.059 -1.4744 -0.6198  1.7824
17156TIP3    H272960   5.082  -0.017  14.957 -0.2627 -0.1275  0.3837
17157TIP3   OH272961   3.990   4.184   3.000 -0.0886 -0.1076 -0.5049
17157TIP3    H172962   4.043   4.205   2.924  1.1792 -0.5358  0.2340
17157TIP3    H272963   3.912   4.141   2.964 -0.3487  1.2860 -1.6580
17158TIP3   OH272964   3.478   1.079  14.972  0.1696 -0.1309  0.7971
17158TIP3    H172965   3.472   1.115  15.061 -2.2848  0.1836  0.5852
17158TIP3    H272966   3.405   1.120  14.925  1.8475  0.2624 -1.6030
17159TIP3   OH272967   4.279   5.447   3.876  0.7421 -0.2140  0.4733
17159TIP3    H172968   4.276   5.404   3.790  2.0461 -1.3718  0.9634
17159TIP3    H272969   4.190   5.439   3.910  0.0378  0.8748 -1.0381
17160TIP3   OH272970   4.074   6.176  16.813  0.5123  0.5329 -0.0031
17160TIP3    H172971   4.112   6.225  16.886  1.1694  0.9833 -0.6342
17160TIP3    H272972   4.144   6.171  16.748 -0.3370  0.9239 -0.9759
17161TIP3   OH272973   2.133   3.751  11.032 -0.1368 -0.2362 -0.4640
17161TIP3    H172974   2.040   3.770  11.045 -0.1907  0.4741 -1.7273
17161TIP3    H272975   2.134   3.663  10.994 -0.4404  0.4416 -2.1215
17162TIP3   OH272976   4.320   5.128  14.596  0.1620  0.0427 -0.7322
17162TIP3    H172977   4.375   5.105  14.522 -0.1866 -0.0199 -0.9731
17162TIP3    H272978   4.247   5.177  14.558  0.0568  0.1341 -0.4150
17163TIP3   OH272979   0.112   1.243   2.674  0.4823  0.3729 -0.7152
17163TIP3    H172980   0.049   1.243   2.746  0.9790  1.3222 -0.2659
17163TIP3    H272981   0.159   1.159   2.683  0.4113  0.4018 -0.0506
17164TIP3   OH272982   3.277   4.733   2.685 -0.4072 -0.1693 -0.3859
17164TIP3    H172983   3.326   4.813   2.706  1.2821 -1.0857 -0.7250
17164TIP3    H272984   3.207   4.731   2.751 -0.4724  1.5494 -0.3391
17165TIP3   OH272985   4.895   1.659   0.642 -1.2962 -1.1495 -0.2752
17165TIP3    H172986   4.964   1.623   0.587 -0.9426 -0.4434 -0.3048
17165TIP3    H272987   4.936   1.669   0.728 -0.9043  0.6033 -0.6323
17166TIP3   OH272988   2.498   5.103   4.002  0.0766  0.1763  0.1840
17166TIP3    H172989   2.557   5.132   3.932  1.9167 -1.6233  0.8870
17166TIP3    H272990   2.482   5.181   4.054  0.3774  1.0890 -1.0376
17167TIP3   OH272991   0.420   3.744   2.566  0.1499 -0.5527 -0.3400
17167TIP3    H172992   0.462   3.658   2.571  0.0082 -0.6636 -0.9746
17167TIP3    H272993   0.437   3.773   2.476 -0.2247 -0.1342 -0.2757
17168TIP3   OH272994   3.644   3.171   6.221  0.0320  0.5002  0.9036
17168TIP3    H172995   3.715   3.221   6.262 -0.9600  2.5362  0.2294
17168TIP3    H272996   3.677   3.151   6.133 -0.1439  1.3055  0.6464
17169TIP3   OH272997   2.817   5.113  12.272 -0.1950  0.2413 -0.1056
17169TIP3    H172998   2.904   5.093  12.236 -0.5895 -0.3697 -0.7338
17169TIP3    H272999   2.769   5.031  12.266 -0.1335 -0.0319  2.3178
17170TIP3   OH273000   2.162   4.154   0.064 -0.0585  0.4846  0.0638
17170TIP3    H173001   2.091   4.100   0.029 -0.4871  1.2308 -0.2501
17170TIP3    H273002   2.130   4.244   0.057 -0.1739  0.6857  2.4176
17171TIP3   OH273003   1.465   2.754  11.866 -0.1364 -0.4585  0.1199
17171TIP3    H173004   1.536   2.720  11.921 -0.9003  0.0410  1.4675
17171TIP3    H273005   1.399   2.685  11.867 -0.6131 -0.0033  0.7519
17172TIP3   OH273006   2.160   1.346  14.775 -0.0383  0.0554  0.0179
17172TIP3    H173007   2.066   1.332  14.769 -0.6423  2.7516  1.7301
17172TIP3    H273008   2.184   1.387  14.692 -0.2189 -1.0593 -0.6150
17173TIP3   OH273009   1.362   1.093  17.035  0.8104 -0.1285 -0.1619
17173TIP3    H173010   1.296   1.046  16.983 -1.0449  0.9728  1.0757
17173TIP3    H273011   1.412   1.023  17.078 -1.1942 -1.0447  0.8297
17174TIP3   OH273012   5.850   0.873  11.853  0.8731 -0.2823  0.5186
17174TIP3    H173013   5.911   0.939  11.887 -0.3268 -0.0447  2.3843
17174TIP3    H273014   5.894   0.790  11.869  1.3298 -0.0418  0.5248
17175TIP3   OH273015   5.012   6.756  13.300  0.1467  0.5573  0.0149
17175TIP3    H173016   4.979   6.829  13.247 -0.0657  1.0094  0.7488
17175TIP3    H273017   4.955   6.683  13.279  0.6084  0.4815 -1.0327
17176TIP3   OH273018   1.738   3.112  13.306 -0.0111 -0.4578 -0.8435
17176TIP3    H173019   1.646   3.089  13.315 -0.4642  1.6339  0.5700
17176TIP3    H273020   1.737   3.201  13.269  1.4589 -0.4723 -0.9878
17177TIP3   OH273021   1.024   2.921  15.591 -0.4248 -0.3148 -0.1294
17177TIP3    H173022   0.996   2.833  15.618 -0.2339 -0.0334  1.0366
17177TIP3    H273023   1.111   2.930  15.630 -1.0337  0.9410  1.0055
17178TIP3   OH273024   5.254   6.688   1.306  0.3457  0.3077 -0.6817
17178TIP3    H173025   5.210   6.688   1.221  0.1220  2.6672 -0.6227
17178TIP3    H273026   5.274   6.780   1.323  0.8399 -0.1635  1.6007
17179TIP3   OH273027   1.958   6.629  10.557  0.6460 -0.0960  0.0845
17179TIP3    H173028   1.997   6.597  10.476 -1.2839 -0.8845 -0.5821
17179TIP3    H273029   1.983   6.722  10.560  2.6656 -0.5726 -0.1792
17180TIP3   OH273030   3.768   2.878   3.392 -0.6644 -0.1312 -0.1144
17180TIP3    H173031   3.687   2.927   3.378  0.1803  1.2158 -0.5150
17180TIP3    H273032   3.830   2.944   3.423  0.3773 -1.0565 -0.1994
17181TIP3   OH273033   3.119   2.135   3.245 -0.4932  0.2507  0.0765
17181TIP3    H173034   3.116   2.056   3.298 -2.4400 -0.4523 -0.9619
17181TIP3    H273035   3.141   2.105   3.157 -0.6865  0.9243 -0.2098
17182TIP3   OH273036   4.057   0.074   5.535  0.2594 -0.4640 -0.1872
17182TIP3    H173037   4.143   0.032   5.534  0.6346  0.2475  0.6667
17182TIP3    H273038   4.077   0.167   5.527 -0.6288 -0.4506 -4.0145
17183TIP3   OH273039   6.723   2.936  16.066  0.1197 -0.3168 -0.1869
17183TIP3    H173040   6.631   2.945  16.040  0.1542  0.5440 -0.0594
17183TIP3    H273041   6.735   2.843  16.083 -1.1715 -0.2436  1.3693
17184TIP3   OH273042   6.080   4.184   1.076  0.0297 -0.1710 -0.0362
17184TIP3    H173043   5.990   4.155   1.092 -0.9424  2.6783  0.2295
17184TIP3    H273044   6.103   4.234   1.155  1.6674 -0.3908 -0.3453
17185TIP3   OH273045   6.095   1.816  14.192 -0.2919 -0.0227 -0.2012
17185TIP3    H173046   6.121   1.756  14.262  1.0427  0.3675 -0.3450
17185TIP3    H273047   6.108   1.766  14.111 -0.2318  0.0960 -0.2641
17186TIP3   OH273048   6.761   2.136  14.088  0.0278  0.2720  0.4576
17186TIP3    H173049   6.726   2.116  14.001 -2.4982  1.4443  1.1015
17186TIP3    H273050   6.688   2.119  14.147  1.2637  0.8046  2.2088
17187TIP3   OH273051   2.324   4.865  11.288  0.7798 -0.3121 -0.5971
17187TIP3    H173052   2.239   4.861  11.244  1.0776 -1.7458 -1.0710
17187TIP3    H273053   2.387   4.874  11.216  1.2070 -1.8823 -0.4470
17188TIP3   OH273054   1.563   5.600  15.273  0.1626  0.0775 -0.4412
17188TIP3    H173055   1.474   5.566  15.283  0.9325 -1.5173  1.6271
17188TIP3    H273056   1.602   5.590  15.359  1.7327  2.7020 -0.7478
17189TIP3   OH273057   0.715   5.334   5.514 -0.5658  0.0838 -0.2901
17189TIP3    H173058   0.786   5.390   5.544 -0.0858  0.0449 -1.2981
17189TIP3    H273059   0.689   5.372   5.430 -0.9893 -0.5513 -0.4532
17190TIP3   OH273060   2.080   0.935   3.651 -0.3899 -0.5158  0.0304
17190TIP3    H173061   2.062   1.026   3.626  1.1972 -0.0568  0.4246
17190TIP3    H273062   2.159   0.912   3.601  0.4663 -0.9330  1.5049
17191TIP3   OH273063   2.106   1.389   4.787 -0.6338  0.1758 -0.9144
17191TIP3    H173064   2.045   1.358   4.854  0.6977 -1.0834 -0.2269
17191TIP3    H273065   2.051   1.406   4.711 -1.6521 -3.1029 -1.0685
17192TIP3   OH273066   3.685   6.612   0.207 -0.2567  0.1952 -0.1082
17192TIP3    H173067   3.658   6.592   0.296 -0.9770 -0.5666 -0.4852
17192TIP3    H273068   3.745   6.541   0.184 -2.4636 -1.3720 -1.2914
17193TIP3   OH273069   1.251   3.255  15.234  0.0110 -0.1710  0.4070
17193TIP3    H173070   1.156   3.265  15.246 -0.0174 -0.3961  0.3723
17193TIP3    H273071   1.283   3.344  15.224 -0.3232 -0.1461 -0.5460
17194TIP3   OH273072   1.354   1.588  15.084  0.6657  0.1338 -0.1850
17194TIP3    H173073   1.357   1.587  14.988 -1.8456  1.2727 -0.3531
17194TIP3    H273074   1.272   1.544  15.106  0.2315  1.5673  1.3228
17195TIP3   OH273075   2.474   0.325  11.509  0.4188  0.5621 -0.0821
17195TIP3    H173076   2.386   0.316  11.471  1.0560  1.1536 -1.7514
17195TIP3    H273077   2.509   0.405  11.471  1.1368  1.1523  1.7320
17196TIP3   OH273078   1.390   5.218  15.451  0.2168  0.0731  0.2139
17196TIP3    H173079   1.410   5.125  15.448  1.5439  0.2937 -3.9671
17196TIP3    H273080   1.474   5.262  15.437 -0.7479  1.7538 -0.7194
17197TIP3   OH273081   0.432   3.578   5.370 -0.6750 -0.0002  0.5248
17197TIP3    H173082   0.509   3.522   5.372 -0.8516 -0.2806  3.3482
17197TIP3    H273083   0.458   3.656   5.419 -1.9936  0.1566  1.0048
17198TIP3   OH273084   0.221   5.248  11.129 -0.3090  0.5021  0.0755
17198TIP3    H173085   0.190   5.335  11.156 -0.1591  0.7766 -0.6311
17198TIP3    H273086   0.167   5.187  11.180 -0.4892  1.0078  0.4954
17199TIP3   OH273087   1.559   5.428   4.064  0.3051 -0.0655  0.5628
17199TIP3    H173088   1.588   5.519   4.074  0.5068 -0.3926  4.0351
17199TIP3    H273089   1.475   5.435   4.018  0.5916  1.7992  0.2398
17200TIP3   OH273090   4.985   0.049   5.427  0.6812 -0.3420 -0.2273
17200TIP3    H173091   4.991   0.110   5.353  0.0478  0.7682  0.6064
17200TIP3    H273092   5.047  -0.021   5.406  2.0747  1.0199 -0.7936
17201TIP3   OH273093   2.918   5.426  15.580  0.0461 -0.4406 -0.0960
17201TIP3    H173094   2.864   5.430  15.659 -2.1589 -1.5154 -1.4336
17201TIP3    H273095   3.003   5.458  15.608 -0.3667 -1.5888  2.9244
17202TIP3   OH273096   2.644   3.888  14.532  0.4599  0.4627  0.3596
17202TIP3    H173097   2.611   3.918  14.447 -1.6970  0.4612  1.1511
17202TIP3    H273098   2.720   3.834  14.510 -0.9825 -0.8695 -1.7117
17203TIP3   OH273099   3.765   5.040  13.763  0.0774  0.0249 -0.0044
17203TIP3    H173100   3.743   4.994  13.844  3.0369 -0.2164  0.7640
17203TIP3    H273101   3.717   4.993  13.695 -1.0576 -0.8904  1.3629
17204TIP3   OH273102   4.416   3.745   0.674 -0.0484  0.0755 -0.3314
17204TIP3    H173103   4.441   3.779   0.760  1.4619  0.0464 -0.7328
17204TIP3    H273104   4.418   3.650   0.684 -2.8431  0.0046  0.3871
17205TIP3   OH273105   6.010   2.877  12.406 -0.3811  0.0803  0.4030
17205TIP3    H173106   5.934   2.932  12.389  0.4373  1.7373  1.8644
17205TIP3    H273107   6.086   2.935  12.396  0.4838 -0.5309  2.6770
17206TIP3   OH273108   6.159   0.396  14.081 -0.2853  0.1527  0.2115
17206TIP3    H173109   6.220   0.331  14.045 -0.3915  0.7326 -1.0711
17206TIP3    H273110   6.201   0.426  14.162  1.1799  0.5469 -0.6469
17207TIP3   OH273111   2.321   5.605  13.573 -0.8766 -0.2185  0.5820
17207TIP3    H173112   2.336   5.657  13.652 -0.3098  0.7797 -0.1543
17207TIP3    H273113   2.398   5.549  13.567 -0.3605  0.5075  0.1560
17208TIP3   OH273114   5.653   3.673  11.488  0.1388 -0.1643 -0.1012
17208TIP3    H173115   5.572   3.654  11.536 -0.0760  1.2726  0.1637
17208TIP3    H273116   5.630   3.748  11.432  0.3058 -1.9078 -2.7083
17209TIP3   OH273117   4.672   5.236  14.536  0.0306 -0.2006  0.1092
17209TIP3    H173118   4.649   5.147  14.509 -1.8570 -0.1078  1.2055
17209TIP3    H273119   4.758   5.228  14.575  0.7034 -1.1862 -1.4694
17210TIP3   OH273120   0.262   6.673   2.918  0.0886 -0.1517 -0.6084
17210TIP3    H173121   0.235   6.582   2.907  0.5841 -0.2778 -0.8374
17210TIP3    H273122   0.287   6.701   2.829  2.5830 -0.6625 -0.1376
17211TIP3   OH273123   3.310   4.448   2.731  0.0282  0.4199  0.0034
17211TIP3    H173124   3.301   4.432   2.825  1.3254  0.6319  0.1877
17211TIP3    H273125   3.320   4.543   2.724 -0.3785  0.4355 -0.3807
17212TIP3   OH273126   5.256   1.946   4.536 -0.1029  0.0061 -0.1255
17212TIP3    H173127   5.290   1.976   4.620  1.5755 -0.1433 -0.7020
17212TIP3    H273128   5.177   1.998   4.521  0.1791  0.7963  1.0339
17213TIP3   OH273129   4.261   3.840   5.266  0.2297 -0.2908 -0.2603
17213TIP3    H173130   4.335   3.792   5.306  0.1922  0.1935  0.4099
17213TIP3    H273131   4.214   3.877   5.341  0.6392  1.3603 -0.7968
17214TIP3   OH273132   0.558   4.201   1.420  0.4732  0.4947  0.0921
17214TIP3    H173133   0.485   4.164   1.369 -0.3157  0.1252  1.4427
17214TIP3    H273134   0.629   4.138   1.408  0.0485  0.0052  0.0816
17215TIP3   OH273135   0.696   0.048   3.291 -0.2429 -0.6060  0.0121
17215TIP3    H173136   0.696   0.031   3.386  2.1899 -0.4851  0.1022
17215TIP3    H273137   0.624   0.110   3.278  0.1661  0.3891  2.0010
17216TIP3   OH273138   4.458   0.356  13.658 -0.2035  0.1700 -0.4115
17216TIP3    H173139   4.502   0.276  13.687 -0.5015  0.3547  0.5531
17216TIP3    H273140   4.373   0.354  13.700 -0.7090  0.3736 -1.3942
17217TIP3   OH273141   4.132   1.899  14.569  0.1960  0.6449  0.1559
17217TIP3    H173142   4.046   1.857  14.575  1.1930 -1.4554  0.6516
17217TIP3    H273143   4.194   1.827  14.571  1.9885  2.0958 -0.4481
17218TIP3   OH273144   5.569   4.526  16.744  0.4872 -0.6913 -0.3673
17218TIP3    H173145   5.556   4.451  16.802  0.4886 -0.3827  0.0388
17218TIP3    H273146   5.603   4.595  16.801 -2.8299  0.7815  0.0808
17219TIP3   OH273147   5.202   5.162   3.545 -0.1368 -0.3829 -0.2965
17219TIP3    H173148   5.116   5.131   3.518  0.2583 -0.0640 -2.0353
17219TIP3    H273149   5.205   5.253   3.516 -0.0402  0.3377  1.7955
17220TIP3   OH273150   0.113   2.614   0.340 -0.2740 -0.0543  0.4174
17220TIP3    H173151   0.102   2.666   0.419 -0.7666  3.1641 -1.6005
17220TIP3    H273152   0.023   2.597   0.310 -0.0783  0.0260 -0.2266
17221TIP3   OH273153   2.169   0.555  14.469  0.3165 -0.2490  0.0827
17221TIP3    H173154   2.118   0.474  14.477  0.6347 -0.2687  3.4647
17221TIP3    H273155   2.105   0.621  14.441 -1.1160 -0.7565  1.9663
17222TIP3   OH273156   3.064   3.288   0.978 -0.6244  0.1253 -0.2954
17222TIP3    H173157   3.121   3.238   0.920  0.7886  1.7489 -0.4014
17222TIP3    H273158   2.975   3.268   0.948 -0.0249 -0.8833 -1.4857
17223TIP3   OH273159   5.545   0.249  11.175 -0.8035 -0.3635  0.3289
17223TIP3    H173160   5.630   0.230  11.214 -1.3148 -1.2682  1.0361
17223TIP3    H273161   5.565   0.289  11.091  0.3712 -3.5940 -1.0743
17224TIP3   OH273162   1.549   0.622  11.426  0.2375  0.0857 -0.2818
17224TIP3    H173163   1.562   0.621  11.331 -0.2232  0.1247 -0.3454
17224TIP3    H273164   1.494   0.545  11.443 -0.8018  0.8272 -0.2119
17225TIP3   OH273165   4.364   5.810  14.557 -0.2093  0.0119  0.0352
17225TIP3    H173166   4.332   5.809  14.467  0.2047 -1.7472 -0.1300
17225TIP3    H273167   4.289   5.784  14.610  0.7263 -4.3116 -0.3703
17226TIP3   OH273168   2.854   6.335  15.048  0.4407  0.1114  0.2527
17226TIP3    H173169   2.900   6.389  14.984 -1.0471 -0.0217 -0.9755
17226TIP3    H273170   2.829   6.396  15.117  0.3587  0.6443 -0.2381
17227TIP3   OH273171   3.358   1.011  16.993  0.5742  0.2176 -0.2253
17227TIP3    H173172   3.432   0.949  16.988 -0.3454 -0.8407 -1.5365
17227TIP3    H273173   3.346   1.040  16.903 -1.1576 -0.3196 -0.1989
17228TIP3   OH273174   4.026   1.758   0.455  0.4245  0.0108 -0.5829
17228TIP3    H173175   4.028   1.814   0.533  0.5025 -0.3725 -0.2997
17228TIP3    H273176   4.109   1.776   0.411  1.0095 -0.7627  0.1572
17229TIP3   OH273177   1.978   2.536  16.211 -0.2255 -0.2982 -0.1360
17229TIP3    H173178   1.976   2.470  16.280 -1.3199  0.0675  0.2058
17229TIP3    H273179   1.958   2.618  16.256  0.6423  0.2018 -0.6316
17230TIP3   OH273180   5.638   6.752   4.345  0.4838 -0.0862 -1.0215
17230TIP3    H173181   5.632   6.657   4.336  0.3016 -0.2298  0.3748
17230TIP3    H273182   5.559   6.785   4.302 -0.3331 -0.7033 -0.0680
17231TIP3   OH273183   2.118   5.595  11.501  0.0702  0.1340 -0.3029
17231TIP3    H173184   2.057   5.604  11.429  1.1553 -0.4014 -1.3235
17231TIP3    H273185   2.090   5.516  11.548  0.1464 -0.2718 -0.9334
17232TIP3   OH273186   6.443   4.675  13.817  0.2787  0.2530 -0.3123
17232TIP3    H173187   6.513   4.702  13.876  0.1048  0.6364 -0.2773
17232TIP3    H273188   6.391   4.613  13.868  1.0969 -0.7257 -0.6344
17233TIP3   OH273189   2.649   6.405  15.776  0.7797 -0.8043 -0.5204
17233TIP3    H173190   2.626   6.496  15.760  0.7519  0.1134  3.5491
17233TIP3    H273191   2.735   6.394  15.736  0.6988  0.9493 -1.2590
17234TIP3   OH273192   2.678   5.190   3.409  0.2454  0.7105 -0.4769
17234TIP3    H173193   2.645   5.105   3.436  0.3013  0.8670  0.0922
17234TIP3    H273194   2.759   5.170   3.362 -0.9164  0.2817 -2.4133
17235TIP3   OH273195   2.735   4.520   2.054 -0.3572 -0.7312 -0.1653
17235TIP3    H173196   2.827   4.524   2.080  0.4045  2.2636 -2.6595
17235TIP3    H273197   2.734   4.457   1.981 -0.1235 -0.2908 -0.5558
17236TIP3   OH273198   1.303   3.824  14.109  0.4456 -0.4134 -0.1790
17236TIP3    H173199   1.255   3.767  14.050  0.3499 -0.3861 -0.1275
17236TIP3    H273200   1.311   3.906  14.061  1.4715 -0.7873 -0.6689
17237TIP3   OH273201   1.272   0.881   3.218  0.3521 -0.0595 -0.0415
17237TIP3    H173202   1.336   0.942   3.256 -2.1322  1.3216  2.3176
17237TIP3    H273203   1.315   0.796   3.219  2.5101  0.9762  0.4010
17238TIP3   OH273204   0.803   3.932  13.930 -0.0859  0.3148  0.1963
17238TIP3    H173205   0.727   3.990  13.931 -0.2436  0.2596 -2.2234
17238TIP3    H273206   0.766   3.844  13.931  0.0108  0.2756  0.4346
17239TIP3   OH273207   0.843   1.472   1.352 -0.4921  0.4126 -0.0995
17239TIP3    H173208   0.809   1.543   1.298 -0.7269  1.1079  0.9292
17239TIP3    H273209   0.802   1.485   1.437 -0.6637 -1.0665  0.0673
17240TIP3   OH273210   3.409   3.761  13.018  0.2929  0.2337  0.2718
17240TIP3    H173211   3.405   3.690  12.954 -1.2072 -1.2820  1.9529
17240TIP3    H273212   3.324   3.760  13.061  1.3962  0.8464  2.6477
17241TIP3   OH273213   5.562   2.468  12.941 -0.3169 -0.6621 -0.0360
17241TIP3    H173214   5.551   2.562  12.929 -0.1392 -0.5000  1.0177
17241TIP3    H273215   5.512   2.429  12.869  0.5688  0.2406 -1.1926
17242TIP3   OH273216   6.855   1.348   4.732  0.1166 -0.2337 -1.0707
17242TIP3    H173217   6.856   1.441   4.755 -2.2112  0.1078 -2.0893
17242TIP3    H273218   6.930   1.337   4.673  0.4697  0.9689 -0.8785
17243TIP3   OH273219   4.124   6.478  11.188  0.1717  0.1404 -0.6349
17243TIP3    H173220   4.143   6.569  11.166  0.3628  0.5803  1.1884
17243TIP3    H273221   4.176   6.427  11.126  2.6822  1.3023  0.3952
17244TIP3   OH273222   2.405   3.713   0.772 -0.3702  0.4195  0.9314
17244TIP3    H173223   2.487   3.694   0.726  0.2240  1.7204  1.4137
17244TIP3    H273224   2.363   3.627   0.781  0.6290 -0.1864  0.1090
17245TIP3   OH273225   5.825   6.481  14.461 -0.1499 -0.3248 -0.0245
17245TIP3    H173226   5.803   6.574  14.449 -1.2005 -0.6472 -0.7438
17245TIP3    H273227   5.882   6.460  14.387  1.6614  0.1944  1.1628
17246TIP3   OH273228   0.200   4.409  14.190  0.4566 -0.2243  0.4401
17246TIP3    H173229   0.167   4.351  14.259  3.4922 -1.0218  1.4151
17246TIP3    H273230   0.215   4.351  14.116  1.5239 -0.3238  0.7140
17247TIP3   OH273231   1.340   3.081  12.588  0.2642  0.2892 -0.2621
17247TIP3    H173232   1.342   3.013  12.656 -0.1914 -0.1287 -0.6572
17247TIP3    H273233   1.261   3.131  12.607 -0.1871 -0.1987 -0.8329
17248TIP3   OH273234   1.698   4.706   1.969  0.1298 -0.4848  0.2267
17248TIP3    H173235   1.699   4.628   2.024 -2.0828 -2.7769 -2.6243
17248TIP3    H273236   1.610   4.741   1.978  0.1996 -0.0289 -0.7218
17249TIP3   OH273237   4.711   2.856  15.622 -0.0480 -0.2554  0.1549
17249TIP3    H173238   4.727   2.769  15.658 -1.9319 -1.1468 -1.0457
17249TIP3    H273239   4.721   2.846  15.528  0.6297  1.0707  0.0614
17250TIP3   OH273240   3.346   2.377   1.538  0.3232 -0.2672 -0.2546
17250TIP3    H173241   3.272   2.429   1.507 -0.1276 -0.5540  0.3182
17250TIP3    H273242   3.418   2.402   1.481 -0.7729 -1.7572 -2.4354
17251TIP3   OH273243   1.554   6.332   4.705  0.2808  0.7021  0.3527
17251TIP3    H173244   1.581   6.250   4.662  2.1409  1.5229 -0.1404
17251TIP3    H273245   1.533   6.306   4.794 -2.5016 -0.8482 -0.6552
17252TIP3   OH273246   5.587   5.609   0.725 -0.0856  0.1476  0.3288
17252TIP3    H173247   5.530   5.654   0.787 -0.0766  0.2029  0.2969
17252TIP3    H273248   5.649   5.561   0.781 -0.4055 -0.2256  0.3640
17253TIP3   OH273249   3.439   4.040  12.131 -0.0731  0.2509  0.2722
17253TIP3    H173250   3.405   3.952  12.115  2.1125 -0.4386 -0.8633
17253TIP3    H273251   3.418   4.057  12.223 -1.5959 -0.9308  0.1935
17254TIP3   OH273252   3.307   2.197   2.213  0.0020 -1.0202 -0.2790
17254TIP3    H173253   3.256   2.278   2.203  1.3591 -0.1237 -0.2459
17254TIP3    H273254   3.244   2.127   2.200 -0.8555  0.0464 -2.3387
17255TIP3   OH273255   3.812   0.668   0.410 -0.1950 -0.7890  0.0572
17255TIP3    H173256   3.725   0.641   0.439 -0.8541 -1.5246 -2.3117
17255TIP3    H273257   3.805   0.762   0.394 -0.5396 -0.8305 -0.0333
17256TIP3   OH273258   2.434   4.581  15.683  0.0384  0.1485 -0.0836
17256TIP3    H173259   2.382   4.611  15.608  0.8472  0.9403 -0.3485
17256TIP3    H273260   2.380   4.514  15.725 -0.1426 -0.8325 -1.7914
17257TIP3   OH273261   0.908   4.947   1.347  0.1608 -0.6632  0.2611
17257TIP3    H173262   0.819   4.981   1.355  0.9606  1.0231  4.7706
17257TIP3    H273263   0.933   4.967   1.257 -2.8527  1.9270 -0.1812
17258TIP3   OH273264   3.078   2.512   1.939  0.0906 -0.1681 -0.7964
17258TIP3    H173265   2.984   2.523   1.920  0.1026  0.0576 -0.7328
17258TIP3    H273266   3.105   2.597   1.975 -0.3702 -1.0996  2.0187
17259TIP3   OH273267   3.446   5.691  15.542  0.2674  0.0672  0.5392
17259TIP3    H173268   3.418   5.684  15.633 -0.3366  0.6168  0.4075
17259TIP3    H273269   3.417   5.778  15.515 -2.6046 -1.2688 -1.1484
17260TIP3   OH273270   1.228   1.671  11.283 -0.3981 -0.2055  0.0862
17260TIP3    H173271   1.265   1.715  11.207  0.0809 -0.3429  0.2396
17260TIP3    H273272   1.171   1.738  11.323  2.2039  1.1990  1.7369
17261TIP3   OH273273   3.785   2.202   1.406 -0.4993  0.2437 -0.3433
17261TIP3    H173274   3.706   2.213   1.353 -0.6339  0.8115 -0.0314
17261TIP3    H273275   3.755   2.215   1.496 -0.3457 -1.0873 -0.0842
17262TIP3   OH273276   5.133   2.843   6.458  0.3779  0.4632  0.5357
17262TIP3    H173277   5.043   2.869   6.438  0.6245  3.0029  2.2663
17262TIP3    H273278   5.170   2.918   6.505  3.5038 -0.3945 -0.3205
17263TIP3   OH273279   6.761   6.478   3.836 -0.1328  0.2428 -0.7082
17263TIP3    H173280   6.776   6.452   3.927 -2.9273  0.7424 -0.0078
17263TIP3    H273281   6.731   6.569   3.841 -0.8711  0.1093 -2.0573
17264TIP3   OH273282   2.122   4.213  13.038 -0.5887 -0.3141  0.4294
17264TIP3    H173283   2.206   4.248  13.068 -1.9006  1.0601  2.7995
17264TIP3    H273284   2.145   4.132  12.993  2.0601  0.4741  0.1638
17265TIP3   OH273285   1.130   2.340   5.179  0.5079  0.0566 -0.2499
17265TIP3    H173286   1.189   2.268   5.158  1.0400  0.9589 -2.1167
17265TIP3    H273287   1.068   2.342   5.106  0.0835  1.0489  0.1199
17266TIP3   OH273288   1.836   6.342   4.517 -0.1582  0.2955  0.1363
17266TIP3    H173289   1.852   6.250   4.498 -0.9088  0.1328  0.2546
17266TIP3    H273290   1.811   6.344   4.609 -0.6944  0.5427 -0.0091
17267TIP3   OH273291   1.646   3.543   3.835 -0.4877  0.2750 -0.2035
17267TIP3    H173292   1.714   3.489   3.875  0.8763  0.8322 -1.6600
17267TIP3    H273293   1.623   3.607   3.903 -0.2797 -0.5104  0.6355
17268TIP3   OH273294   0.684   4.882   2.481  0.0348 -0.1568 -0.1463
17268TIP3    H173295   0.597   4.863   2.515 -0.5252  1.0388 -0.8354
17268TIP3    H273296   0.677   4.864   2.387  0.8312 -1.0065 -0.0571
17269TIP3   OH273297   6.414   6.630   2.194  0.5113 -0.1141 -0.2838
17269TIP3    H173298   6.319   6.634   2.189  0.5816  0.0203 -2.5092
17269TIP3    H273299   6.438   6.553   2.144  1.6243  0.7439 -1.1372
17270TIP3   OH273300   1.333   3.763  13.349 -0.0153  0.1262 -0.0877
17270TIP3    H173301   1.340   3.858  13.351 -1.8633  0.4566 -3.2312
17270TIP3    H273302   1.240   3.745  13.362  0.3231 -1.2785  0.5831
17271TIP3   OH273303   0.881   6.452   0.223  0.8862 -0.3308 -0.4707
17271TIP3    H173304   0.793   6.459   0.188  0.9331 -2.0393 -1.0087
17271TIP3    H273305   0.892   6.532   0.275 -0.5114  0.4911 -1.3696
17272TIP3   OH273306   6.542   6.199   3.489  0.0925  0.0105  0.0091
17272TIP3    H173307   6.616   6.242   3.532 -0.7085  1.6911 -0.2043
17272TIP3    H273308   6.574   6.178   3.402 -0.0753  2.0778 -0.5999
17273TIP3   OH273309   1.499   0.693   4.854  0.1388  0.0977  0.2652
17273TIP3    H173310   1.432   0.661   4.915  0.9024  0.8436  1.5314
17273TIP3    H273311   1.458   0.683   4.768 -2.4212  2.3147  1.0726
17274TIP3   OH273312   0.448   1.036  15.673 -0.5943  0.2068  0.1870
17274TIP3    H173313   0.354   1.017  15.675 -0.3024 -1.3663  0.8058
17274TIP3    H273314   0.483   0.976  15.608  0.1776 -0.3420  1.0767
17275TIP3   OH273315   2.905   0.798   4.868 -0.7519 -0.3625 -0.1139
17275TIP3    H173316   2.822   0.796   4.820 -1.2567 -0.0104  0.7374
17275TIP3    H273317   2.880   0.799   4.960  0.2100 -0.7142  0.1580
17276TIP3   OH273318   4.967   3.134  12.557 -0.0374 -0.6337 -0.0268
17276TIP3    H173319   5.028   3.148  12.485 -1.1291 -2.0530 -1.2977
17276TIP3    H273320   4.881   3.132  12.515 -0.7605 -0.9000  1.4058
17277TIP3   OH273321   4.142   4.608   1.400  0.0115  0.1902 -0.1713
17277TIP3    H173322   4.128   4.550   1.475 -1.9389 -1.2556 -1.5340
17277TIP3    H273323   4.237   4.604   1.384  0.6343  1.2226  2.6322
17278TIP3   OH273324   1.273   2.662   5.541 -0.3217  0.1750 -0.0606
17278TIP3    H173325   1.304   2.711   5.617  0.0503  0.9941 -0.7269
17278TIP3    H273326   1.189   2.702   5.519 -0.3835 -0.0004 -0.1505
17279TIP3   OH273327   0.081   5.866  10.525  0.7431 -0.1715  0.0743
17279TIP3    H173328   0.040   5.844  10.609 -0.2661  0.4834 -0.2326
17279TIP3    H273329   0.144   5.795  10.510  0.4746 -0.6351  1.0713
17280TIP3   OH273330   6.172   4.730   5.200 -0.2888 -0.4001 -0.2606
17280TIP3    H173331   6.104   4.706   5.264 -0.6309 -0.6126 -0.6962
17280TIP3    H273332   6.131   4.799   5.148  0.0395 -0.1329 -0.1659
17281TIP3   OH273333   5.499   4.955  15.116  0.0083 -0.4291  0.0497
17281TIP3    H173334   5.576   4.989  15.070 -0.0414  2.6993  1.9517
17281TIP3    H273335   5.531   4.878  15.163  1.1243 -1.0764 -1.6736
17282TIP3   OH273336   6.779   0.431  13.915  0.0910 -0.3061  0.5164
17282TIP3    H173337   6.756   0.425  13.822  0.3130  0.5968  0.3937
17282TIP3    H273338   6.750   0.519  13.941 -0.4553 -0.7440  1.4455
17283TIP3   OH273339   0.859   5.389   1.008 -0.2927 -0.7027 -0.1792
17283TIP3    H173340   0.770   5.415   1.034  0.4449  0.7534  1.0968
17283TIP3    H273341   0.897   5.350   1.087  0.3416 -0.9224 -0.5855
17284TIP3   OH273342   5.653   6.295  14.052  0.3506 -0.2157 -0.2788
17284TIP3    H173343   5.641   6.312  13.959 -0.1174 -1.4263 -0.4651
17284TIP3    H273344   5.661   6.381  14.092  0.2354  0.3272 -1.3990
17285TIP3   OH273345   0.310   4.705   4.799 -0.3945 -0.0537  0.3171
17285TIP3    H173346   0.375   4.751   4.852 -0.4911 -0.0158  0.4044
17285TIP3    H273347   0.358   4.672   4.724 -0.3411  0.2702  0.2086
17286TIP3   OH273348   1.714   3.843  15.290  0.6907 -0.1024  0.2150
17286TIP3    H173349   1.743   3.766  15.240  0.3472 -0.7440  0.9879
17286TIP3    H273350   1.621   3.850  15.272  0.4534 -0.6497  1.1481
17287TIP3   OH273351   5.168   0.293  12.077  0.2383 -0.0559 -0.4453
17287TIP3    H173352   5.195   0.202  12.061  0.7071 -0.0033  0.0386
17287TIP3    H273353   5.246   0.345  12.057  0.0382  0.2239 -0.4992
17288TIP3   OH273354   0.573   4.616  12.479  0.0023  0.2219 -0.0377
17288TIP3    H173355   0.669   4.619  12.472  0.1085  0.2639  1.2534
17288TIP3    H273356   0.542   4.670  12.406  1.0245  2.0714  0.8272
17289TIP3   OH273357   5.019   5.553  11.844 -0.0079  0.0983  0.2586
17289TIP3    H173358   4.994   5.478  11.898 -1.0299 -0.0197 -0.3513
17289TIP3    H273359   5.109   5.572  11.869 -0.5358  0.2447  2.2415
17290TIP3   OH273360   2.074   6.047  13.864  0.3023  0.0654  0.7731
17290TIP3    H173361   2.140   6.111  13.840 -1.4162  1.9597  0.8397
17290TIP3    H273362   2.054   6.065  13.956  0.9520 -1.6841  1.2882
17291TIP3   OH273363   5.396   3.225  12.092 -0.3087  0.4317 -0.1900
17291TIP3    H173364   5.407   3.218  12.186  0.4357  1.2635 -0.2059
17291TIP3    H273365   5.418   3.138  12.059 -0.5541  0.1411  0.4000
17292TIP3   OH273366   2.127   1.564   1.989  0.6378 -0.1187  0.2495
17292TIP3    H173367   2.040   1.544   2.025 -0.2710 -0.4346 -1.9033
17292TIP3    H273368   2.108   1.616   1.910  2.4734  0.5575  0.2174
17293TIP3   OH273369   0.087   1.502  15.656  0.1810  0.6358 -1.1559
17293TIP3    H173370  -0.001   1.479  15.627 -0.3825  0.3981  0.6040
17293TIP3    H273371   0.090   1.597  15.650  0.1205  0.5895 -2.0354
17294TIP3   OH273372   0.793   3.552  11.530 -0.2645  0.1296  0.2845
17294TIP3    H173373   0.809   3.500  11.451  0.7724 -0.2670  0.7395
17294TIP3    H273374   0.808   3.643  11.503 -1.0893  0.1087 -0.2618
17295TIP3   OH273375   4.142   6.446  12.963 -0.1760 -0.5106  0.2854
17295TIP3    H173376   4.221   6.483  12.924 -0.9299 -0.9219 -1.7122
17295TIP3    H273377   4.072   6.506  12.937 -0.5177  0.1529  2.4881
17296TIP3   OH273378   4.673   1.784   3.610 -0.0837  0.0003 -0.1487
17296TIP3    H173379   4.753   1.810   3.564 -1.3727 -0.8241 -3.0619
17296TIP3    H273380   4.610   1.853   3.588 -0.8541 -0.6360  0.0505
17297TIP3   OH273381   2.217   3.302  15.671  0.9605 -0.1865 -0.3164
17297TIP3    H173382   2.281   3.247  15.627  0.9155 -1.5468  1.2393
17297TIP3    H273383   2.192   3.253  15.749 -0.6392  1.1217  0.0555
17298TIP3   OH273384   4.251   5.761   4.971  0.0093 -0.2094  0.2001
17298TIP3    H173385   4.167   5.715   4.975  0.1641 -0.4925  0.2249
17298TIP3    H273386   4.263   5.780   4.879  0.2901 -0.8669  0.0966
17299TIP3   OH273387   2.033   3.133   3.072  1.0565 -0.3501 -0.1128
17299TIP3    H173388   1.948   3.130   3.028  0.6742 -1.6493  0.6458
17299TIP3    H273389   2.084   3.064   3.029  1.1345 -0.7183  0.5546
17300TIP3   OH273390   2.053   6.006  10.276  0.0248 -0.6754 -0.0285
17300TIP3    H173391   2.006   6.027  10.356  1.7299 -0.3581  0.9368
17300TIP3    H273392   1.994   6.034  10.206 -0.8733  0.4737  1.1235
17301TIP3   OH273393   6.178   4.772   1.658 -0.4818  0.0258  0.3983
17301TIP3    H173394   6.247   4.797   1.596 -0.3818  1.2415  0.9787
17301TIP3    H273395   6.101   4.821   1.629  0.4743  3.7308  3.3701
17302TIP3   OH273396   0.466   0.061  10.402  0.3648  0.0800 -0.2312
17302TIP3    H173397   0.542   0.020  10.445 -1.9673 -1.1642  3.1311
17302TIP3    H273398   0.481   0.155  10.410  1.5830 -0.1455  0.2874
17303TIP3   OH273399   5.514   6.076  15.354 -0.0038  0.1827  0.1676
17303TIP3    H173400   5.605   6.049  15.365 -0.1456 -0.1132  0.6319
17303TIP3    H273401   5.516   6.171  15.364 -0.0288  0.0146  2.2891
17304TIP3   OH273402   6.224   1.997  11.419 -0.2201  0.0765 -0.5299
17304TIP3    H173403   6.315   1.968  11.406  0.6043  2.5568 -0.9129
17304TIP3    H273404   6.190   2.007  11.330 -1.1988 -1.6200 -0.3864
17305TIP3   OH273405   4.314   1.811  10.469  0.5357  0.2991 -0.2234
17305TIP3    H173406   4.382   1.830  10.405 -0.1346  0.9264 -0.7787
17305TIP3    H273407   4.332   1.872  10.541 -0.0697  1.2589 -0.8567
17306TIP3   OH273408   5.806   1.094   5.052 -0.4187  0.2670 -0.0166
17306TIP3    H173409   5.794   1.024   5.117 -0.6472  0.4163  0.1040
17306TIP3    H273410   5.887   1.137   5.078  0.7838 -1.1556 -1.2111
17307TIP3   OH273411   1.194   6.571  14.733  0.4726 -0.1520 -0.0353
17307TIP3    H173412   1.143   6.647  14.703  0.5744  0.1732  0.5752
17307TIP3    H273413   1.219   6.594  14.823  0.3309 -1.0049  0.2272
17308TIP3   OH273414   4.633   2.242  11.519 -0.6564 -0.2196  0.0008
17308TIP3    H173415   4.541   2.267  11.514 -1.1746 -2.2266 -1.7494
17308TIP3    H273416   4.672   2.308  11.577 -3.1652  0.6511  0.8496
17309TIP3   OH273417   5.367   4.800  13.658 -0.4352 -0.2287 -0.2936
17309TIP3    H173418   5.342   4.889  13.634 -0.1747  0.2105  0.9626
17309TIP3    H273419   5.444   4.812  13.714 -1.0257 -1.1672  0.7520
17310TIP3   OH273420   2.613   3.111  14.804 -0.0841  0.3051  0.5039
17310TIP3    H173421   2.531   3.065  14.821 -0.3905  0.5310 -0.3069
17310TIP3    H273422   2.602   3.147  14.716  0.4651  1.2473  0.8129
17311TIP3   OH273423   4.055   1.702  13.675 -0.1655 -0.2890  0.7634
17311TIP3    H173424   4.112   1.658  13.612  0.1181 -3.1396  2.7783
17311TIP3    H273425   4.103   1.697  13.758 -0.9174  2.4830  1.4624
17312TIP3   OH273426   2.009   1.039   2.134 -0.2255  0.3207  0.1524
17312TIP3    H173427   2.064   1.113   2.109  1.7205 -0.6842  1.2314
17312TIP3    H273428   1.974   1.063   2.220  1.6284 -0.5681  1.2091
17313TIP3   OH273429   2.671   1.428   4.471  0.1846  0.1727  0.0818
17313TIP3    H173430   2.607   1.371   4.514 -0.3710 -0.1209 -1.0960
17313TIP3    H273431   2.629   1.514   4.469 -0.2051 -0.0326 -0.7419
17314TIP3   OH273432   4.485   3.290   3.619 -0.0067  0.3894 -0.0130
17314TIP3    H173433   4.398   3.271   3.584 -0.2197  2.2583 -0.5828
17314TIP3    H273434   4.535   3.210   3.602 -1.6815 -0.8732  0.6930
17315TIP3   OH273435   4.097   0.868   0.798  0.1457 -0.4409 -0.3129
17315TIP3    H173436   4.140   0.951   0.777 -0.3950  0.3665  1.6502
17315TIP3    H273437   4.163   0.819   0.847  1.1127 -1.9996 -2.9198
17316TIP3   OH273438   0.356   3.110  12.932 -0.2688 -0.3751  0.1911
17316TIP3    H173439   0.324   3.199  12.940 -0.2500 -0.2522 -0.8997
17316TIP3    H273440   0.318   3.078  12.850  1.8691 -0.4190 -0.8566
17317TIP3   OH273441   4.721   6.102   2.121 -0.6552 -0.3809  0.2849
17317TIP3    H173442   4.652   6.160   2.089 -0.7338 -1.2181 -1.1345
17317TIP3    H273443   4.764   6.153   2.190 -1.6193  0.8001  0.0578
17318TIP3   OH273444   1.953   6.507  14.126 -0.3821 -0.5150  0.4333
17318TIP3    H173445   1.877   6.461  14.091  0.1349 -1.8032  0.9300
17318TIP3    H273446   2.001   6.538  14.050 -0.6860 -0.8958  0.0878
17319TIP3   OH273447   5.275   5.566  12.994 -0.2231 -0.2130 -0.1297
17319TIP3    H173448   5.350   5.625  13.001 -0.3917  0.0267 -0.3078
17319TIP3    H273449   5.215   5.611  12.935 -1.0158  0.1302  0.9185
17320TIP3   OH273450   2.567   5.225   5.846 -0.2131  0.3136 -0.5417
17320TIP3    H173451   2.630   5.285   5.886  1.2747 -0.9407 -0.8700
17320TIP3    H273452   2.545   5.266   5.762 -0.1723  0.9739 -0.2372
17321TIP3   OH273453   6.552   6.555  16.006 -0.5178  0.3450  0.1855
17321TIP3    H173454   6.469   6.543  15.958 -0.5790 -1.3186  0.6343
17321TIP3    H273455   6.525   6.573  16.096 -0.3935  2.8893 -0.2235
17322TIP3   OH273456   4.451   3.428  14.593  0.2059  0.2058 -0.1180
17322TIP3    H173457   4.374   3.399  14.545  0.2086 -0.7328  0.4204
17322TIP3    H273458   4.438   3.522  14.604 -0.4599  0.1984 -0.7410
17323TIP3   OH273459   2.721   0.592  10.960 -0.5301 -0.3347  0.4304
17323TIP3    H173460   2.769   0.658  10.911 -1.4260  0.4324  0.5528
17323TIP3    H273461   2.679   0.641  11.031 -0.1311 -1.2490  1.3110
17324TIP3   OH273462   4.056   0.362  11.125 -0.0278  0.3962 -0.1835
17324TIP3    H173463   3.991   0.352  11.056  0.2977 -0.1466 -0.4154
17324TIP3    H273464   4.049   0.280  11.176  1.5277 -0.3543 -1.1185
17325TIP3   OH273465   5.828   5.706  11.453 -0.5361  0.0379  0.2276
17325TIP3    H173466   5.834   5.634  11.516  0.3020  0.5233  0.7159
17325TIP3    H273467   5.901   5.691  11.393  0.0633  0.8619  0.7418
17326TIP3   OH273468   5.485   0.053   2.244 -0.1309 -0.4399  0.3363
17326TIP3    H173469   5.449  -0.014   2.302 -0.0722  0.5036  1.5229
17326TIP3    H273470   5.424   0.057   2.170 -1.9871  0.4374  1.8145
17327TIP3   OH273471   6.795   2.694   1.897 -0.0391  0.5820 -0.1194
17327TIP3    H173472   6.815   2.770   1.843  0.5311  0.6610  0.2019
17327TIP3    H273473   6.727   2.647   1.848 -1.5183  2.0860  0.4084
17328TIP3   OH273474   1.026   4.063   6.218 -0.0600 -0.3608  0.3118
17328TIP3    H173475   0.940   4.102   6.199  0.5704  1.3472  0.7406
17328TIP3    H273476   1.088   4.132   6.195  1.1315 -1.0822  1.2647
17329TIP3   OH273477   6.351   0.359   3.991 -0.2739 -0.4971 -0.2532
17329TIP3    H173478   6.259   0.334   4.004 -0.4687  0.0772 -0.5200
17329TIP3    H273479   6.385   0.371   4.080 -1.2014  1.9823 -0.1754
17330TIP3   OH273480   6.565   2.792  15.902  0.1353  0.7695 -0.4093
17330TIP3    H173481   6.607   2.718  15.945  0.5312  1.1494 -0.1196
17330TIP3    H273482   6.521   2.755  15.826  0.6895  0.3020 -0.5106
17331TIP3   OH273483   3.410   5.499   1.816 -0.2818  0.5279 -0.3957
17331TIP3    H173484   3.468   5.441   1.766 -1.1604 -1.5189  0.8288
17331TIP3    H273485   3.325   5.492   1.773 -0.0907  2.0676 -1.0771
17332TIP3   OH273486   0.495   0.513  15.594 -0.0167 -0.7580  0.0251
17332TIP3    H173487   0.560   0.463  15.643 -0.4468 -1.8220 -0.4584
17332TIP3    H273488   0.518   0.498  15.502  1.0521  1.5634 -0.1605
17333TIP3   OH273489   1.818   1.290   2.342 -0.4106 -0.6338  0.1228
17333TIP3    H173490   1.855   1.205   2.364 -1.4035 -1.0353  0.2535
17333TIP3    H273491   1.724   1.276   2.338 -0.5882  0.4516  0.1077
17334TIP3   OH273492   5.710   5.661   0.503  0.0321  0.2735  0.8816
17334TIP3    H173493   5.655   5.689   0.430  0.9046 -0.3790 -0.0555
17334TIP3    H273494   5.650   5.653   0.577 -0.9328  0.6079  0.1534
17335TIP3   OH273495   4.935   1.585  16.283 -0.2885 -0.1506 -0.3402
17335TIP3    H173496   4.849   1.546  16.297  0.2878 -1.3421 -0.0054
17335TIP3    H273497   4.981   1.573  16.366  0.4290 -0.1259 -0.7252
17336TIP3   OH273498   2.813   0.658  12.631  0.3658  0.4685 -0.9726
17336TIP3    H173499   2.733   0.711  12.632  0.6009  0.8331  0.9619
17336TIP3    H273500   2.860   0.688  12.552 -0.0593  2.3147 -0.5739
17337TIP3   OH273501   4.879   5.799   0.568  0.4694  0.2685  0.2120
17337TIP3    H173502   4.926   5.742   0.629  1.2908  0.8368  0.1265
17337TIP3    H273503   4.929   5.881   0.568 -0.2441  0.7215 -0.2624
17338TIP3   OH273504   2.626   3.860  13.373  0.0616 -0.2268 -0.2893
17338TIP3    H173505   2.658   3.932  13.428  0.1092  0.4192 -1.1485
17338TIP3    H273506   2.575   3.903  13.304 -1.0341 -1.1080 -0.0690
17339TIP3   OH273507   3.519   0.360  14.682  0.3008 -0.5319 -0.1548
17339TIP3    H173508   3.502   0.347  14.775  0.2919  3.5309  0.5650
17339TIP3    H273509   3.604   0.405  14.679  0.6169 -1.1369 -2.2170
17340TIP3   OH273510   0.499   3.103  14.766 -0.4701  0.2132  0.0712
17340TIP3    H173511   0.509   3.198  14.771 -0.0958  0.1855 -0.1221
17340TIP3    H273512   0.587   3.069  14.783 -0.5143 -0.0841 -0.2843
17341TIP3   OH273513   1.364   0.720  10.430  0.6301  0.2774 -0.1043
17341TIP3    H173514   1.352   0.812  10.406  1.8742  0.1474 -1.3210
17341TIP3    H273515   1.338   0.671  10.352  0.5017 -0.3830  0.3429
17342TIP3   OH273516   4.228   4.801   0.768  0.0112  0.6724  0.1864
17342TIP3    H173517   4.143   4.823   0.805 -0.7921 -0.8513 -0.6640
17342TIP3    H273518   4.257   4.724   0.817 -0.2167 -0.2413 -1.0623
17343TIP3   OH273519   3.755   0.997  11.239  0.1695 -0.1381  0.2007
17343TIP3    H173520   3.701   1.073  11.263  0.0508 -0.4179  0.8346
17343TIP3    H273521   3.691   0.931  11.212 -0.0375 -1.2507  3.0357
17344TIP3   OH273522   1.939   0.774  17.021 -0.3097 -0.6327  0.2793
17344TIP3    H173523   1.960   0.764  17.114  0.1859  2.1284  0.5543
17344TIP3    H273524   2.010   0.829  16.987 -1.9571  0.7403 -1.0668
17345TIP3   OH273525   0.882   1.032  13.284 -0.2210  0.0207  0.0615
17345TIP3    H173526   0.882   0.937  13.296  0.9191 -0.0345 -0.2325
17345TIP3    H273527   0.805   1.062  13.332 -1.0053 -1.1102 -0.4278
17346TIP3   OH273528   0.999   6.332   2.141 -0.3746 -0.1371  0.1236
17346TIP3    H173529   1.084   6.323   2.184 -0.6782  1.1199  1.0481
17346TIP3    H273530   0.983   6.427   2.139 -2.1281 -0.3893  0.7049
17347TIP3   OH273531   6.785   0.353   3.103  0.1672  0.1563  0.1714
17347TIP3    H173532   6.818   0.326   3.017 -0.0641 -0.2711  0.2129
17347TIP3    H273533   6.775   0.448   3.096  0.2319  0.1347 -0.2446
17348TIP3   OH273534   0.521   3.730   0.506  0.4963 -0.1419  0.5868
17348TIP3    H173535   0.560   3.663   0.563 -0.8792 -0.7384  0.8587
17348TIP3    H273536   0.430   3.736   0.535  0.3880  1.2646  0.0103
17349TIP3   OH273537   0.733   3.763   5.252 -0.1110  0.2325  0.4355
17349TIP3    H173538   0.822   3.791   5.229 -0.8536  0.7397 -2.2162
17349TIP3    H273539   0.746   3.699   5.322  2.5789 -1.5501 -1.4667
17350TIP3   OH273540   1.405   2.446   4.588 -0.3276 -0.3234 -0.2425
17350TIP3    H173541   1.357   2.401   4.519 -0.3814  1.5744 -1.5386
17350TIP3    H273542   1.380   2.538   4.579  2.4367  0.5623 -0.0973
17351TIP3   OH273543   2.997   3.201   1.252  0.6578  0.3221 -0.2280
17351TIP3    H173544   3.078   3.155   1.229  0.8061  1.3950 -1.9795
17351TIP3    H273545   2.984   3.264   1.181 -0.5012  1.7474  1.1883
17352TIP3   OH273546   3.094   2.785   2.873 -0.2241 -0.1501 -0.1688
17352TIP3    H173547   3.133   2.788   2.786  0.5283 -1.2326  0.1092
17352TIP3    H273548   3.004   2.758   2.859  0.1611 -1.2930 -0.5570
17353TIP3   OH273549   2.372   2.516   4.431 -0.1147  0.1342 -0.0516
17353TIP3    H173550   2.409   2.589   4.381 -1.6503  1.3596  0.5150
17353TIP3    H273551   2.407   2.527   4.519 -2.3289  1.7963  0.7036
17354TIP3   OH273552   4.133   4.070  12.830 -0.2238 -0.0202 -0.3096
17354TIP3    H173553   4.134   4.061  12.925 -1.3374 -0.2042 -0.2983
17354TIP3    H273554   4.103   3.985  12.798  1.8189 -0.5553 -0.9462
17355TIP3   OH273555   5.445   1.263  13.415  0.1215 -0.2822  0.1719
17355TIP3    H173556   5.451   1.189  13.354  0.7065 -0.2583  0.1944
17355TIP3    H273557   5.491   1.233  13.494 -1.0730 -0.5021  0.8049
17356TIP3   OH273558   2.268   1.969  10.587  0.2239  0.0779 -0.3722
17356TIP3    H173559   2.275   1.925  10.502  1.1066 -0.8514  0.1445
17356TIP3    H273560   2.326   1.918  10.644 -1.7089 -0.4293  1.2552
17357TIP3   OH273561   4.050   1.555   1.322 -0.1596  0.6473  0.1791
17357TIP3    H173562   4.102   1.605   1.385 -0.9141  0.5248  0.9081
17357TIP3    H273563   3.969   1.605   1.313 -0.8997 -0.3983  0.8728
17358TIP3   OH273564   0.731   2.464  12.761 -0.4602  0.6314 -0.4306
17358TIP3    H173565   0.784   2.516  12.701 -0.4527  1.9925  0.7011
17358TIP3    H273566   0.699   2.527  12.826 -1.8528 -0.4972  0.0334
17359TIP3   OH273567   0.615   4.484  10.395 -0.1353  0.0368  0.0500
17359TIP3    H173568   0.583   4.456  10.481 -3.8630 -0.8212 -1.4408
17359TIP3    H273569   0.613   4.405  10.341  1.2923  0.7329 -1.1095
17360TIP3   OH273570   2.925   1.284  12.922  0.1410 -0.5576  0.5584
17360TIP3    H173571   2.871   1.324  12.991  2.0183  1.3783  1.0516
17360TIP3    H273572   2.894   1.324  12.841  0.2902 -0.0341  0.7504
17361TIP3   OH273573   3.238   3.749   1.674 -0.1684 -0.4274  0.4078
17361TIP3    H173574   3.244   3.835   1.631 -1.6595 -0.1610  0.7023
17361TIP3    H273575   3.230   3.770   1.767  0.3502 -0.9334  0.5739
17362TIP3   OH273576   0.406   1.672  15.516  0.0430 -0.3110  0.9984
17362TIP3    H173577   0.420   1.651  15.608 -0.3583 -1.9066  0.7228
17362TIP3    H273578   0.416   1.589  15.470  2.2574  0.7659 -0.6806
17363TIP3   OH273579   3.831   5.546  14.364 -0.4461  0.5393  0.0473
17363TIP3    H173580   3.871   5.574  14.447 -0.7309  0.7650  0.1112
17363TIP3    H273581   3.737   5.542  14.383 -0.3520 -1.4096  0.3199
17364TIP3   OH273582   3.122   3.726   0.385  0.1520  0.1042 -0.1892
17364TIP3    H173583   3.162   3.671   0.317 -0.6490  1.2469 -1.6271
17364TIP3    H273584   3.135   3.815   0.355 -0.1563  0.6533  1.2260
17365TIP3   OH273585   3.173   5.617   0.133 -0.0054  0.1808  0.1610
17365TIP3    H173586   3.133   5.698   0.163 -0.6851  0.1557 -0.6492
17365TIP3    H273587   3.161   5.555   0.205 -1.6887  0.0884 -0.1587
17366TIP3   OH273588   0.781   5.039  13.259 -0.2281  0.1775  0.2517
17366TIP3    H173589   0.743   5.111  13.209  0.0213  0.1021 -0.0464
17366TIP3    H273590   0.873   5.037  13.233 -0.8186 -2.1193 -2.0038
17367TIP3   OH273591   0.094   0.283  10.255 -0.0446 -0.1593 -0.4957
17367TIP3    H173592  -0.001   0.295  10.263 -0.0558  0.3453 -1.3666
17367TIP3    H273593   0.104   0.207  10.197  0.0912 -0.9617  0.5309
17368TIP3   OH273594   1.522   2.013  12.611  0.4379  0.2003 -0.6247
17368TIP3    H173595   1.473   2.041  12.533 -0.2792 -3.6435 -1.7779
17368TIP3    H273596   1.459   2.020  12.682  0.8687  3.0314 -0.4003
17369TIP3   OH273597   2.260   3.267   4.041 -0.2188  0.1260  0.0658
17369TIP3    H173598   2.310   3.349   4.040 -1.5657  0.9880 -0.1560
17369TIP3    H273599   2.201   3.275   3.966 -1.1359 -0.5523  0.7008
17370TIP3   OH273600   0.695   4.843  13.745  0.2174 -0.5060  0.6566
17370TIP3    H173601   0.736   4.905  13.685  0.9449  0.8315  2.4428
17370TIP3    H273602   0.608   4.880  13.761  0.2256 -0.5712  0.8465
17371TIP3   OH273603   1.718   5.368   0.470  0.1723 -0.9260 -0.1397
17371TIP3    H173604   1.701   5.293   0.526 -1.2745 -0.5845 -0.0680
17371TIP3    H273605   1.634   5.414   0.465  0.6272 -0.1673 -1.4354
17372TIP3   OH273606   1.640   5.814  16.009 -0.1483  0.8656  0.1393
17372TIP3    H173607   1.557   5.863  16.005 -0.5655  0.3183  1.3960
17372TIP3    H273608   1.629   5.743  15.946 -0.0155  1.6837 -0.8218
17373TIP3   OH273609   4.422   4.737   5.741  1.0240 -0.2780 -0.7355
17373TIP3    H173610   4.513   4.717   5.719  1.5310 -0.4734  1.3510
17373TIP3    H273611   4.424   4.829   5.769  0.6108 -0.3134 -0.5872
17374TIP3   OH273612   5.475   4.622  11.001 -0.7160  0.2285  0.9335
17374TIP3    H173613   5.494   4.572  10.922 -0.7197 -1.4855  1.9772
17374TIP3    H273614   5.522   4.705  10.989  1.8873 -1.2126  0.4634
17375TIP3   OH273615   6.010   3.841  15.911 -0.1764 -0.0183  0.2271
17375TIP3    H173616   6.082   3.852  15.973  0.7958 -0.5930 -0.7471
17375TIP3    H273617   5.943   3.793  15.960 -0.1111  0.9364  1.2941
17376TIP3   OH273618   1.862   6.458   2.150 -0.3634  0.0501 -1.4385
17376TIP3    H173619   1.895   6.483   2.237  0.7054 -1.9199 -1.2234
17376TIP3    H273620   1.930   6.488   2.089 -0.9617  1.1450 -1.5857
17377TIP3   OH273621   1.424   3.974   1.016 -0.0896 -0.2533  0.1442
17377TIP3    H173622   1.486   3.949   0.948 -0.5578 -0.4246 -0.2293
17377TIP3    H273623   1.409   4.068   1.002  1.4402  0.2021  1.3589
17378TIP3   OH273624   3.661   4.207  12.122  0.6330 -0.5300  0.4412
17378TIP3    H173625   3.598   4.135  12.132 -0.3336  0.4142  1.4205
17378TIP3    H273626   3.618   4.270  12.065  0.5505  0.2559  1.3477
17379TIP3   OH273627   2.352   2.156  12.462  0.1169  1.0245  0.2525
17379TIP3    H173628   2.275   2.109  12.493 -0.2584 -0.7690 -2.9575
17379TIP3    H273629   2.426   2.102  12.492 -0.0752  0.7268  0.1931
17380TIP3   OH273630   0.449   2.460   5.126  1.1806 -0.4792  0.5946
17380TIP3    H173631   0.402   2.542   5.109  2.6649  0.1909 -0.3765
17380TIP3    H273632   0.379   2.397   5.146  0.0662  1.4205  3.3997
17381TIP3   OH273633   0.891   1.258  16.983  0.2015  0.2274  0.8923
17381TIP3    H173634   0.971   1.297  17.018  0.2721  1.4631 -0.5366
17381TIP3    H273635   0.862   1.319  16.916 -0.6035 -1.4047 -0.3256
17382TIP3   OH273636   3.088   0.669   2.038  0.2301 -0.1763  0.3070
17382TIP3    H173637   3.079   0.723   2.116  1.3923 -0.4453  0.6394
17382TIP3    H273638   3.144   0.720   1.979  1.2676 -0.9425  0.5865
17383TIP3   OH273639   3.663   2.816   4.177  0.4131 -0.4541 -0.4241
17383TIP3    H173640   3.604   2.827   4.103 -0.7925  0.9496  0.6518
17383TIP3    H273641   3.638   2.887   4.237  1.4974 -1.3808  1.2010
17384TIP3   OH273642   1.365   1.835   6.260 -0.1301  0.1888  0.5490
17384TIP3    H173643   1.400   1.782   6.189  0.8396  0.6109  0.6974
17384TIP3    H273644   1.438   1.891   6.287 -1.2717  2.0919 -0.0569
17385TIP3   OH273645   6.267   1.379   0.390 -0.4288  0.0477 -0.0721
17385TIP3    H173646   6.244   1.297   0.345 -0.8184 -0.8750  1.7071
17385TIP3    H273647   6.226   1.447   0.337 -1.6381 -1.0563 -0.6336
17386TIP3   OH273648   6.196   0.915   0.153 -0.2558  0.8013  0.3301
17386TIP3    H173649   6.194   0.990   0.213 -1.7422  0.5515  0.6192
17386TIP3    H273650   6.244   0.847   0.202  1.9893  1.8192 -0.3154
17387TIP3   OH273651   2.151   5.405   2.042  0.4161 -0.0342 -0.2763
17387TIP3    H173652   2.065   5.414   2.085 -0.3976  2.7396 -2.2279
17387TIP3    H273653   2.166   5.310   2.040 -1.8065 -0.5424  1.5539
17388TIP3   OH273654   0.098   3.867   1.320  0.0635 -0.1493 -0.6752
17388TIP3    H173655   0.059   3.907   1.242 -3.1993  0.0684  0.9076
17388TIP3    H273656   0.023   3.842   1.374  2.1740  0.5258  2.8524
17389TIP3   OH273657   6.464   3.901  12.199  0.0722 -0.0849 -0.5150
17389TIP3    H173658   6.420   3.984  12.183 -0.4360 -0.1565  0.4528
17389TIP3    H273659   6.394   3.836  12.207  0.4986 -0.9302 -2.7701
17390TIP3   OH273660   3.262   0.605   0.918 -0.0114 -0.7266  0.0672
17390TIP3    H173661   3.301   0.553   0.989  0.2663  0.2655  0.6554
17390TIP3    H273662   3.226   0.540   0.858 -0.7350 -1.5824  1.3802
17391TIP3   OH273663   5.376   3.976  11.258 -0.9355  0.2939  0.1409
17391TIP3    H173664   5.353   3.924  11.181 -1.6933 -0.7704  1.0398
17391TIP3    H273665   5.448   3.927  11.299 -0.8331  0.6103  0.3392
17392TIP3   OH273666   4.604   2.679  11.465  0.6428  1.1863 -0.2512
17392TIP3    H173667   4.578   2.747  11.403  0.2450  0.5693 -0.7742
17392TIP3    H273668   4.653   2.726  11.532 -0.0989  2.0758 -0.3025
17393TIP3   OH273669   3.066   4.854   4.601 -0.6902 -0.4026 -0.2620
17393TIP3    H173670   2.980   4.814   4.595 -0.7811 -0.0517 -1.8904
17393TIP3    H273671   3.090   4.872   4.510  1.2006 -0.7131  0.1368
17394TIP3   OH273672   4.165   3.824   0.565  0.0670 -0.1561  0.4195
17394TIP3    H173673   4.253   3.800   0.597  0.4314  0.0072 -0.4430
17394TIP3    H273674   4.181   3.872   0.484 -0.6517  2.5326  1.7224
17395TIP3   OH273675   6.840   6.522  14.710  0.1823 -0.2432 -0.2929
17395TIP3    H173676   6.868   6.436  14.741  1.1647 -0.0774 -0.6793
17395TIP3    H273677   6.853   6.580  14.786 -1.1070 -0.5326  0.1788
17396TIP3   OH273678   3.616   1.509   2.003 -0.0195 -0.1509  0.3211
17396TIP3    H173679   3.644   1.423   2.033  2.1685  0.0509 -0.9341
17396TIP3    H273680   3.628   1.566   2.080  3.3044 -0.0831 -0.0922
17397TIP3   OH273681   6.061   2.531   1.133  0.2415 -0.2263 -0.5156
17397TIP3    H173682   6.155   2.542   1.121  0.2755  0.9895  0.6046
17397TIP3    H273683   6.026   2.529   1.044  1.2682 -0.1592 -0.9398
17398TIP3   OH273684   4.380   3.618  16.884  0.3197  0.3751  0.1945
17398TIP3    H173685   4.469   3.590  16.906  0.1795 -0.1164  0.1460
17398TIP3    H273686   4.326   3.584  16.955 -0.0814 -0.8713 -0.6643
17399TIP3   OH273687   4.971   3.854  16.402 -0.7403 -0.6128 -0.0655
17399TIP3    H173688   4.876   3.846  16.390 -0.6668 -2.3970  0.2956
17399TIP3    H273689   4.981   3.885  16.492 -0.9874 -0.8040  0.0309
17400TIP3   OH273690   3.376   1.183   6.276  0.3681  0.3372  0.2004
17400TIP3    H173691   3.433   1.107   6.282  0.7749  0.5313 -0.9907
17400TIP3    H273692   3.292   1.153   6.311 -0.0308 -1.2450 -1.9476
17401TIP3   OH273693   4.825   2.851   5.120 -0.1750  0.2239  0.0121
17401TIP3    H173694   4.773   2.897   5.186  1.2804  0.2035  1.2342
17401TIP3    H273695   4.792   2.762   5.121 -0.5375  0.3580  0.3120
17402TIP3   OH273696   2.775   0.863  16.347  0.5448 -0.1606  0.5260
17402TIP3    H173697   2.843   0.796  16.339  1.5794  0.7324  1.4555
17402TIP3    H273698   2.805   0.919  16.418  0.8221  2.5918 -1.6175
17403TIP3   OH273699   1.636   2.883  16.703  0.0297  0.0289 -0.0046
17403TIP3    H173700   1.712   2.918  16.656  0.1234  0.1233  0.2122
17403TIP3    H273701   1.592   2.961  16.738 -0.3920 -0.0003 -0.4689
17404TIP3   OH273702   2.581   4.536  15.327  0.5901  0.4231 -0.7935
17404TIP3    H173703   2.658   4.542  15.383 -0.4174  2.2707  0.5416
17404TIP3    H273704   2.553   4.445  15.333  1.2119  0.3066  0.7729
17405TIP3   OH273705   4.819   2.178  15.794 -0.4850 -0.3294  0.1854
17405TIP3    H173706   4.802   2.124  15.716  0.5066  0.2236 -0.4338
17405TIP3    H273707   4.782   2.263  15.773  0.9894  0.2231 -0.2604
17406TIP3   OH273708   5.947   3.947   5.514  0.1523 -0.1170  0.3538
17406TIP3    H173709   5.863   3.914   5.484 -0.9394  1.6026  1.3755
17406TIP3    H273710   6.011   3.886   5.477 -1.5664 -1.9458  0.2264
17407TIP3   OH273711   6.589   5.021  16.513  0.3981  0.1462 -0.4329
17407TIP3    H173712   6.670   5.058  16.478  0.8618 -0.0281  0.4260
17407TIP3    H273713   6.550   4.975  16.438  1.8011 -0.9566 -0.5282
17408TIP3   OH273714   0.206   2.263  12.701 -0.5881  0.6265  0.4232
17408TIP3    H173715   0.240   2.270  12.612  0.7027  0.8188  0.9090
17408TIP3    H273716   0.199   2.353  12.731  1.8401  0.5418  1.5117
17409TIP3   OH273717   0.027   3.109   5.048  0.3175  0.6680  0.3898
17409TIP3    H173718   0.087   3.176   5.015  1.1729 -0.0982  0.3447
17409TIP3    H273719   0.069   3.075   5.128  0.7007 -0.9008 -0.4333
17410TIP3   OH273720   0.161   4.577   2.029 -0.1370 -0.1936 -0.0956
17410TIP3    H173721   0.100   4.576   2.103  0.1460  0.2371  0.1430
17410TIP3    H273722   0.245   4.550   2.067  0.3059  1.2379  0.0100
17411TIP3   OH273723   2.224   0.623   0.733 -0.0641 -0.2421  0.1983
17411TIP3    H173724   2.214   0.622   0.638 -3.3293 -0.7617  0.4104
17411TIP3    H273725   2.250   0.533   0.756 -1.4334 -0.7406 -0.1072
17412TIP3   OH273726   6.371   0.240   1.448  0.3403 -0.0630 -0.0297
17412TIP3    H173727   6.293   0.237   1.502  1.0273 -0.6652  0.9579
17412TIP3    H273728   6.396   0.148   1.436  1.8104  0.1418  1.0715
17413TIP3   OH273729   3.297   2.594   5.891 -0.1157  0.0272  0.0752
17413TIP3    H173730   3.216   2.545   5.881  0.0487 -0.1454 -0.4209
17413TIP3    H273731   3.275   2.683   5.864  0.1677 -0.2944 -1.2935
17414TIP3   OH273732   4.316   4.178   6.105  0.2603 -0.4887  0.4808
17414TIP3    H173733   4.259   4.244   6.144  0.4748 -0.3485  0.5529
17414TIP3    H273734   4.265   4.096   6.110  0.1020 -0.3804  0.6233
17415TIP3   OH273735   5.351   1.450   4.794 -0.2580 -0.0340  0.2175
17415TIP3    H173736   5.311   1.481   4.875  0.5057  2.2081 -0.1888
17415TIP3    H273737   5.292   1.382   4.762 -2.4288  1.4423  0.8786
17416TIP3   OH273738   0.230   6.503  16.617 -0.3701  0.2595 -0.4453
17416TIP3    H173739   0.262   6.592  16.624 -0.7713  0.3703  0.0331
17416TIP3    H273740   0.167   6.506  16.545  1.5791 -0.2349 -2.2495
17417TIP3   OH273741   0.119   2.955  11.221  0.1535  0.9021 -0.3004
17417TIP3    H173742   0.096   2.976  11.312 -0.6178 -0.8110 -0.0715
17417TIP3    H273743   0.198   2.902  11.228 -1.1209 -1.0992 -0.4324
17418TIP3   OH273744   2.128   6.704   1.366 -0.5828  0.0162 -0.6657
17418TIP3    H173745   2.060   6.664   1.420 -0.8839 -1.4673 -2.0409
17418TIP3    H273746   2.115   6.798   1.375 -0.3563 -0.1505  2.1192
17419TIP3   OH273747   1.658   2.731  12.553 -0.0755 -0.5831 -0.4358
17419TIP3    H173748   1.630   2.775  12.473  0.1502  0.9340  0.2747
17419TIP3    H273749   1.623   2.786  12.624 -0.6551 -2.1381  0.5217
17420TIP3   OH273750   6.107   6.073  14.946 -0.3518 -0.1472  0.1021
17420TIP3    H173751   6.029   6.023  14.969 -0.9400 -0.3881 -2.1570
17420TIP3    H273752   6.179   6.027  14.989 -1.1577 -1.5229  0.0181
17421TIP3   OH273753   3.720   2.878  12.468  0.4991 -0.1360  0.1910
17421TIP3    H173754   3.683   2.801  12.425 -2.7813  1.2573  0.2006
17421TIP3    H273755   3.727   2.852  12.560  3.2100 -1.6235 -0.3485
17422TIP3   OH273756   5.431   3.301   4.570  0.4879 -0.2533 -0.0119
17422TIP3    H173757   5.350   3.351   4.580  0.8424 -0.0356  2.0348
17422TIP3    H273758   5.500   3.364   4.589  1.2073 -0.3674 -1.9922
17423TIP3   OH273759   6.282   4.481  15.731 -0.6289 -0.3167 -0.0031
17423TIP3    H173760   6.300   4.518  15.645  0.7192  0.0967  0.4277
17423TIP3    H273761   6.236   4.399  15.713 -2.6764  0.9709 -1.0118
17424TIP3   OH273762   3.908   1.109   1.538 -0.2274  0.4351 -0.1481
17424TIP3    H173763   3.978   1.148   1.590  0.0904 -0.5353  0.1688
17424TIP3    H273764   3.933   1.127   1.447  0.0576  0.7144 -0.0175
17425TIP3   OH273765   6.698   1.665   6.352 -0.3804 -0.5189 -0.3984
17425TIP3    H173766   6.647   1.736   6.312  0.8028  0.6313  0.0630
17425TIP3    H273767   6.632   1.604   6.384 -1.4067 -0.3079 -1.9922
17426TIP3   OH273768   0.940   0.794  13.100 -0.0454 -0.1004  0.5477
17426TIP3    H173769   0.988   0.727  13.149 -2.9645 -3.1799 -0.5215
17426TIP3    H273770   1.003   0.825  13.035  0.6167 -4.2911 -1.1224
17427TIP3   OH273771   4.635   1.015   3.866  0.6438 -0.3122 -0.3204
17427TIP3    H173772   4.713   0.979   3.907  0.6080 -0.3247 -0.2623
17427TIP3    H273773   4.585   0.938   3.838  0.6509 -0.3044 -0.3548
17428TIP3   OH273774   4.993   5.782  15.450  0.2215 -0.1263 -0.1252
17428TIP3    H173775   5.028   5.852  15.394 -0.2122 -1.5906 -2.3700
17428TIP3    H273776   4.948   5.723  15.389 -0.4265 -1.7692  1.8289
17429TIP3   OH273777   1.294   3.231  12.114  0.5911 -0.4382  0.2162
17429TIP3    H173778   1.234   3.301  12.088  1.1784  0.3181  0.8693
17429TIP3    H273779   1.354   3.222  12.040  1.4662  0.8306  0.7361
17430TIP3   OH273780   2.321   1.933  11.875  0.0318  0.8196  0.0154
17430TIP3    H173781   2.227   1.933  11.858  0.0925 -0.5686 -0.4121
17430TIP3    H273782   2.349   2.022  11.853 -0.6401  0.3559 -3.1405
17431TIP3   OH273783   0.668   2.945   3.505 -0.2412 -0.2454 -0.1974
17431TIP3    H173784   0.716   3.028   3.502  0.2019 -0.5261 -1.2243
17431TIP3    H273785   0.724   2.887   3.556 -0.7908  0.2181  0.9695
17432TIP3   OH273786   4.509   2.377   6.289 -0.7457 -0.4613  0.1416
17432TIP3    H173787   4.592   2.341   6.318 -0.8695 -0.1371  0.9085
17432TIP3    H273788   4.502   2.461   6.334 -0.6075  0.3951 -1.3680
17433TIP3   OH273789   2.987   4.808  11.459  0.0816 -0.2793 -0.0926
17433TIP3    H173790   2.939   4.853  11.390 -1.9263  0.2166  1.5158
17433TIP3    H273791   3.032   4.877  11.507  0.4032 -0.4720 -0.1125
17434TIP3   OH273792   0.478   4.088   3.364  0.1549  0.5753 -0.4444
17434TIP3    H173793   0.476   4.109   3.270 -2.4381 -0.2462 -0.6568
17434TIP3    H273794   0.391   4.053   3.382  1.3155 -1.3635  1.8304
17435TIP3   OH273795   5.359   2.561  15.516 -0.1225 -0.3148  0.1866
17435TIP3    H173796   5.391   2.471  15.509  1.2929 -0.2209  3.5821
17435TIP3    H273797   5.435   2.616  15.496 -0.6692  0.1489 -0.7003
17436TIP3   OH273798   6.504   4.895  15.713 -0.1782 -0.3257 -0.1272
17436TIP3    H173799   6.435   4.888  15.779  0.3164 -0.1318  0.4154
17436TIP3    H273800   6.490   4.980  15.671 -0.6595 -0.5696 -0.4635
17437TIP3   OH273801   6.689   5.892   5.925  0.0364 -0.2945 -0.2385
17437TIP3    H173802   6.723   5.978   5.947  0.4172 -0.0481 -1.7115
17437TIP3    H273803   6.661   5.855   6.009  1.4385  0.5707  0.6403
17438TIP3   OH273804   4.996   2.107   2.080 -0.2231 -0.0638  0.6500
17438TIP3    H173805   4.905   2.116   2.106  0.0189  2.3145  0.8647
17438TIP3    H273806   4.992   2.082   1.987 -1.1450  1.6561  0.1835
17439TIP3   OH273807   6.774   5.555  14.472  0.0605 -0.1708 -0.1872
17439TIP3    H173808   6.837   5.539  14.543  0.5917 -0.0217 -0.6193
17439TIP3    H273809   6.755   5.469  14.436  2.0643 -0.0216 -1.7854
17440TIP3   OH273810   0.359   5.824   4.364  0.5968  0.0797 -0.5870
17440TIP3    H173811   0.296   5.755   4.382  1.9527 -1.1974 -0.5414
17440TIP3    H273812   0.323   5.901   4.408  0.4190 -1.2864  1.8449
17441TIP3   OH273813   2.140   5.448  14.598  0.3086 -0.2979 -0.1529
17441TIP3    H173814   2.060   5.401  14.623  0.3293 -0.3973 -0.2740
17441TIP3    H273815   2.184   5.389  14.537  0.6783 -0.4218  0.2293
17442TIP3   OH273816   5.760   1.495  10.865  0.4405 -0.5177 -0.7101
17442TIP3    H173817   5.669   1.468  10.851  0.1048 -0.5516  1.2004
17442TIP3    H273818   5.812   1.429  10.821 -0.4559 -0.4485 -1.9134
17443TIP3   OH273819   6.175   3.801  13.975 -0.2488 -0.0758 -0.5100
17443TIP3    H173820   6.130   3.732  14.024 -1.0185  1.1178  0.5359
17443TIP3    H273821   6.256   3.816  14.025 -0.6019  0.5232 -0.1186
17444TIP3   OH273822   0.976   5.617   1.919 -0.2108 -0.5070 -0.0066
17444TIP3    H173823   0.890   5.578   1.940 -0.3408  0.1704  0.7752
17444TIP3    H273824   0.984   5.691   1.979  0.9292 -0.5576 -0.0752
17445TIP3   OH273825   3.818   0.489   4.986 -0.2322 -0.3954  0.2042
17445TIP3    H173826   3.746   0.543   4.954  0.2437 -0.1622 -0.5083
17445TIP3    H273827   3.776   0.409   5.017 -0.6676 -1.0062 -1.8454
17446TIP3   OH273828   6.000   5.494  14.136  0.2906  0.2590 -0.0411
17446TIP3    H173829   6.034   5.577  14.103 -0.5988  0.1463 -1.3110
17446TIP3    H273830   5.924   5.518  14.190 -0.1503  0.2625 -0.6562
17447TIP3   OH273831   5.174   3.797  15.036  0.1376  0.5320 -0.0963
17447TIP3    H173832   5.234   3.756  14.974  0.1144 -1.0408  0.8826
17447TIP3    H273833   5.190   3.752  15.119 -1.2749  1.1844  0.5615
17448TIP3   OH273834   0.595   2.216  12.756  0.3288 -0.5991 -0.5628
17448TIP3    H173835   0.611   2.310  12.765 -0.2494 -0.3756 -1.6642
17448TIP3    H273836   0.588   2.202  12.661  2.3474 -2.0887 -0.5621
17449TIP3   OH273837   5.883   1.737  12.619  0.3530 -0.2761 -0.2889
17449TIP3    H173838   5.963   1.759  12.667  0.0419 -0.2623  0.2302
17449TIP3    H273839   5.894   1.779  12.534  0.8556 -0.1918 -0.1848
17450TIP3   OH273840   0.014   3.586   0.444 -0.1995  0.0554 -0.5744
17450TIP3    H173841   0.066   3.508   0.458  1.7427  1.3682 -0.0578
17450TIP3    H273842  -0.019   3.578   0.354  1.5148 -0.4987 -1.1858
17451TIP3   OH273843   1.307   6.408   1.631  0.2304  0.5787 -0.0699
17451TIP3    H173844   1.299   6.501   1.649 -1.5031  0.3188  0.6526
17451TIP3    H273845   1.277   6.365   1.711 -2.5037 -0.5749 -1.5742
17452TIP3   OH273846   4.624   5.857  14.096 -0.6691 -0.1910 -0.0544
17452TIP3    H173847   4.654   5.880  14.009 -0.0674 -0.0847  0.1755
17452TIP3    H273848   4.698   5.812  14.136 -1.3763 -1.3687 -0.0338
17453TIP3   OH273849   2.644   1.940   4.143 -0.2404  0.1039 -0.4401
17453TIP3    H173850   2.577   1.896   4.195 -0.0776  0.6059  0.2177
17453TIP3    H273851   2.726   1.895   4.166  0.2495  1.8948  1.7257
17454TIP3   OH273852   1.872   5.877  13.263 -0.4041 -0.2676 -0.0660
17454TIP3    H173853   1.861   5.784  13.243  1.3377 -1.1528  2.5178
17454TIP3    H273854   1.966   5.893  13.250 -0.5071  0.8498  0.4686
17455TIP3   OH273855   5.780   3.787   3.832  0.1563  0.9029  0.4665
17455TIP3    H173856   5.714   3.786   3.902  0.7314  0.1843  1.0137
17455TIP3    H273857   5.852   3.839   3.868  0.3069  0.8370  0.2603
17456TIP3   OH273858   3.665   4.708  16.486 -0.3560 -0.0583 -0.1647
17456TIP3    H173859   3.718   4.630  16.499  0.7541  0.4908 -1.1819
17456TIP3    H273860   3.668   4.753  16.571  2.0206  0.6604 -0.5582
17457TIP3   OH273861   2.969   6.617   1.680 -0.2410 -0.0544  0.5789
17457TIP3    H173862   2.880   6.637   1.652 -0.6281  0.4187  2.0653
17457TIP3    H273863   2.962   6.531   1.722  0.2667 -0.5911 -0.3744
17458TIP3   OH273864   2.069   1.167  11.060  0.6516  0.5456  0.6160
17458TIP3    H173865   1.985   1.161  11.106 -0.0420  1.5725 -0.4772
17458TIP3    H273866   2.067   1.252  11.017  1.6002 -0.0690 -0.7041
17459TIP3   OH273867   3.795   5.317  10.696  0.3668  0.5906 -0.4393
17459TIP3    H173868   3.855   5.377  10.740  0.2741 -0.2780  0.9404
17459TIP3    H273869   3.845   5.236  10.685 -0.7613 -0.5050  1.6659
17460TIP3   OH273870   4.119   2.179  14.620  0.3437 -0.3211 -0.0392
17460TIP3    H173871   4.145   2.091  14.593  0.8667  0.1611 -1.2129
17460TIP3    H273872   4.026   2.172  14.641 -0.1053 -0.7894 -1.9826
17461TIP3   OH273873   4.348   3.116   2.222  0.3214  0.1913 -0.2586
17461TIP3    H173874   4.437   3.131   2.190  0.5367 -1.3774 -0.5090
17461TIP3    H273875   4.306   3.201   2.218  2.3706  1.3822  1.6443
17462TIP3   OH273876   3.423   1.056   5.971 -0.7487  0.1174  0.0164
17462TIP3    H173877   3.375   0.999   6.031  0.8719 -0.4391  0.8357
17462TIP3    H273878   3.452   1.129   6.026 -1.6126  1.0679 -0.7310
17463TIP3   OH273879   6.700   4.925  10.996  0.4801 -0.4076 -0.8494
17463TIP3    H173880   6.693   4.877  10.914  0.7256 -0.8188 -0.6322
17463TIP3    H273881   6.791   4.957  10.999  1.1324 -2.2173  0.2481
17464TIP3   OH273882   0.960   4.710  11.186 -0.9320  0.4001 -0.1869
17464TIP3    H173883   1.029   4.736  11.247  0.3577  0.0983 -1.4633
17464TIP3    H273884   0.925   4.792  11.152  0.6724  0.5724 -1.5278
17465TIP3   OH273885   1.201   1.877  11.622  0.3304  0.0502 -0.8192
17465TIP3    H173886   1.218   1.934  11.696 -2.1622  0.2018 -0.2895
17465TIP3    H273887   1.246   1.920  11.548  0.9220  1.1244  0.1355
17466TIP3   OH273888   0.992   0.088  15.726  0.2991  0.5096 -0.2164
17466TIP3    H173889   0.953   0.023  15.785 -0.3923  0.9312 -0.1995
17466TIP3    H273890   1.038   0.149  15.784 -2.2504  2.2268  0.1501
17467TIP3   OH273891   4.007   2.460   4.443  0.3156  0.0577  0.2890
17467TIP3    H173892   3.977   2.529   4.385 -0.8351 -1.2632 -0.7255
17467TIP3    H273893   4.088   2.429   4.403  0.0160 -0.2269 -0.0914
17468TIP3   OH273894   0.652   2.433   1.813  0.0793 -0.5585 -0.6594
17468TIP3    H173895   0.707   2.356   1.829  1.9100  0.9763  0.8841
17468TIP3    H273896   0.661   2.485   1.893 -1.8780  0.8301 -1.2884
17469TIP3   OH273897   5.823   1.383  14.727 -0.4410  0.5955 -0.2278
17469TIP3    H173898   5.738   1.417  14.756 -0.3364  0.9475 -0.3290
17469TIP3    H273899   5.883   1.457  14.739 -0.3284  0.6366 -1.0172
17470TIP3   OH273900   1.233   1.740  10.415  0.6512 -0.2556 -0.2899
17470TIP3    H173901   1.294   1.814  10.414  0.4847 -0.1172 -0.2257
17470TIP3    H273902   1.169   1.763  10.482 -0.0209  0.0329 -1.0215
17471TIP3   OH273903   3.109   4.970   1.621 -0.5584  0.0989  0.4251
17471TIP3    H173904   3.130   4.877   1.630 -1.5635 -0.3614 -1.4440
17471TIP3    H273905   3.152   5.011   1.695  2.1069 -1.4910 -0.0968
17472TIP3   OH273906   3.420   4.469  13.613  0.0604 -0.0049  0.0051
17472TIP3    H173907   3.414   4.558  13.580 -0.3356 -1.0435 -3.0153
17472TIP3    H273908   3.393   4.414  13.540 -0.8338 -2.5960  2.1136
17473TIP3   OH273909   6.296   3.292   0.914 -0.2350  0.7786  0.5737
17473TIP3    H173910   6.382   3.316   0.949 -0.0077  0.5358  0.1888
17473TIP3    H273911   6.302   3.310   0.820 -1.0744  2.0926  0.7446
17474TIP3   OH273912   6.729   2.650  12.238  0.0368 -0.9589 -0.2970
17474TIP3    H173913   6.720   2.586  12.167 -1.2451 -0.2595 -0.7997
17474TIP3    H273914   6.647   2.641  12.288 -0.4208  0.6755 -0.7142
17475TIP3   OH273915   0.835   3.536  12.840 -0.7030 -0.5164  0.5925
17475TIP3    H173916   0.824   3.442  12.830 -0.7569 -0.2586 -2.5055
17475TIP3    H273917   0.748   3.573  12.825 -0.3718  0.1040  0.1312
17476TIP3   OH273918   4.802   6.500   2.207 -0.4196  0.0954  0.0730
17476TIP3    H173919   4.845   6.545   2.135 -0.0215 -1.2510 -0.5536
17476TIP3    H273920   4.749   6.568   2.249  1.2676  1.4878  0.0596
17477TIP3   OH273921   1.300   3.281  16.024 -0.0051  0.4084 -0.4819
17477TIP3    H173922   1.389   3.254  16.046 -0.0764  1.0768  0.6651
17477TIP3    H273923   1.244   3.227  16.079 -0.3591 -0.3548 -1.5428
17478TIP3   OH273924   4.290   2.262   5.164 -0.2018 -0.0849 -0.4987
17478TIP3    H173925   4.363   2.314   5.130  1.3899 -2.1084 -0.4287
17478TIP3    H273926   4.233   2.325   5.208  2.6352  1.3631  1.4184
17479TIP3   OH273927   2.975   2.307   6.408  0.4422  0.0996  0.0331
17479TIP3    H173928   2.910   2.255   6.360  0.0670  1.0910 -0.5808
17479TIP3    H273929   3.033   2.243   6.448  0.3086 -0.7803 -1.1301
17480TIP3   OH273930   4.629   6.525   5.087 -0.1506 -0.2837 -0.0100
17480TIP3    H173931   4.632   6.456   5.153 -0.3461 -0.6170 -0.3485
17480TIP3    H273932   4.703   6.582   5.109  0.0601 -0.6435  0.2222
17481TIP3   OH273933   0.796   4.250  11.851 -0.2672 -0.1308 -0.0482
17481TIP3    H173934   0.748   4.329  11.878  0.2581  0.1504  0.0619
17481TIP3    H273935   0.758   4.180  11.903  0.6859  0.3872  1.3886
17482TIP3   OH273936   5.089   5.725  12.824 -0.2701 -0.0279 -0.6395
17482TIP3    H173937   5.016   5.779  12.852 -0.3481 -0.5167  0.1270
17482TIP3    H273938   5.062   5.690  12.739 -0.0019  1.5284 -1.4065
17483TIP3   OH273939   6.546   0.388   1.596 -0.6080 -0.2451 -0.1188
17483TIP3    H173940   6.610   0.317   1.598  0.7265  0.8957 -1.0684
17483TIP3    H273941   6.475   0.354   1.541  0.5066 -0.4756 -1.4781
17484TIP3   OH273942   6.680   4.028  15.915 -0.0794 -0.5039 -0.6818
17484TIP3    H173943   6.606   4.090  15.918 -1.1106 -1.7196  0.0305
17484TIP3    H273944   6.744   4.066  15.974 -1.0021 -0.4654  0.3272
17485TIP3   OH273945   0.523   1.567   0.732  0.1210 -0.3189 -0.6654
17485TIP3    H173946   0.528   1.521   0.816 -0.3279 -0.2461 -0.5931
17485TIP3    H273947   0.612   1.564   0.697 -0.0628 -1.9712 -1.0611
17486TIP3   OH273948   5.010   1.191   4.249  0.6095 -0.3261 -0.6590
17486TIP3    H173949   5.105   1.188   4.236  0.6950  3.9969 -2.6950
17486TIP3    H273950   4.999   1.234   4.334  0.6757  2.2421 -1.8572
17487TIP3   OH273951   0.305   4.146   6.149  0.0535  0.4787  0.2344
17487TIP3    H173952   0.373   4.166   6.213  0.7115 -0.7661 -0.0380
17487TIP3    H273953   0.258   4.229   6.136  0.3853  0.9291  1.7483
17488TIP3   OH273954   0.750   1.701   2.934  0.1046  0.5591  0.5582
17488TIP3    H173955   0.759   1.719   2.840 -0.9027  0.5530  0.4543
17488TIP3    H273956   0.764   1.607   2.942 -0.3070  0.4797  0.3468
17489TIP3   OH273957   6.412   5.838   2.211 -0.2406 -0.1895  0.3318
17489TIP3    H173958   6.474   5.905   2.181 -0.2895 -1.6646 -3.6150
17489TIP3    H273959   6.381   5.871   2.296  3.5243  2.1472  1.0454
17490TIP3   OH273960   0.008   6.102   5.770 -0.0300 -0.6507 -0.1486
17490TIP3    H173961   0.008   6.083   5.864  0.1313 -0.9343 -0.2054
17490TIP3    H273962   0.093   6.142   5.754  1.0336 -2.9297 -0.6312
17491TIP3   OH273963   2.523   5.395  13.696  0.1742  0.0509  0.0619
17491TIP3    H173964   2.553   5.342  13.770 -1.8343 -0.7601  0.3634
17491TIP3    H273965   2.491   5.331  13.632 -0.1921  0.8179 -0.5472
17492TIP3   OH273966   5.931   2.583   4.007  0.3316 -0.3136 -0.1873
17492TIP3    H173967   5.961   2.493   4.012  2.3341  0.3692  1.3892
17492TIP3    H273968   5.990   2.632   4.065 -0.6888  2.0131 -0.9717
17493TIP3   OH273969   0.800   1.592  16.352 -0.2864  0.6886 -0.2478
17493TIP3    H173970   0.763   1.675  16.320 -0.3689  0.6190 -0.3328
17493TIP3    H273971   0.729   1.529  16.340  0.3692  0.2096 -1.9175
17494TIP3   OH273972   5.679   2.047   1.010 -0.0050 -0.6259  0.1464
17494TIP3    H173973   5.600   2.046   0.955  1.2494 -1.6503 -1.7722
17494TIP3    H273974   5.711   1.957   1.005  0.4318 -0.6226  2.2405
17495TIP3   OH273975   3.715   3.279   5.207 -0.4099 -0.6544 -0.5629
17495TIP3    H173976   3.688   3.219   5.277  1.2753 -2.5896 -1.4422
17495TIP3    H273977   3.645   3.275   5.143 -0.7352 -0.9896 -0.1947
17496TIP3   OH273978   5.372   5.350  12.864 -0.0507  0.4809  0.1706
17496TIP3    H173979   5.324   5.372  12.785 -1.4038 -0.9596  0.5403
17496TIP3    H273980   5.330   5.402  12.933  1.1334  1.7436 -0.0161
17497TIP3   OH273981   2.194   5.075   1.086 -0.2090 -0.9357  0.0872
17497TIP3    H173982   2.165   5.045   1.171 -2.4069 -1.0779 -0.6495
17497TIP3    H273983   2.157   5.012   1.024  1.1815 -0.7400 -1.0012
17498TIP3   OH273984   5.523   4.854   1.675  0.4385  0.4943  0.0870
17498TIP3    H173985   5.580   4.790   1.718 -1.4599 -0.2690  1.6405
17498TIP3    H273986   5.537   4.935   1.724  1.0785  0.6397 -0.3295
17499TIP3   OH273987   6.463   5.479  15.177  0.4556 -0.7016 -0.2516
17499TIP3    H173988   6.509   5.423  15.115  0.6625 -0.2087 -0.5534
17499TIP3    H273989   6.414   5.419  15.233  1.0105 -1.1993 -0.2928
17500TIP3   OH273990   3.940   5.459   5.164 -0.1714 -0.3991 -0.7231
17500TIP3    H173991   3.911   5.530   5.221 -0.1106 -1.8952  1.2723
17500TIP3    H273992   4.015   5.495   5.117  0.6795  0.4840  1.2150
17501TIP3   OH273993   3.801   1.954  15.047  0.3853  0.1704 -0.7661
17501TIP3    H173994   3.788   2.005  15.127  0.8938 -0.7834 -0.0518
17501TIP3    H273995   3.886   1.983  15.013  1.2774 -1.0439  0.3272
17502TIP3   OH273996   1.203   3.630   1.575  0.3991  0.0156  0.2434
17502TIP3    H173997   1.213   3.685   1.498 -0.1605 -0.5684 -0.2515
17502TIP3    H273998   1.286   3.585   1.584 -0.0186 -1.0026 -0.8745
17503TIP3   OH273999   2.002   1.393   0.022 -0.0060 -0.1808 -0.1006
17503TIP3    H174000   1.954   1.345   0.089  1.1175 -1.2245 -0.0050
17503TIP3    H274001   1.958   1.478   0.016 -1.2862 -0.7712  0.5986
17504TIP3   OH274002   2.700   3.299  16.606  0.2739 -0.3800 -0.3566
17504TIP3    H174003   2.671   3.388  16.588  0.0339 -0.5967 -1.0783
17504TIP3    H274004   2.783   3.309  16.653  0.2793  0.2175 -0.4925
17505TIP3   OH274005   6.658   4.826  15.936 -0.0732 -0.3920  0.2134
17505TIP3    H174006   6.608   4.863  15.863 -0.4445 -0.3480  0.4883
17505TIP3    H274007   6.631   4.734  15.939  0.1615 -0.4642  0.1120
17506TIP3   OH274008   6.585   1.659  15.804  0.5575  0.1317 -0.3286
17506TIP3    H174009   6.574   1.601  15.729 -0.3831  1.1063 -0.9762
17506TIP3    H274010   6.508   1.641  15.859 -0.2193  1.3681 -0.9742
17507TIP3   OH274011   0.542   2.496  11.733  0.3104 -0.4064 -0.3196
17507TIP3    H174012   0.587   2.458  11.657 -0.8177 -0.7600 -0.8361
17507TIP3    H274013   0.458   2.526  11.699 -0.4631 -1.0883  0.8805
17508TIP3   OH274014   3.054   2.319  15.483 -0.5323  0.0268 -0.1991
17508TIP3    H174015   2.959   2.306  15.478 -0.6112  0.5749 -0.2011
17508TIP3    H274016   3.088   2.279  15.403 -0.8423  0.5198 -0.5843
17509TIP3   OH274017   4.515   6.170  13.242 -0.3558 -0.1041  0.3560
17509TIP3    H174018   4.541   6.220  13.164  0.5568 -2.5988 -1.0414
17509TIP3    H274019   4.448   6.224  13.284 -0.3321  1.6794 -1.7290
17510TIP3   OH274020   0.688   5.484   4.324 -0.0276 -0.0371 -0.4227
17510TIP3    H174021   0.620   5.537   4.364 -0.5755 -1.0451  0.0171
17510TIP3    H274022   0.705   5.414   4.388  1.1120 -0.0548 -0.7136
17511TIP3   OH274023   5.442   3.054   5.466  0.5102  0.3524 -0.6066
17511TIP3    H174024   5.478   2.969   5.490  2.1112  1.0792 -0.2620
17511TIP3    H274025   5.397   3.040   5.384  1.2741 -0.7157 -0.8568
17512TIP3   OH274026   1.428   5.519   2.641 -0.3001 -0.1957  0.1579
17512TIP3    H174027   1.504   5.472   2.676  0.5042 -0.3887 -1.7076
17512TIP3    H274028   1.368   5.527   2.715  0.5002 -2.1940  1.0929
17513TIP3   OH274029   5.197   5.648   5.207  0.0868  0.4660 -0.1322
17513TIP3    H174030   5.189   5.577   5.271 -2.7525  0.5645 -0.2285
17513TIP3    H274031   5.228   5.605   5.128 -0.0587 -0.3854  0.2563
17514TIP3   OH274032   4.861   4.488  14.880 -0.5444  0.2952 -0.0367
17514TIP3    H174033   4.928   4.553  14.860 -1.3312  0.6726 -1.5978
17514TIP3    H274034   4.778   4.535  14.872 -1.0690 -0.5665  0.1405
17515TIP3   OH274035   5.594   6.825   4.652 -0.1126  0.6413  0.1198
17515TIP3    H174036   5.547   6.901   4.617 -1.2201  0.0354  0.2399
17515TIP3    H274037   5.626   6.779   4.574  1.0191  1.4858  0.0606
17516TIP3   OH274038   2.568   0.486   3.859  0.1159  0.2857  0.4403
17516TIP3    H174039   2.510   0.490   3.783  0.3470  1.2193  0.3076
17516TIP3    H274040   2.560   0.396   3.891  0.5108 -0.3210 -1.0801
17517TIP3   OH274041   5.540   0.889  14.843 -0.4667 -0.1485 -0.9601
17517TIP3    H174042   5.605   0.819  14.838 -0.1820  0.1788 -2.1613
17517TIP3    H274043   5.456   0.844  14.850 -0.1701 -0.5812 -0.0320
17518TIP3   OH274044   0.726   6.382   3.535 -0.3907  0.3976  0.3992
17518TIP3    H174045   0.653   6.323   3.553  0.0854  0.5171  3.2229
17518TIP3    H274046   0.777   6.383   3.616  1.7926  1.6804 -0.8718
17519TIP3   OH274047   3.055   4.540  12.272 -0.0276  0.6537  0.5234
17519TIP3    H174048   3.062   4.573  12.183 -1.5957 -1.6313 -0.5406
17519TIP3    H274049   3.139   4.498  12.290  0.6020  1.8593  0.4926
17520TIP3   OH274050   6.581   0.656   4.612 -0.0126 -0.1563 -0.1753
17520TIP3    H174051   6.516   0.667   4.681 -0.8802 -1.1040 -0.8187
17520TIP3    H274052   6.532   0.670   4.530  0.9586  0.7852 -0.6127
17521TIP3   OH274053   4.305   5.494  13.848 -0.0588 -0.1936  0.4146
17521TIP3    H174054   4.332   5.425  13.787  0.3104  1.0365 -0.8789
17521TIP3    H274055   4.216   5.471  13.874 -1.5770  0.9107 -3.2426
17522TIP3   OH274056   2.380   4.653  11.440  0.1228 -0.3878  0.1353
17522TIP3    H174057   2.425   4.594  11.380  1.2498 -1.3909  1.8574
17522TIP3    H274058   2.363   4.731  11.389  1.1352 -1.1457 -1.4407
17523TIP3   OH274059   6.225   4.124   2.751  0.5246  0.3708 -0.0811
17523TIP3    H174060   6.243   4.218   2.748  0.4276  0.3660 -0.7636
17523TIP3    H274061   6.235   4.101   2.844 -2.6876  1.6859  0.7142
17524TIP3   OH274062   4.904   3.434  11.731 -0.0015  0.5402 -0.4650
17524TIP3    H174063   4.832   3.394  11.683 -0.0139 -0.2080  0.1683
17524TIP3    H274064   4.866   3.458  11.815  0.8872 -1.4830  0.5754
17525TIP3   OH274065   4.062   1.540   4.694 -0.1141 -0.3844  0.1244
17525TIP3    H174066   4.063   1.617   4.637 -2.1649  0.9836  1.7787
17525TIP3    H274067   4.147   1.540   4.738 -0.2655  1.2755  0.4603
17526TIP3   OH274068   6.038   1.504  11.103 -0.2215  0.2006  0.0640
17526TIP3    H174069   5.971   1.571  11.086 -0.7285 -0.4667 -0.6147
17526TIP3    H274070   6.111   1.553  11.142 -0.5884  1.1440 -0.3949
17527TIP3   OH274071   1.374   6.372  12.223  0.4641  0.5550  0.4083
17527TIP3    H174072   1.314   6.320  12.170  1.2386 -0.3181  0.3486
17527TIP3    H274073   1.379   6.325  12.306  1.8992 -0.0263  0.0279
17528TIP3   OH274074   0.465   2.982  15.566 -0.1984 -0.0653  0.2372
17528TIP3    H174075   0.532   2.926  15.604 -1.2597 -1.6437 -0.0952
17528TIP3    H274076   0.423   3.025  15.641  0.3895  0.0131  0.5248
17529TIP3   OH274077   5.531   1.836   3.275 -0.2962 -0.7751 -0.7880
17529TIP3    H174078   5.473   1.878   3.211 -1.3086 -0.6105  0.2105
17529TIP3    H274079   5.591   1.784   3.222  1.4907  2.3984 -2.1485
17530TIP3   OH274080   5.153   4.748  15.960 -0.2635 -0.0553  0.3044
17530TIP3    H174081   5.170   4.654  15.956  0.3755  0.0338  0.7616
17530TIP3    H274082   5.167   4.778  15.870  3.9804  0.2960  0.8465
17531TIP3   OH274083   4.863   4.020   2.402  0.1651 -0.2097 -0.3490
17531TIP3    H174084   4.927   4.047   2.335 -0.7773 -0.2647 -1.3093
17531TIP3    H274085   4.783   4.004   2.352 -0.6411  0.0067  0.8520
17532TIP3   OH274086   2.786   6.475   5.244  0.2142  0.2955 -0.1127
17532TIP3    H174087   2.767   6.418   5.319 -1.0799  1.0656  0.1809
17532TIP3    H274088   2.702   6.482   5.198  0.5417  1.3714 -0.5636
17533TIP3   OH274089   1.086   1.476  12.939 -0.3153  0.0147  0.4876
17533TIP3    H174090   0.998   1.453  12.908 -0.7661  0.1192  1.6481
17533TIP3    H274091   1.100   1.565  12.907 -0.6300 -0.0065  0.2859
17534TIP3   OH274092   5.132   2.118   1.762 -0.2064  0.2696  0.0124
17534TIP3    H174093   5.196   2.157   1.822  1.4222 -2.6789  0.4052
17534TIP3    H274094   5.181   2.048   1.718 -3.0294 -1.7980 -0.0775
17535TIP3   OH274095   4.322   1.431  11.045 -0.1752 -0.1287  0.5413
17535TIP3    H174096   4.267   1.447  11.121 -2.2587 -0.0318 -0.9166
17535TIP3    H274097   4.380   1.360  11.072 -1.4619 -0.6993  1.9215
17536TIP3   OH274098   3.657   0.733   2.806 -0.0975  0.3657 -0.2177
17536TIP3    H174099   3.743   0.713   2.844 -0.5425  1.2098  1.3273
17536TIP3    H274100   3.594   0.705   2.873 -1.1166 -1.4478 -1.8722
17537TIP3   OH274101   6.647   0.553  16.575  0.5882  0.0168 -0.0414
17537TIP3    H174102   6.602   0.473  16.548 -0.6384  0.4804  0.5565
17537TIP3    H274103   6.596   0.586  16.648 -0.2576  2.5387 -1.6505
17538TIP3   OH274104   5.821   3.037   1.071 -0.2853 -0.2454  0.1858
17538TIP3    H174105   5.894   3.017   1.011 -0.8148 -0.6577 -0.3365
17538TIP3    H274106   5.863   3.065   1.152  0.4554 -0.4919 -0.1075
17539TIP3   OH274107   2.790   6.730   2.936 -0.2136  0.2171  0.0166
17539TIP3    H174108   2.807   6.759   3.025  1.4974  0.3534 -0.3153
17539TIP3    H274109   2.831   6.643   2.930 -1.2785 -0.2854 -0.3291
17540TIP3   OH274110   5.647   0.378  10.965  0.8927  0.2473  0.0950
17540TIP3    H174111   5.583   0.373  10.894 -0.8881  2.2294  1.4342
17540TIP3    H274112   5.710   0.443  10.936  1.3679 -0.4599 -0.5029
17541TIP3   OH274113   3.896   6.195  14.968 -0.1193  0.5252  0.1542
17541TIP3    H174114   3.980   6.182  15.012  0.2645  1.0305 -0.4028
17541TIP3    H274115   3.911   6.164  14.878 -0.3738  1.0631 -0.0795
17542TIP3   OH274116   1.915   6.002   4.683  0.0981 -0.6690  0.0003
17542TIP3    H174117   1.921   5.911   4.712  1.1015 -0.6694 -0.1896
17542TIP3    H274118   1.954   6.053   4.754 -0.3534 -0.3839  0.0538
17543TIP3   OH274119   6.754   3.288   0.907  0.3093  0.1905  0.3034
17543TIP3    H174120   6.768   3.345   0.831  1.5544  0.1254  0.4621
17543TIP3    H274121   6.817   3.217   0.896 -0.9867 -1.0046  0.2953
17544TIP3   OH274122   0.990   1.422  13.467  0.0308  0.5761 -0.5112
17544TIP3    H174123   1.030   1.423  13.380 -1.3725  3.0543 -1.2319
17544TIP3    H274124   0.896   1.426  13.451 -0.2797  0.5756  1.1182
17545TIP3   OH274125   4.942   6.067  15.829 -0.1844 -0.1960  0.0429
17545TIP3    H174126   4.907   6.119  15.901 -0.1701 -1.4937  1.0245
17545TIP3    H274127   4.868   6.057  15.769  0.0764  1.7379 -0.6723
17546TIP3   OH274128   5.014   0.478  16.624 -0.1344  0.0343 -0.2164
17546TIP3    H174129   5.028   0.565  16.659  0.7405 -1.1747  2.7799
17546TIP3    H274130   5.097   0.432  16.639 -1.4663 -2.1298  1.1766
17547TIP3   OH274131   0.508   0.795   1.871 -0.2035 -0.0570 -0.0266
17547TIP3    H174132   0.509   0.707   1.833  0.5950 -0.3480  0.6533
17547TIP3    H274133   0.580   0.841   1.828 -0.0345 -0.0261  0.2879
17548TIP3   OH274134   1.633   0.897  11.323  0.0159 -0.3161 -0.2920
17548TIP3    H174135   1.582   0.861  11.395  2.1469  0.3170  1.6356
17548TIP3    H274136   1.586   0.977  11.298 -0.5371 -0.3389  0.6379
17549TIP3   OH274137   4.541   3.136   1.249  0.0952  0.2900  0.5847
17549TIP3    H174138   4.602   3.074   1.289 -0.5061  0.0664  1.1650
17549TIP3    H274139   4.588   3.168   1.171  0.7367 -0.2754  0.7242
17550TIP3   OH274140   1.696   4.135  10.967  0.3344  0.1587  0.1277
17550TIP3    H174141   1.617   4.160  11.014 -0.0591  0.5434 -0.7175
17550TIP3    H274142   1.679   4.046  10.936 -0.2974  0.6813 -1.1134
17551TIP3   OH274143   6.516   2.959   5.715  0.7118  0.5123 -0.2792
17551TIP3    H174144   6.564   2.968   5.633  0.1360  0.4856 -0.6249
17551TIP3    H274145   6.553   2.881   5.756  0.7481  0.3080 -0.6928
17552TIP3   OH274146   2.448   0.505  16.739 -0.1733 -0.1183  0.0505
17552TIP3    H174147   2.474   0.451  16.813  1.3781  0.3060 -0.1503
17552TIP3    H274148   2.355   0.521  16.752 -0.7645 -2.9843  0.0239
17553TIP3   OH274149   0.510   0.270  13.534  0.5969  0.1526  0.2252
17553TIP3    H174150   0.427   0.284  13.488  0.8410  1.3417  0.1097
17553TIP3    H274151   0.554   0.202  13.483  0.4375  0.7511 -0.7446
17554TIP3   OH274152   5.257   2.618  15.765 -0.1972 -0.1007 -0.6535
17554TIP3    H174153   5.162   2.612  15.774 -0.3420 -0.1219 -2.0787
17554TIP3    H274154   5.277   2.570  15.685  0.9660  0.3069 -0.6231
17555TIP3   OH274155   1.373   1.616   2.599  0.0679  0.0753 -0.1443
17555TIP3    H174156   1.318   1.685   2.637 -0.3983 -0.3202 -0.0902
17555TIP3    H274157   1.461   1.634   2.633  0.3781  1.8052 -1.6657
17556TIP3   OH274158   4.702   6.072  16.436  0.1961  0.1514 -0.1100
17556TIP3    H174159   4.642   6.093  16.509 -1.0922 -0.9113 -0.8126
17556TIP3    H274160   4.721   5.979  16.448  2.4261  0.6396  0.5599
17557TIP3   OH274161   5.555   5.229  13.495 -0.1869  0.6696 -0.2130
17557TIP3    H174162   5.606   5.209  13.416  0.1343  0.1595  0.1146
17557TIP3    H274163   5.606   5.295  13.541 -0.1246  0.6007 -0.1837
17558TIP3   OH274164   4.305   1.436  13.575  0.5373 -0.1152  0.3533
17558TIP3    H174165   4.400   1.436  13.589  0.5564  0.1888  0.2222
17558TIP3    H274166   4.274   1.359  13.623  0.8855 -0.3773  0.1723
17559TIP3   OH274167   6.687   6.081  13.304  0.1175 -0.3614 -0.0599
17559TIP3    H174168   6.691   6.149  13.370 -0.2572 -0.0934 -0.3056
17559TIP3    H274169   6.774   6.041  13.304  0.7646  0.9903 -0.8381
17560TIP3   OH274170   0.955   5.054   4.738 -0.0194  0.4680 -0.0926
17560TIP3    H174171   1.050   5.043   4.739  0.0114  0.6387 -0.8839
17560TIP3    H274172   0.923   4.988   4.799  0.5505 -0.1261 -0.4255
17561TIP3   OH274173   5.711   4.676  12.957 -0.2448 -0.1562 -0.1162
17561TIP3    H174174   5.655   4.606  12.924 -1.1778  0.1009  0.8958
17561TIP3    H274175   5.660   4.756  12.947  0.5716  0.3159 -0.6772
17562TIP3   OH274176   5.744   0.448  14.943  0.0202 -0.3816 -0.2317
17562TIP3    H174177   5.677   0.478  15.004  0.6503 -0.3861  0.4750
17562TIP3    H274178   5.696   0.432  14.861 -0.4996  1.5909 -0.3698
17563TIP3   OH274179   0.097   0.583   3.802  0.6951 -0.4832  0.1434
17563TIP3    H174180   0.148   0.629   3.735  1.9559 -0.6699  0.9453
17563TIP3    H274181   0.136   0.611   3.885 -0.7092 -0.4171  0.8041
17564TIP3   OH274182   4.738   5.587   2.417 -0.2874 -0.0259 -0.1975
17564TIP3    H174183   4.672   5.613   2.481  0.1945 -0.0866  0.3343
17564TIP3    H274184   4.694   5.595   2.332 -1.7289 -2.2233  0.2518
17565TIP3   OH274185   3.088   3.496   1.684  0.3485  0.2005 -0.1123
17565TIP3    H174186   3.058   3.465   1.599  0.5137  0.2135 -0.1776
17565TIP3    H274187   3.172   3.539   1.665  0.1361  0.6541 -0.0181
17566TIP3   OH274188   6.136   0.532   2.890 -0.1302  0.2434  0.0347
17566TIP3    H174189   6.180   0.480   2.958 -0.1301 -0.6839 -0.6563
17566TIP3    H274190   6.206   0.580   2.847 -0.2371  1.6743  1.3460
17567TIP3   OH274191   2.384   2.935  12.452 -0.2814 -0.1634 -0.2912
17567TIP3    H174192   2.371   2.900  12.541 -0.2394 -1.0815 -0.6299
17567TIP3    H274193   2.451   2.877  12.414  1.2035  1.4441 -0.2489
17568TIP3   OH274194   4.995   4.000  11.105  0.5103  0.7671 -0.7678
17568TIP3    H174195   5.030   3.949  11.031  0.0909  0.1009 -0.5172
17568TIP3    H274196   4.907   4.025  11.077 -0.0798 -0.4237 -0.0854
17569TIP3   OH274197   4.150   0.637  14.618  0.0297 -0.4839 -0.8632
17569TIP3    H174198   4.170   0.728  14.637  2.3277 -1.1127  0.0848
17569TIP3    H274199   4.066   0.621  14.660 -0.0666  0.9892 -0.4396
17570TIP3   OH274200   0.635   2.749  14.201  0.5575  0.2438 -0.1320
17570TIP3    H174201   0.728   2.724  14.199  0.4329 -0.3495  0.7783
17570TIP3    H274202   0.606   2.724  14.289 -0.7882 -0.7371 -0.8320
17571TIP3   OH274203   4.519   0.691   3.678  0.5142  0.0579 -0.0584
17571TIP3    H174204   4.613   0.674   3.689  0.1807 -0.3600  3.0013
17571TIP3    H274205   4.504   0.774   3.723 -0.4629  0.6356 -1.3788
17572TIP3   OH274206   2.015   5.932  12.546 -0.1137  0.1246  0.3676
17572TIP3    H174207   2.036   5.984  12.624  0.3339 -2.0756  1.7897
17572TIP3    H274208   1.928   5.961  12.520  0.3741  2.0228  0.6839
17573TIP3   OH274209   0.989   0.353  15.082 -0.3639  0.4429 -0.1964
17573TIP3    H174210   1.080   0.382  15.093 -0.8660  1.6900  0.9192
17573TIP3    H274211   0.961   0.329  15.170 -0.1187 -3.2819 -0.9509
17574TIP3   OH274212   2.638   5.120  15.853 -0.2680 -0.2551 -0.2260
17574TIP3    H174213   2.606   5.157  15.771 -0.4720 -0.6938 -0.3449
17574TIP3    H274214   2.568   5.063  15.883 -0.2441 -0.0068  0.3194
17575TIP3   OH274215   2.861   5.578  15.828 -0.2808  0.8987  0.1563
17575TIP3    H174216   2.821   5.510  15.883  0.1230 -0.1419 -0.7983
17575TIP3    H274217   2.904   5.637  15.890  0.5953 -0.5171  0.9456
17576TIP3   OH274218   2.043   6.356  12.028 -0.2569  0.0797 -0.0941
17576TIP3    H174219   1.970   6.302  11.997  0.0390  0.3090 -1.2320
17576TIP3    H274220   2.012   6.446  12.019 -1.0461  0.1555  2.5400
17577TIP3   OH274221   5.784   0.451  16.012  1.1223 -0.0801  0.8840
17577TIP3    H174222   5.702   0.490  15.984  1.9264  1.5993  0.7396
17577TIP3    H274223   5.820   0.512  16.076  3.3892  0.5330 -0.8235
17578TIP3   OH274224   4.016   3.805   5.769  0.4571 -0.5322  0.3292
17578TIP3    H174225   3.927   3.815   5.804 -0.1189  1.8027 -1.5699
17578TIP3    H274226   4.064   3.880   5.805  0.9369 -0.3489 -0.6841
17579TIP3   OH274227   5.836   3.359  11.458 -0.1712  0.3881  0.4116
17579TIP3    H174228   5.752   3.317  11.477 -0.4737  1.0677  0.6034
17579TIP3    H274229   5.854   3.336  11.367 -0.8668  0.7361  0.1801
17580TIP3   OH274230   1.186   4.221   2.853  0.1598  0.5173  0.0633
17580TIP3    H174231   1.236   4.162   2.797  0.0548 -0.2780  0.7955
17580TIP3    H274232   1.206   4.193   2.943 -2.6695 -0.7606  0.3829
17581TIP3   OH274233   3.413   4.926   5.198  0.2293  0.1075 -0.0863
17581TIP3    H174234   3.506   4.923   5.223  0.6958 -1.2482 -1.7819
17581TIP3    H274235   3.396   5.018   5.179  1.1601  0.4122  0.4894
17582TIP3   OH274236   0.161   3.349   0.454 -0.1749 -0.9551 -0.0186
17582TIP3    H174237   0.254   3.326   0.449 -0.1241 -1.0189  0.9545
17582TIP3    H274238   0.125   3.322   0.370  1.0549  0.8175 -1.1868
17583TIP3   OH274239   0.873   1.243   1.796  0.0609 -0.0879  0.2517
17583TIP3    H174240   0.781   1.249   1.770  0.0113 -0.1671  0.4114
17583TIP3    H274241   0.908   1.172   1.742  0.4717  1.1052 -1.1160
17584TIP3   OH274242   3.106   4.394  13.158 -0.2806 -0.4519  0.5426
17584TIP3    H174243   3.053   4.384  13.237 -0.0645  1.2882  0.9353
17584TIP3    H274244   3.173   4.457  13.182 -0.5753  0.5928 -1.2007
17585TIP3   OH274245   3.614   5.108  15.657 -0.1119 -0.2902 -0.2012
17585TIP3    H174246   3.523   5.134  15.671  0.4352  0.5242  2.4119
17585TIP3    H274247   3.665   5.186  15.680  1.3167 -1.3040  0.2302
17586TIP3   OH274248   5.342   6.460   0.698  0.2865 -0.3465 -0.3482
17586TIP3    H174249   5.427   6.429   0.730 -0.2601 -0.4792  1.0434
17586TIP3    H274250   5.308   6.513   0.770 -0.8631 -0.3875 -0.8513
17587TIP3   OH274251   0.747   4.862   3.233 -0.5077  0.2921 -0.4084
17587TIP3    H174252   0.695   4.936   3.200  0.5480  1.8155  1.1612
17587TIP3    H274253   0.836   4.881   3.203 -0.3505 -0.7586 -0.6189
17588TIP3   OH274254   6.695   3.568  16.281  0.4326 -0.3892 -0.0423
17588TIP3    H174255   6.628   3.530  16.338  1.6817 -1.7972  0.5576
17588TIP3    H274256   6.761   3.603  16.341 -0.0871  1.6977 -0.6121
17589TIP3   OH274257   2.263   3.706  13.628 -0.4699 -0.2371 -0.0172
17589TIP3    H174258   2.185   3.717  13.683 -0.1448  0.7130  0.2684
17589TIP3    H274259   2.231   3.665  13.548 -1.2013 -0.1955  0.2505
17590TIP3   OH274260   3.461   0.199   3.957 -0.3381 -0.5351  0.0158
17590TIP3    H174261   3.387   0.258   3.944 -2.1184 -1.3803  4.3235
17590TIP3    H274262   3.432   0.115   3.920 -0.7232 -0.3681 -0.0638
17591TIP3   OH274263   6.224   4.252   4.959  0.8140  0.5506 -0.0021
17591TIP3    H174264   6.276   4.263   4.880  1.6649  0.0726  0.4766
17591TIP3    H274265   6.217   4.340   4.995  0.9762  0.6734 -0.2655
17592TIP3   OH274266   5.079   5.727   4.585 -0.1702 -0.1964  0.2095
17592TIP3    H174267   5.004   5.786   4.590  0.2313  0.6568 -2.2111
17592TIP3    H274268   5.044   5.647   4.547  0.1121  0.3173 -1.2388
17593TIP3   OH274269   6.705   5.679  12.980  0.0162 -0.1953  0.0440
17593TIP3    H174270   6.703   5.682  13.075  1.6498  2.4873  0.0912
17593TIP3    H274271   6.650   5.752  12.952  0.6271 -0.1173 -1.0287
17594TIP3   OH274272   3.981   3.429  16.303  0.3746 -0.0135 -0.0924
17594TIP3    H174273   3.900   3.465  16.341  1.0780  0.1950  1.2694
17594TIP3    H274274   3.952   3.385  16.223 -0.9240  1.0684 -0.2618
17595TIP3   OH274275   0.665   2.187   6.407  0.3695  0.3127 -0.5971
17595TIP3    H174276   0.645   2.120   6.473 -0.1619  1.1470  0.1031
17595TIP3    H274277   0.663   2.139   6.324  0.5449 -0.6549 -0.0695
17596TIP3   OH274278   2.221   2.925   0.249 -0.3543  0.3150  0.2674
17596TIP3    H174279   2.152   2.903   0.186  0.2067 -1.1684  0.1432
17596TIP3    H274280   2.249   2.841   0.284 -0.1702  1.0708  2.0140
17597TIP3   OH274281   2.687   0.562   2.863  0.5501 -0.4259  0.2132
17597TIP3    H174282   2.669   0.636   2.805  0.9174 -1.0335 -0.6997
17597TIP3    H274283   2.783   0.554   2.863  0.5964 -0.0779  1.3764
17598TIP3   OH274284   4.447   5.328   6.231 -0.2377  0.2843  0.1382
17598TIP3    H174285   4.487   5.265   6.291  1.4092  2.6794  1.7429
17598TIP3    H274286   4.363   5.290   6.208  0.9498 -2.7974  0.4236
17599TIP3   OH274287   0.348   1.888  14.870  0.8825  0.3631 -0.5910
17599TIP3    H174288   0.334   1.969  14.919  0.3313 -0.0729  0.0015
17599TIP3    H274289   0.341   1.913  14.778 -1.1152  0.7064 -0.3999
17600TIP3   OH274290   1.675   0.449   0.527 -0.0013  0.3091  0.7156
17600TIP3    H174291   1.639   0.438   0.440  1.8463 -2.9896  0.2181
17600TIP3    H274292   1.669   0.363   0.568  1.2923  1.1918  2.9883
17601TIP3   OH274293   4.720   1.368   5.777 -0.2542 -0.3293  0.4709
17601TIP3    H174294   4.714   1.285   5.825 -4.6949 -0.0534  0.7885
17601TIP3    H274295   4.645   1.418   5.808  0.9443  2.9230 -1.4572
17602TIP3   OH274296   6.256   2.982  12.642  0.1005 -0.0887 -0.3293
17602TIP3    H174297   6.309   3.045  12.593  1.6280 -1.6724 -0.8184
17602TIP3    H274298   6.271   2.899  12.598 -1.8389 -0.8444  0.3061
17603TIP3   OH274299   4.427   6.003   5.802  0.1746  0.3548  0.4538
17603TIP3    H174300   4.458   5.976   5.888 -0.8145  0.0901  0.7431
17603TIP3    H274301   4.462   6.091   5.789  0.5823  0.2714  0.9874
17604TIP3   OH274302   2.025   3.942   5.972 -0.5835  0.0487 -0.4874
17604TIP3    H174303   2.091   3.942   5.903  0.6715 -0.6901  0.6647
17604TIP3    H274304   2.000   3.850   5.981 -1.0509  0.1963 -0.2197
17605TIP3   OH274305   0.111   1.594   0.376  0.5518 -0.1706  0.3268
17605TIP3    H174306   0.159   1.628   0.452 -1.2692  2.2259  0.5218
17605TIP3    H274307   0.041   1.658   0.362 -0.7765 -1.9728 -1.7514
17606TIP3   OH274308   5.536   2.757  14.127 -0.1757  0.2023  0.7613
17606TIP3    H174309   5.610   2.702  14.102 -0.8626 -0.8972  1.0838
17606TIP3    H274310   5.475   2.751  14.053 -0.6111 -0.1314  1.1451
17607TIP3   OH274311   1.772   4.906   3.564  0.0548 -0.2096  0.1488
17607TIP3    H174312   1.785   4.850   3.639  0.1588 -0.9490 -0.4141
17607TIP3    H274313   1.689   4.876   3.525  1.1788 -1.4472 -1.4056
17608TIP3   OH274314   5.312   2.303   1.912 -0.1397  0.1359 -0.4573
17608TIP3    H174315   5.398   2.341   1.899 -0.6744  0.7259 -2.5976
17608TIP3    H274316   5.269   2.361   1.976  0.6819  0.3981 -0.1379
17609TIP3   OH274317   5.951   4.840   5.062  0.4382 -0.5315  0.3399
17609TIP3    H174318   5.953   4.778   4.989 -2.6478  1.0292 -1.2493
17609TIP3    H274319   5.942   4.785   5.140  0.1445 -2.1455 -0.7873
17610TIP3   OH274320   6.189   4.068  13.002  0.0084  0.4620 -0.6964
17610TIP3    H174321   6.182   3.984  13.047  1.5738  0.3927 -0.5013
17610TIP3    H274322   6.226   4.127  13.067  1.4585  0.5884 -1.5778
17611TIP3   OH274323   4.199   3.366  12.924  0.3570 -0.0523 -0.3468
17611TIP3    H174324   4.187   3.344  13.016 -0.5446 -1.8970 -0.8626
17611TIP3    H274325   4.235   3.455  12.925  1.0756 -0.3157  1.7849
17612TIP3   OH274326   0.190   1.117   1.169  0.3513 -0.5732  0.4563
17612TIP3    H174327   0.278   1.154   1.169 -0.4552  1.4995  1.1368
17612TIP3    H274328   0.204   1.022   1.173  2.5285 -0.3162  0.3567
17613TIP3   OH274329   0.996   1.121  12.846  0.2227 -0.2853 -0.2376
17613TIP3    H174330   1.057   1.194  12.832 -0.0581  0.9057  3.5885
17613TIP3    H274331   1.048   1.043  12.829  2.0847  0.7460  0.3644
17614TIP3   OH274332   2.668   6.455  16.993 -0.1318  0.5135 -0.2680
17614TIP3    H174333   2.660   6.366  17.026  0.3962  0.2535 -0.8195
17614TIP3    H274334   2.728   6.499  17.053  0.5325  0.1525 -0.6605
17615TIP3   OH274335   6.253   5.393   1.595  1.1759  0.4437 -0.1421
17615TIP3    H174336   6.229   5.482   1.571  0.5554 -0.2200 -2.2757
17615TIP3    H274337   6.255   5.346   1.511  1.2627 -1.5877  0.9374
17616TIP3   OH274338   4.828   2.890  12.545  0.6506 -0.3342 -0.0412
17616TIP3    H174339   4.790   2.918  12.462  2.6978 -0.0246 -0.9377
17616TIP3    H274340   4.886   2.961  12.571  1.0904 -1.0207  0.9315
17617TIP3   OH274341   4.866   3.107   5.396 -0.0596 -0.2551  0.3006
17617TIP3    H174342   4.886   3.071   5.310  2.1077  0.5755  0.3957
17617TIP3    H274343   4.950   3.136   5.431 -1.0097  0.3279  2.3027
17618TIP3   OH274344   2.804   6.743  16.678  0.4495  0.2553 -0.1652
17618TIP3    H174345   2.837   6.778  16.595 -3.0297 -2.5393 -3.0310
17618TIP3    H274346   2.853   6.661  16.690 -0.1051 -0.1011 -0.3092
17619TIP3   OH274347   0.773   5.077  10.943 -0.4180 -0.3839 -0.1042
17619TIP3    H174348   0.699   5.120  10.900 -2.3891 -2.8499  0.5433
17619TIP3    H274349   0.786   4.996  10.893  2.6141  0.4334 -0.8215
17620TIP3   OH274350   0.862   4.620   6.184 -0.1646 -0.0341 -0.2533
17620TIP3    H174351   0.873   4.634   6.278 -0.4720 -0.7614 -0.1023
17620TIP3    H274352   0.786   4.673   6.161  0.2574  0.6048 -0.2134
17621TIP3   OH274353   3.487   6.281  14.630 -0.6033  0.2788 -0.5898
17621TIP3    H174354   3.486   6.311  14.539 -0.3588  0.7236 -0.4479
17621TIP3    H274355   3.575   6.302  14.661 -1.1024  1.3839  0.1626
17622TIP3   OH274356   4.069   3.067   0.500 -0.5982 -0.3813 -0.4356
17622TIP3    H174357   4.130   3.140   0.512 -1.3465  0.3634 -1.0123
17622TIP3    H274358   4.124   2.989   0.500  0.1135  0.0906  1.1600
17623TIP3   OH274359   3.913   4.495   3.360  0.1153  0.6951  0.1988
17623TIP3    H174360   3.974   4.557   3.401  0.3972  0.6346 -0.1221
17623TIP3    H274361   3.827   4.521   3.393  0.4928 -0.4339  2.1808
17624TIP3   OH274362   3.311   5.999   5.321 -0.8597  0.8560 -0.3566
17624TIP3    H174363   3.306   6.060   5.247  2.1522  0.1019 -1.2980
17624TIP3    H274364   3.385   6.030   5.373  1.3524 -2.3415 -1.3244
17625TIP3   OH274365   0.072   1.931  11.571 -0.2514  0.3174 -0.0266
17625TIP3    H174366   0.117   1.917  11.655 -1.9466  1.4817  1.1391
17625TIP3    H274367   0.143   1.948  11.509  0.9764  1.5607  1.6150
17626TIP3   OH274368   5.667   4.685  16.916  0.2379 -0.0735 -0.4703
17626TIP3    H174369   5.630   4.773  16.925  0.1369 -0.2299  1.0178
17626TIP3    H274370   5.645   4.642  16.999 -1.3843 -2.1644 -1.8845
17627TIP3   OH274371   5.787   3.402  16.192 -0.4230  0.7658 -0.0283
17627TIP3    H174372   5.831   3.471  16.241  0.1600  0.5251 -0.1955
17627TIP3    H274373   5.790   3.433  16.101  0.8866  0.0134 -0.2747
17628TIP3   OH274374   5.970   1.428  14.280  0.1123 -0.0560  0.9797
17628TIP3    H174375   6.056   1.394  14.308 -0.1004 -1.2252  0.2710
17628TIP3    H274376   5.961   1.511  14.327  1.7660  0.2378  0.8412
17629TIP3   OH274377   5.537   2.991   2.015  0.1881  0.0949 -0.4142
17629TIP3    H174378   5.625   3.015   1.986  0.1524  1.1404  0.2639
17629TIP3    H274379   5.552   2.922   2.080  0.6154  1.0430  0.5330
17630TIP3   OH274380   0.897   1.811   3.489  0.3128  0.3089 -0.0125
17630TIP3    H174381   0.825   1.773   3.440 -0.6426  0.8113  0.9563
17630TIP3    H274382   0.923   1.887   3.438 -0.3557  0.5533  0.0009
17631TIP3   OH274383   4.625   1.274   4.474  0.2560 -0.3446  0.4035
17631TIP3    H174384   4.595   1.183   4.465  0.6732 -0.5522  1.0593
17631TIP3    H274385   4.551   1.319   4.516 -0.3300 -0.1510 -0.7925
17632TIP3   OH274386   5.523   2.303  15.402 -0.1364 -0.0580  0.6091
17632TIP3    H174387   5.613   2.276  15.421  0.0923 -0.8451 -1.3756
17632TIP3    H274388   5.483   2.226  15.362 -1.3075  0.6905  0.3046
17633TIP3   OH274389   0.749   2.325  14.722  1.1532 -0.7522  0.0171
17633TIP3    H174390   0.840   2.301  14.738  1.8346  0.5840 -1.5754
17633TIP3    H274391   0.754   2.399  14.662 -0.9616  0.1909  0.8955
17634TIP3   OH274392   3.544   4.284   3.394  0.1631  0.0251 -0.3113
17634TIP3    H174393   3.552   4.225   3.469  0.4862  0.1681 -0.2352
17634TIP3    H274394   3.576   4.233   3.319  0.8233  0.2395 -0.1793
17635TIP3   OH274395   3.011   3.741   2.282  0.0712  0.0413 -0.6615
17635TIP3    H174396   3.104   3.758   2.296 -0.5464  3.5338 -0.0268
17635TIP3    H274397   2.977   3.724   2.370  0.0388 -1.0292 -0.8694
17636TIP3   OH274398   5.450   2.005   5.483  0.3002 -0.2138  0.1305
17636TIP3    H174399   5.406   2.062   5.547 -1.7796 -1.0656 -0.4452
17636TIP3    H274400   5.514   1.956   5.535 -0.3312  0.1419  1.2988
17637TIP3   OH274401   5.673   0.319   0.015 -0.3825  0.1062  0.0721
17637TIP3    H174402   5.656   0.312  -0.078 -1.9179  0.9576  0.2620
17637TIP3    H274403   5.605   0.266   0.057 -0.5194  0.7995  0.7484
17638TIP3   OH274404   0.849   5.942  10.614  0.0065  0.1918  0.4090
17638TIP3    H174405   0.945   5.943  10.611  0.0288  0.2894  0.9513
17638TIP3    H274406   0.825   6.030  10.643 -0.1518 -0.3394  2.0318
17639TIP3   OH274407   4.824   6.464   2.901 -0.1590  0.2318  0.0916
17639TIP3    H174408   4.884   6.518   2.850 -0.2113 -0.1198 -0.3497
17639TIP3    H274409   4.743   6.515   2.904  0.0003  0.4768  0.2512
17640TIP3   OH274410   4.738   1.866  11.349  0.3397  0.0223 -0.5595
17640TIP3    H174411   4.808   1.922  11.382  1.0039 -0.2587 -1.4695
17640TIP3    H274412   4.747   1.785  11.398  0.5814  0.0288 -0.5925
17641TIP3   OH274413   3.361   6.817  13.739  0.7199 -0.4697 -0.0096
17641TIP3    H174414   3.307   6.745  13.771  0.0814  0.1125  0.2489
17641TIP3    H274415   3.411   6.846  13.815  0.3113 -0.0603  0.1064
17642TIP3   OH274416   0.939   0.045  14.129 -0.4446 -0.4958  1.0126
17642TIP3    H174417   0.932  -0.050  14.143 -0.9454 -0.5679  0.3193
17642TIP3    H274418   0.991   0.076  14.203 -0.6631 -1.2493  1.4957
17643TIP3   OH274419   1.412   4.384   0.333 -0.5042  0.6928  0.1231
17643TIP3    H174420   1.346   4.412   0.270 -0.1384 -0.8194 -0.9916
17643TIP3    H274421   1.431   4.462   0.384 -0.1111  2.2885 -2.2848
17644TIP3   OH274422   2.033   1.420  12.158 -0.5027  0.3612  0.3456
17644TIP3    H174423   1.966   1.470  12.112 -0.7597 -0.5530 -0.3104
17644TIP3    H274424   1.984   1.350  12.203 -0.1204  0.4690  0.9323
17645TIP3   OH274425   6.472   1.675   2.302  0.3887  0.3602 -0.3475
17645TIP3    H174426   6.395   1.629   2.334 -0.2023  0.8820 -0.9684
17645TIP3    H274427   6.525   1.608   2.261 -0.2130  0.1356 -0.7816
17646TIP3   OH274428   6.409   3.436  14.131 -0.1719 -0.0892  0.2204
17646TIP3    H174429   6.407   3.383  14.052 -0.8104 -0.7875  0.6910
17646TIP3    H274430   6.502   3.439  14.156  0.1016  0.5475 -0.8061
17647TIP3   OH274431   5.369   0.973   6.223  0.5644  0.5759 -0.1822
17647TIP3    H174432   5.408   0.923   6.295 -1.3116  0.1727  0.6228
17647TIP3    H274433   5.289   1.010   6.260  0.9280  2.6307 -1.3270
17648TIP3   OH274434   2.287   0.430  12.598 -0.0425 -0.3171 -0.4825
17648TIP3    H174435   2.295   0.345  12.555  0.0834  0.4284 -1.9966
17648TIP3    H274436   2.351   0.485  12.553 -0.6086  0.7652  0.0189
17649TIP3   OH274437   1.889   3.881   1.911  0.9454  0.7043 -0.3751
17649TIP3    H174438   1.844   3.965   1.927 -2.5479 -0.6150 -2.1984
17649TIP3    H274439   1.869   3.829   1.989  0.3974  0.5506 -0.6146
17650TIP3   OH274440   2.034   1.002  11.918  0.5530  0.0287 -0.0274
17650TIP3    H174441   2.101   1.014  11.986 -1.0440  0.7572  1.5099
17650TIP3    H274442   2.043   1.079  11.862  1.5936 -0.3531 -0.4066
17651TIP3   OH274443   6.561   1.942   1.971 -0.1523 -0.3327  0.2535
17651TIP3    H174444   6.538   1.849   1.966 -0.6690 -0.2934  1.4859
17651TIP3    H274445   6.500   1.985   1.912 -0.9252 -0.6252  0.8164
17652TIP3   OH274446   3.594   5.759   0.299  0.6920 -0.4482 -0.2725
17652TIP3    H174447   3.518   5.811   0.271  0.2821  0.1115  1.7506
17652TIP3    H274448   3.568   5.668   0.283 -0.7960 -0.3229  1.1697
17653TIP3   OH274449   4.469   3.544  12.509  0.2874 -0.8272  0.4586
17653TIP3    H174450   4.462   3.471  12.447  2.3385 -0.1724 -0.6438
17653TIP3    H274451   4.438   3.620  12.459  1.1191 -0.4411  0.5212
17654TIP3   OH274452   4.520   0.456   0.730  0.7780 -0.2013  0.2858
17654TIP3    H174453   4.475   0.396   0.790 -0.0716 -0.6271 -0.7281
17654TIP3    H274454   4.568   0.398   0.671  0.3243  0.1166 -0.4087
17655TIP3   OH274455   4.746   1.650   3.247  0.1412 -0.1749 -0.5523
17655TIP3    H174456   4.779   1.715   3.185 -0.1211  0.5010 -0.0032
17655TIP3    H274457   4.820   1.635   3.306 -0.3674  1.0686  0.4601
17656TIP3   OH274458   5.967   3.299   3.335 -0.3258 -0.4435  0.0194
17656TIP3    H174459   5.895   3.250   3.375  0.3716  0.1079  2.0855
17656TIP3    H274460   5.988   3.367   3.398  1.7113 -0.3065 -0.7309
17657TIP3   OH274461   0.046   6.824  12.239  0.1027 -0.3856 -0.3158
17657TIP3    H174462   0.105   6.778  12.297  0.6804  2.3182  1.4405
17657TIP3    H274463  -0.015   6.870  12.297 -2.3400 -1.2806 -2.0157
17658TIP3   OH274464   3.745   6.738  16.027 -0.5566  0.0245  0.0935
17658TIP3    H174465   3.797   6.741  16.107 -1.9599  3.6644  1.0867
17658TIP3    H274466   3.673   6.677  16.047 -1.4511  1.6075  2.1129
17659TIP3   OH274467   4.602   4.067  11.263 -0.5110  0.4184  0.5082
17659TIP3    H174468   4.580   3.984  11.221  0.6811  0.1393  0.3764
17659TIP3    H274469   4.525   4.091  11.314 -0.5902 -1.1634  1.1549
17660TIP3   OH274470   1.101   1.064   3.913 -0.0885 -0.3808  0.3075
17660TIP3    H174471   1.170   1.124   3.884 -0.5382  0.0551  0.1113
17660TIP3    H274472   1.021   1.099   3.872 -0.3066 -1.2967 -0.0705
17661TIP3   OH274473   5.358   0.082  16.732 -0.3356 -0.1113  0.0152
17661TIP3    H174474   5.442   0.125  16.718 -0.0351 -0.3883  0.9056
17661TIP3    H274475   5.317   0.082  16.645  0.1090  0.9953 -0.2198
17662TIP3   OH274476   1.097   5.189  13.376  0.2807 -0.0028  0.2780
17662TIP3    H174477   1.133   5.172  13.463 -1.4273  0.7588  1.2015
17662TIP3    H274478   1.062   5.105  13.347 -1.4555  0.2289  1.5255
17663TIP3   OH274479   0.494   2.979   5.955  0.2751  0.1708  0.4158
17663TIP3    H174480   0.566   2.946   5.900  1.4921  0.2397  1.9038
17663TIP3    H274481   0.522   2.961   6.044 -1.1112  1.1577  1.0796
17664TIP3   OH274482   5.205   3.744   4.225  0.2483  0.5255  0.1473
17664TIP3    H174483   5.171   3.832   4.240  1.5118  1.0109  0.2898
17664TIP3    H274484   5.152   3.709   4.153 -1.6072  0.6206  1.4265
17665TIP3   OH274485   0.150   4.012  15.716  0.1869 -0.7449 -0.4497
17665TIP3    H174486   0.114   4.032  15.630 -0.6903  2.0878  0.4686
17665TIP3    H274487   0.244   4.007  15.703  0.1567  0.7427 -1.4156
17666TIP3   OH274488   5.520   3.371   4.092 -0.0709 -0.6952 -0.0047
17666TIP3    H174489   5.477   3.287   4.106 -1.3441  0.1177  1.3801
17666TIP3    H274490   5.458   3.435   4.128  2.6220  0.5063  3.0040
17667TIP3   OH274491   5.280   0.508  15.052 -0.4485  0.1185 -0.1398
17667TIP3    H174492   5.234   0.488  15.134  4.2194 -0.7285  2.6505
17667TIP3    H274493   5.272   0.429  14.999  2.1265 -2.3566  2.7322
17668TIP3   OH274494   3.143   3.642   3.890 -0.1896  0.3031 -0.3842
17668TIP3    H174495   3.139   3.641   3.795  1.3820  1.0124 -0.4962
17668TIP3    H274496   3.176   3.729   3.912 -0.9876  0.3279  0.8506
17669TIP3   OH274497   6.419   4.681  15.066  0.6091 -0.2903 -0.2748
17669TIP3    H174498   6.383   4.660  14.980 -0.4992  3.1954 -0.8229
17669TIP3    H274499   6.485   4.749  15.049  0.3107  0.5382  1.6142
17670TIP3   OH274500   6.830   4.006   3.012 -0.1785 -0.8095  0.0559
17670TIP3    H174501   6.889   4.076   2.983  0.2264 -1.3931 -0.5813
17670TIP3    H274502   6.885   3.948   3.064 -0.8671  0.1421  1.9479
17671TIP3   OH274503   4.380   4.359   1.931  0.9097  0.4314 -0.4125
17671TIP3    H174504   4.340   4.437   1.893  1.1741  0.5004 -0.5499
17671TIP3    H274505   4.466   4.387   1.960  1.4055 -0.0477 -1.3894
17672TIP3   OH274506   6.648   2.948   5.213 -0.0848  0.0584  0.0221
17672TIP3    H174507   6.708   3.022   5.199  0.1667 -0.1679 -0.1085
17672TIP3    H274508   6.611   2.931   5.127 -3.1370  2.5385  0.6873
17673TIP3   OH274509   4.461   2.161  11.316 -0.0822 -0.5717  0.1935
17673TIP3    H174510   4.546   2.178  11.358 -0.0969  1.1363 -0.3723
17673TIP3    H274511   4.474   2.189  11.226 -1.7973  1.7465  0.5642
17674TIP3   OH274512   1.434   1.861  14.237  0.9992  0.3160  0.0700
17674TIP3    H174513   1.342   1.835  14.228  1.2865 -0.1809 -1.8197
17674TIP3    H274514   1.474   1.789  14.285  0.7012 -0.2353 -0.4869
17675TIP3   OH274515   1.854   4.714  10.620  0.0144 -0.1674  0.5504
17675TIP3    H174516   1.882   4.654  10.550 -3.5726 -2.3594  0.7276
17675TIP3    H274517   1.786   4.768  10.579 -2.1908 -1.5195  2.1683
17676TIP3   OH274518   6.849   4.524  13.144  0.5494  0.1903  0.2292
17676TIP3    H174519   6.895   4.548  13.064 -1.8740 -0.1571 -1.3709
17676TIP3    H274520   6.756   4.528  13.121 -0.2381 -0.2826  2.9362
17677TIP3   OH274521   6.301   3.302   3.429 -0.3719  1.0796 -0.2659
17677TIP3    H174522   6.379   3.334   3.384  0.1678 -0.7849 -0.7294
17677TIP3    H274523   6.228   3.328   3.373  0.1982 -0.0989 -1.6140
17678TIP3   OH274524   0.516   5.092  11.920 -0.0812 -0.0071 -0.3575
17678TIP3    H174525   0.488   5.112  11.831 -0.2826  0.3928 -0.2053
17678TIP3    H274526   0.462   5.147  11.976  1.4034  1.2327 -0.0788
17679TIP3   OH274527   3.585   1.503   1.153 -0.2374 -0.1522  0.4612
17679TIP3    H174528   3.629   1.425   1.188  1.3365  0.6966  0.4437
17679TIP3    H274529   3.525   1.529   1.223 -1.2810 -1.7209  0.2181
17680TIP3   OH274530   3.102   3.285   3.980  0.2973  0.2391 -0.1720
17680TIP3    H174531   3.056   3.204   3.957 -1.0960  1.2936 -1.2030
17680TIP3    H274532   3.034   3.350   3.992  1.4598  1.7414 -1.2587
17681TIP3   OH274533   2.276   0.307   5.091  0.1769 -0.0575 -0.1539
17681TIP3    H174534   2.245   0.322   5.001 -3.0532 -1.2649  0.6236
17681TIP3    H274535   2.309   0.217   5.090 -0.2114 -0.2022 -0.0557
17682TIP3   OH274536   0.488   2.040   0.092 -0.2206 -0.3452 -0.2791
17682TIP3    H174537   0.564   2.020   0.037 -0.4458  0.2733 -0.8268
17682TIP3    H274538   0.487   2.136   0.097 -0.4433 -0.3808  0.4728
17683TIP3   OH274539   5.133   1.145   0.169 -0.0071  0.6959 -0.0130
17683TIP3    H174540   5.137   1.207   0.096  0.1932  0.8515  0.1257
17683TIP3    H274541   5.170   1.194   0.243 -1.3412  0.9631  0.5035
17684TIP3   OH274542   2.084   3.959  12.469 -0.0702 -0.3324  0.7709
17684TIP3    H174543   2.107   3.870  12.442  0.3402  0.1542 -0.5412
17684TIP3    H274544   1.990   3.957  12.483 -0.1632 -0.8049  0.0752
17685TIP3   OH274545   1.572   3.110  15.527  0.5833  0.4612 -0.3359
17685TIP3    H174546   1.588   3.203  15.509 -1.6042  1.1058  0.6256
17685TIP3    H274547   1.503   3.085  15.466  0.2677 -0.1630  0.2585
17686TIP3   OH274548   2.962   2.041  15.110 -0.2446  0.5280 -0.5751
17686TIP3    H174549   2.963   2.115  15.050 -0.9175  0.7998 -0.2646
17686TIP3    H274550   2.889   2.059  15.170 -0.5815 -0.5014 -0.6402
17687TIP3   OH274551   3.149   0.915   2.951 -0.0925 -0.3858  0.4750
17687TIP3    H174552   3.201   0.961   2.885  1.5306 -0.7966  1.4150
17687TIP3    H274553   3.063   0.904   2.911  0.2967  1.0188 -0.8321
17688TIP3   OH274554   3.569   6.781  11.229  0.0989 -0.2526  0.7581
17688TIP3    H174555   3.595   6.800  11.139  0.6558 -0.3173  0.9018
17688TIP3    H274556   3.482   6.741  11.221  0.0056  0.0328  0.2763
17689TIP3   OH274557   5.084   2.080  15.011 -0.2671  0.4980 -0.0560
17689TIP3    H174558   5.146   2.026  15.060 -0.4757 -0.0649 -0.4092
17689TIP3    H274559   5.066   2.154  15.069 -0.6644 -0.2592  0.8128
17690TIP3   OH274560   6.055   5.889   2.304 -0.5519 -0.1482  0.3615
17690TIP3    H174561   6.122   5.865   2.367  0.5337 -2.3757 -1.4746
17690TIP3    H274562   5.978   5.838   2.331  0.0625 -1.4987 -0.3117
17691TIP3   OH274563   0.190   4.425  12.321 -0.3417  0.9136  0.0660
17691TIP3    H174564   0.151   4.430  12.409 -1.1476 -0.0192 -0.2166
17691TIP3    H274565   0.285   4.421  12.337 -0.5078 -3.0830  1.1986
17692TIP3   OH274566   5.056   2.508  13.657  0.5625 -0.1318  0.6158
17692TIP3    H174567   5.021   2.447  13.592  0.1989  0.3134  0.3845
17692TIP3    H274568   5.081   2.453  13.731 -1.6249 -0.3865  1.2432
17693TIP3   OH274569   1.734   6.811  12.749  0.3117  0.0193  0.2841
17693TIP3    H174570   1.804   6.869  12.720  0.3425 -1.3930 -2.8687
17693TIP3    H274571   1.767   6.723  12.730 -1.0760 -0.8649  1.7154
17694TIP3   OH274572   4.666   3.041  13.593 -0.4609 -0.3544 -0.1114
17694TIP3    H174573   4.629   3.085  13.670 -0.8227  0.3225 -0.6705
17694TIP3    H274574   4.752   3.081  13.582 -0.2054 -0.7997  0.2290
17695TIP3   OH274575   0.691   3.961   3.005  0.1344 -0.0527 -0.0301
17695TIP3    H174576   0.776   3.944   2.966  0.2474 -0.1116  0.2399
17695TIP3    H274577   0.629   3.916   2.948  0.4042 -1.1988  0.5488
17696TIP3   OH274578   1.017   4.365  12.343  0.4789 -0.5050 -0.8612
17696TIP3    H174579   1.049   4.439  12.292 -0.5336  0.1793 -0.5354
17696TIP3    H274580   1.063   4.373  12.427  0.1435 -0.0447 -0.7138
17697TIP3   OH274581   5.283   3.329   1.278  0.2109 -0.3445  0.7357
17697TIP3    H174582   5.324   3.286   1.353  1.0666 -0.8134  0.0318
17697TIP3    H274583   5.357   3.362   1.227 -0.2278 -1.5411 -0.7706
17698TIP3   OH274584   2.692   1.068  16.054  0.5816  0.2335  0.6279
17698TIP3    H174585   2.620   1.121  16.089 -0.5657 -2.2971  2.4994
17698TIP3    H274586   2.650   1.012  15.988  0.9038 -0.8477  1.3059
17699TIP3   OH274587   4.966   6.855   1.916 -0.3702  0.0958 -0.3538
17699TIP3    H174588   5.048   6.898   1.889 -0.6233  0.9073  0.1204
17699TIP3    H274589   4.904   6.878   1.847 -0.7264  1.2443  0.3063
17700TIP3   OH274590   2.011   4.290   0.273  0.7732 -0.5157 -0.4620
17700TIP3    H174591   2.050   4.328   0.194  1.2225  2.3548  1.0123
17700TIP3    H274592   2.086   4.255   0.322  0.7848 -0.2155 -0.2642
17701TIP3   OH274593   4.003   1.588   3.493  0.3913  0.0278 -0.4554
17701TIP3    H174594   4.062   1.514   3.505 -0.9311 -1.4202 -2.3745
17701TIP3    H274595   3.919   1.559   3.530  0.2450  1.1541  0.1389
17702TIP3   OH274596   3.888   5.671   3.202  0.3010 -0.3330 -0.1030
17702TIP3    H174597   3.916   5.684   3.111  0.8118 -0.5342  0.0181
17702TIP3    H274598   3.970   5.659   3.250  0.1667  1.6412  0.7076
17703TIP3   OH274599   1.254   2.630  14.674 -0.7551 -0.2320 -0.5579
17703TIP3    H174600   1.306   2.705  14.645 -0.3487 -0.0385  0.6242
17703TIP3    H274601   1.168   2.668  14.694 -0.6155 -0.1268 -0.1666
17704TIP3   OH274602   3.896   6.634   2.675  0.4035  0.3996 -0.5295
17704TIP3    H174603   3.812   6.679   2.683  1.1303  1.7645 -0.2345
17704TIP3    H274604   3.950   6.694   2.621  1.3946 -0.1241 -0.1473
17705TIP3   OH274605   5.588   3.535   4.635  1.3374 -0.3446  0.0286
17705TIP3    H174606   5.526   3.579   4.694  0.3678 -1.9020  0.2252
17705TIP3    H274607   5.667   3.524   4.687  1.6399  1.2130 -0.0546
17706TIP3   OH274608   1.873   3.034  10.214 -0.3683 -0.4336  0.4148
17706TIP3    H174609   1.782   3.053  10.237 -1.1415 -1.7212 -1.3247
17706TIP3    H274610   1.880   2.938  10.219  0.8228 -0.3693  0.3207
17707TIP3   OH274611   3.450   3.891  15.060 -0.0465  0.4460  0.4487
17707TIP3    H174612   3.399   3.958  15.104 -1.5784 -1.2799  1.4128
17707TIP3    H274613   3.387   3.822  15.040  1.8248 -1.6596  1.4355
17708TIP3   OH274614   3.553   6.253  11.043 -0.3519 -0.0021  0.1578
17708TIP3    H174615   3.488   6.322  11.053 -3.0282 -2.3581  0.0707
17708TIP3    H274616   3.525   6.204  10.966  1.4318 -1.2365  0.2356
17709TIP3   OH274617   2.245   0.412  13.728  0.0800 -0.3808 -0.3574
17709TIP3    H174618   2.173   0.399  13.666 -0.0731 -3.0576  0.2571
17709TIP3    H274619   2.221   0.359  13.804  1.4547  0.8392  1.0086
17710TIP3   OH274620   4.315   0.972  12.972 -0.5216  0.3147  0.3654
17710TIP3    H174621   4.391   0.971  13.030 -0.2838 -0.4421  0.0563
17710TIP3    H274622   4.288   0.880  12.966  0.0797  0.2103 -1.4996
17711TIP3   OH274623   3.129   6.297   5.138 -0.3208  0.0944  0.4125
17711TIP3    H174624   3.066   6.250   5.192 -1.2792  0.2914 -0.4963
17711TIP3    H274625   3.214   6.264   5.167 -0.8714 -0.7917  1.0965
17712TIP3   OH274626   3.372   5.097  10.908 -0.8887  0.2237 -0.8057
17712TIP3    H174627   3.400   5.187  10.889  1.4475  0.1875  1.7233
17712TIP3    H274628   3.434   5.043  10.860 -0.2398  0.0509  0.1967
17713TIP3   OH274629   5.957   3.928   4.037  0.0055  0.2860 -0.5135
17713TIP3    H174630   5.947   3.905   4.130  0.3728  0.5852 -0.3969
17713TIP3    H274631   5.928   4.018   4.031  1.5582  0.8336 -0.3587
17714TIP3   OH274632   5.614   4.144  11.118 -0.7141 -0.6136 -0.6955
17714TIP3    H174633   5.616   4.060  11.073  0.1278 -0.3442 -1.1800
17714TIP3    H274634   5.536   4.140  11.173  0.3072 -2.4808  0.7521
17715TIP3   OH274635   3.382   3.731   1.095 -0.4946 -0.7248  0.3765
17715TIP3    H174636   3.373   3.749   1.001 -0.9904 -0.6257  0.4418
17715TIP3    H274637   3.303   3.767   1.134  0.7794  1.4236  1.1581
17716TIP3   OH274638   5.876   1.714   1.272  0.2471 -0.0806  0.3477
17716TIP3    H174639   5.959   1.714   1.320 -0.0030 -0.7075  0.8001
17716TIP3    H274640   5.871   1.801   1.233  2.1599 -0.7228 -1.5517
17717TIP3   OH274641   6.134   3.054  13.161 -1.3544  0.2613 -0.4283
17717TIP3    H174642   6.077   3.009  13.223 -1.1875  0.7088  0.0590
17717TIP3    H274643   6.156   2.988  13.096  1.1362 -1.2636  1.7128
17718TIP3   OH274644   3.739   3.587   4.072 -0.1439 -0.5869  0.2921
17718TIP3    H174645   3.826   3.549   4.084  0.2438  0.7587  2.1809
17718TIP3    H274646   3.680   3.531   4.123 -0.3521 -1.2640 -0.6615
17719TIP3   OH274647   4.270   2.637  14.920 -0.1406 -0.2253  0.1250
17719TIP3    H174648   4.198   2.698  14.939  0.7678  0.5741  1.1247
17719TIP3    H274649   4.227   2.561  14.882 -1.4710  0.4258  0.2562
17720TIP3   OH274650   6.596   6.094  16.952  0.6022 -0.3338  0.0508
17720TIP3    H174651   6.525   6.094  16.889  1.7962 -0.9897 -1.3452
17720TIP3    H274652   6.653   6.166  16.925 -0.4214  1.4765  2.3054
17721TIP3   OH274653   5.252   4.301   0.833 -0.7774  0.0147  0.0617
17721TIP3    H174654   5.332   4.353   0.824  0.1527 -1.2836  0.5045
17721TIP3    H274655   5.253   4.270   0.924 -0.8110 -1.4875 -0.4138
17722TIP3   OH274656   5.092   0.884   5.867 -0.2923  0.1110 -1.0692
17722TIP3    H174657   5.059   0.855   5.952 -0.8609  0.2348 -1.2482
17722TIP3    H274658   5.185   0.858   5.868 -0.4213 -0.3625 -0.6255
17723TIP3   OH274659   5.885   6.793   3.546 -0.9879 -0.0280 -0.0802
17723TIP3    H174660   5.895   6.707   3.505 -1.3126 -0.0544 -0.1084
17723TIP3    H274661   5.930   6.785   3.630 -2.5618 -0.8121  0.7331
17724TIP3   OH274662   0.343   0.215  13.049  0.4358  0.1308  0.1134
17724TIP3    H174663   0.322   0.151  12.981 -0.9496 -0.7907  1.3557
17724TIP3    H274664   0.262   0.267  13.058  0.2213 -0.4391  1.7493
17725TIP3   OH274665   2.254   3.321  12.418 -0.3217  0.1442 -0.2087
17725TIP3    H174666   2.206   3.374  12.354  0.6197  2.5135  0.9367
17725TIP3    H274667   2.344   3.320  12.386 -0.4146 -1.2491 -0.4795
17726TIP3   OH274668   1.920   0.778   2.187  0.3687 -0.5893 -0.6162
17726TIP3    H174669   1.944   0.867   2.163 -0.6627 -0.8932 -3.0059
17726TIP3    H274670   1.825   0.780   2.196  0.3720 -1.3785 -0.3490
17727TIP3   OH274671   5.874   3.490  13.033 -0.3071 -0.0356  0.5561
17727TIP3    H174672   5.792   3.441  13.032 -1.1534  1.2919 -1.3673
17727TIP3    H274673   5.940   3.427  13.004 -1.0601 -0.5661 -0.0598
17728TIP3   OH274674   1.727   6.388   1.329  0.2016 -0.1590 -0.5223
17728TIP3    H174675   1.713   6.298   1.356 -0.5790 -0.2088 -1.0811
17728TIP3    H274676   1.676   6.440   1.391  0.0703 -0.1422 -0.6459
17729TIP3   OH274677   0.090   5.576  12.934  0.7158 -0.5517  0.2606
17729TIP3    H174678   0.143   5.655  12.933  0.0016 -0.0662 -0.3300
17729TIP3    H274679  -0.001   5.607  12.931  0.4321 -1.3869 -0.4881
17730TIP3   OH274680   5.917   1.161  12.920 -0.5834 -0.7816 -0.2631
17730TIP3    H174681   6.003   1.127  12.896 -0.2497  0.1620 -0.4401
17730TIP3    H274682   5.918   1.251  12.889 -0.3659  0.3425  2.7760
17731TIP3   OH274683   2.526   6.749   5.315 -0.3987 -0.2029 -0.6950
17731TIP3    H174684   2.574   6.674   5.279  0.3013 -0.2280  0.2641
17731TIP3    H274685   2.558   6.758   5.404 -1.0922  0.7282 -0.5228
17732TIP3   OH274686   6.335   4.925   2.409  0.3165  0.2821 -0.3058
17732TIP3    H174687   6.380   4.969   2.482 -0.3228 -0.5105  0.5867
17732TIP3    H274688   6.348   4.832   2.426  0.4782  0.0885 -1.4294
17733TIP3   OH274689   0.963   4.406   2.552  0.4684 -0.1167  0.6612
17733TIP3    H174690   1.050   4.445   2.554  0.0523  0.8867  0.1078
17733TIP3    H274691   0.952   4.366   2.638  1.7198 -0.8229  0.5102
17734TIP3   OH274692   0.020   4.556   5.272 -0.1161  0.1118  0.0675
17734TIP3    H174693  -0.038   4.616   5.225  0.5797 -1.5768 -3.2747
17734TIP3    H274694   0.108   4.587   5.253  0.1909 -0.1094  1.0498
17735TIP3   OH274695   1.546   5.202   0.912  0.7184 -0.1183 -0.2047
17735TIP3    H174696   1.601   5.216   0.989  0.4236  0.1824 -0.0481
17735TIP3    H274697   1.460   5.181   0.948  0.4285  0.6169 -0.4524
17736TIP3   OH274698   6.856   3.518   4.200  0.0480  0.2231 -0.0947
17736TIP3    H174699   6.886   3.516   4.291  0.0329  0.3740 -0.0863
17736TIP3    H274700   6.771   3.562   4.204 -0.1922 -0.2352 -0.1138
17737TIP3   OH274701   2.658   2.501  14.268 -0.2082 -0.1063 -0.1341
17737TIP3    H174702   2.711   2.438  14.220 -0.8323 -0.9568  0.2494
17737TIP3    H274703   2.596   2.534  14.204  0.8922  1.0375 -0.6304
17738TIP3   OH274704   1.543   2.717   0.969 -0.1146 -0.2656 -0.1237
17738TIP3    H174705   1.626   2.683   1.004  0.2025 -0.6471 -1.2063
17738TIP3    H274706   1.504   2.764   1.042  1.9376  1.5243 -0.0871
17739TIP3   OH274707   4.628   0.540   2.064 -0.8794  0.4004  0.0163
17739TIP3    H174708   4.665   0.626   2.083 -1.4719  0.4778  0.9215
17739TIP3    H274709   4.627   0.495   2.149 -0.9093 -0.3701 -0.3755
17740TIP3   OH274710   1.305   5.144  12.795 -0.1258 -0.0652 -0.4341
17740TIP3    H174711   1.299   5.219  12.735 -0.2523 -0.0361 -0.3869
17740TIP3    H274712   1.227   5.151  12.849 -0.0014 -0.0829 -0.2536
17741TIP3   OH274713   2.162   2.615  13.982  0.5191  0.0954 -0.2214
17741TIP3    H174714   2.102   2.638  13.911  0.4622 -0.2172 -0.2752
17741TIP3    H274715   2.243   2.592  13.938  1.5703  3.0508 -0.0565
17742TIP3   OH274716   1.364   4.854  14.746  0.4688  0.0703  0.5809
17742TIP3    H174717   1.313   4.934  14.758  0.5189 -0.1106  2.1461
17742TIP3    H274718   1.444   4.884  14.702  0.7601  1.0090  1.6958
17743TIP3   OH274719   3.271   0.975   0.164  0.6115  0.6867  0.0398
17743TIP3    H174720   3.282   1.025   0.083 -1.7964  0.9173 -0.2239
17743TIP3    H274721   3.238   0.890   0.136  1.9020 -0.0590  0.6792
17744TIP3   OH274722   2.236   6.804  12.182  0.0981  0.3966  0.6886
17744TIP3    H174723   2.309   6.864  12.163 -0.5682  0.9926 -0.0789
17744TIP3    H274724   2.251   6.730  12.124  1.4526 -0.6740  2.3149
17745TIP3   OH274725   4.367   6.224   1.525 -0.1072 -0.3792  0.0584
17745TIP3    H174726   4.437   6.269   1.477 -0.7281  0.5920  0.0333
17745TIP3    H274727   4.294   6.222   1.463 -0.3037 -0.8216  0.3044
17746TIP3   OH274728   4.648   2.689  14.667  0.0351  0.5273  0.3090
17746TIP3    H174729   4.581   2.744  14.707  2.0478 -0.4761  5.9896
17746TIP3    H274730   4.614   2.599  14.677  0.5386  0.2321 -0.5436
17747TIP3   OH274731   3.733   4.687  14.447 -0.0242  0.5801  0.7073
17747TIP3    H174732   3.817   4.680  14.494 -0.2746 -0.8006  0.9651
17747TIP3    H274733   3.672   4.720  14.513 -0.3421 -1.2210  1.3525
17748TIP3   OH274734   4.424   2.298  11.965  0.1641  0.1284 -0.1241
17748TIP3    H174735   4.478   2.222  11.945 -0.5108 -0.0190 -1.4971
17748TIP3    H274736   4.339   2.278  11.928 -0.6801  0.6293  1.4471
17749TIP3   OH274737   4.113   0.229   4.992  0.3762  0.8659 -0.1353
17749TIP3    H174738   4.184   0.191   4.941 -1.2364 -0.0410 -1.8430
17749TIP3    H274739   4.124   0.324   4.982  0.1137  0.7094 -2.2310
17750TIP3   OH274740   3.536   6.312  15.551  0.0233  0.1946  0.2769
17750TIP3    H174741   3.545   6.273  15.463 -0.1236 -0.3105  0.4813
17750TIP3    H274742   3.446   6.344  15.553  0.4981  1.6677 -0.3302
17751TIP3   OH274743   1.193   1.644   1.633  0.1573  0.3731  0.6684
17751TIP3    H174744   1.262   1.619   1.571  0.6353  0.1768  1.2670
17751TIP3    H274745   1.199   1.740   1.638 -0.1529  0.4284  0.1161
17752TIP3   OH274746   5.359   4.072   2.684  0.2166  0.0111  0.0812
17752TIP3    H174747   5.325   4.063   2.595 -0.6885  0.1055  0.4075
17752TIP3    H274748   5.446   4.033   2.681  1.1855  2.0779 -1.4312
17753TIP3   OH274749   0.435   1.392  11.022 -0.0676  1.0755 -0.7185
17753TIP3    H174750   0.382   1.410  11.099 -1.7839  3.7740 -2.3758
17753TIP3    H274751   0.435   1.296  11.014  0.1095  0.7038  2.4696
17754TIP3   OH274752   3.957   6.819  13.063 -0.0495  0.6191  1.0667
17754TIP3    H174753   3.910   6.768  13.129 -0.9218  0.3950  0.2891
17754TIP3    H274754   3.897   6.889  13.038 -0.3111 -0.1102 -0.4856
17755TIP3   OH274755   1.450   4.859   2.053  0.1039 -0.0043 -0.2644
17755TIP3    H174756   1.429   4.934   2.108  0.3247  0.1424 -0.3771
17755TIP3    H274757   1.461   4.895   1.965 -1.8022 -0.4563 -0.7379
17756TIP3   OH274758   5.783   2.359   5.536  0.3030 -0.4515  0.2315
17756TIP3    H174759   5.813   2.289   5.595  1.5681 -0.4267 -0.3325
17756TIP3    H274760   5.829   2.437   5.567  1.6245 -0.5935 -1.2198
17757TIP3   OH274761   4.136   4.625  14.044 -0.5505  0.6358 -0.6780
17757TIP3    H174762   4.056   4.621  14.096 -0.2686  3.8524  0.2026
17757TIP3    H274763   4.107   4.605  13.955 -2.3578  1.5920 -0.3552
17758TIP3   OH274764   6.752   5.378  13.636  0.1124  0.1228  0.2529
17758TIP3    H174765   6.738   5.366  13.730  0.9259  0.4578  0.4219
17758TIP3    H274766   6.843   5.406  13.628  0.1149 -0.1035 -0.6541
17759TIP3   OH274767   6.082   6.347   2.684  0.1616 -0.0015 -0.0887
17759TIP3    H174768   6.150   6.314   2.625  1.3449  0.6039  0.8932
17759TIP3    H274769   6.112   6.435   2.708  0.3710 -0.6585  2.3355
17760TIP3   OH274770   4.948   5.855  10.842  0.0310  0.0620  0.3826
17760TIP3    H174771   4.951   5.772  10.795 -0.8147  0.4316 -0.3488
17760TIP3    H274772   4.858   5.861  10.874 -0.1073  1.0217 -0.1704
17761TIP3   OH274773   1.244   6.569  16.335  0.0087  0.2122  0.1786
17761TIP3    H174774   1.237   6.654  16.377  0.2051  0.3764 -0.1205
17761TIP3    H274775   1.178   6.515  16.378 -1.5728  1.0863 -1.0275
17762TIP3   OH274776   3.576   1.006   1.743  0.3411 -0.3157  0.3371
17762TIP3    H174777   3.564   0.926   1.692 -2.3350 -0.7376  1.4688
17762TIP3    H274778   3.496   1.057   1.729  2.0006  2.2978 -0.4324
17763TIP3   OH274779   2.591   1.401   0.777 -0.7764  0.4064  0.0921
17763TIP3    H174780   2.674   1.356   0.762 -0.6591  0.6349  0.0458
17763TIP3    H274781   2.544   1.347   0.841  0.9671  2.1880  3.0928
17764TIP3   OH274782   1.648   2.201  13.265  0.0133 -0.4564 -0.2175
17764TIP3    H174783   1.712   2.264  13.232  0.0195 -0.6838 -0.6485
17764TIP3    H274784   1.630   2.144  13.190  0.4898 -1.3652  0.3407
17765TIP3   OH274785   2.352   4.955  14.216 -0.7599  0.7396 -0.0222
17765TIP3    H174786   2.411   4.889  14.252 -0.3096  2.2732  2.3067
17765TIP3    H274787   2.316   4.915  14.137  2.6068 -0.6735 -1.0290
17766TIP3   OH274788   3.086   3.210  11.448  1.0660  0.0988  0.0658
17766TIP3    H174789   3.063   3.194  11.357 -0.2001 -1.4886  0.6143
17766TIP3    H274790   3.179   3.188  11.454  0.9767 -0.5149 -0.6909
17767TIP3   OH274791   0.391   4.173   2.487  0.2523 -0.1063  0.0507
17767TIP3    H174792   0.445   4.228   2.429 -0.0340 -0.5088 -0.6073
17767TIP3    H274793   0.327   4.133   2.429  1.0036 -1.8554  0.3560
17768TIP3   OH274794   3.676   6.575   3.237 -0.5289  0.2142 -0.0288
17768TIP3    H174795   3.661   6.510   3.168 -0.2929 -0.2221  0.3282
17768TIP3    H274796   3.771   6.591   3.234 -0.5227  0.2147  0.1815
17769TIP3   OH274797   5.195   2.943  12.784  0.2319  0.3477 -0.3272
17769TIP3    H174798   5.221   2.907  12.869 -1.9945 -1.9549 -0.5035
17769TIP3    H274799   5.250   2.899  12.720 -1.1632 -1.4667 -0.3707
17770TIP3   OH274800   5.243   0.685  12.174 -0.0549 -0.1206 -0.0887
17770TIP3    H174801   5.153   0.687  12.141  0.2497  0.6483 -0.9188
17770TIP3    H274802   5.289   0.751  12.122  1.0128 -0.5647  0.2646
17771TIP3   OH274803   6.600   1.409   4.578 -0.0567 -0.6214 -0.3579
17771TIP3    H174804   6.622   1.489   4.626  1.5934 -0.5793 -1.1221
17771TIP3    H274805   6.543   1.360   4.638  0.3122  0.3391  0.8061
17772TIP3   OH274806   1.940   6.367  10.974  0.0004  0.6436  0.0402
17772TIP3    H174807   1.995   6.346  11.049  1.0285  0.1096 -0.8485
17772TIP3    H274808   1.936   6.287  10.923 -2.0686  0.4965  0.3435
17773TIP3   OH274809   3.698   3.484  16.080 -0.2521 -0.5391 -0.0275
17773TIP3    H174810   3.687   3.442  16.166  1.4494 -0.5950  0.2092
17773TIP3    H274811   3.748   3.564  16.099 -0.7162 -0.0324 -0.8646
17774TIP3   OH274812   3.429   6.046  13.084  0.1011  0.6695 -0.1607
17774TIP3    H174813   3.521   6.059  13.063  0.4733 -2.8932 -1.2850
17774TIP3    H274814   3.421   5.953  13.104 -2.9052  1.2539  2.1027
17775TIP3   OH274815   5.556   5.440  15.960 -0.5518 -0.2571 -0.5003
17775TIP3    H174816   5.565   5.493  15.881 -1.0032  0.6167  0.0071
17775TIP3    H274817   5.643   5.445  16.001 -0.7194  0.5428 -0.2050
17776TIP3   OH274818   3.367   6.182  13.581 -0.1479 -0.4274  0.8122
17776TIP3    H174819   3.354   6.274  13.558  0.9958 -0.2994  0.6351
17776TIP3    H274820   3.294   6.137  13.537 -0.3616  0.3151  0.3742
17777TIP3   OH274821   5.073   6.778  13.562  0.0344  0.0383 -0.5291
17777TIP3    H174822   5.056   6.779  13.468  0.5162 -1.9451 -0.6950
17777TIP3    H274823   5.167   6.763  13.569 -0.0989 -0.4849  0.2461
17778TIP3   OH274824   4.679   0.022   0.734  0.1159 -0.8379  0.0540
17778TIP3    H174825   4.763   0.046   0.774 -0.7520 -1.5570  2.4595
17778TIP3    H274826   4.614   0.040   0.802 -1.7383 -0.1924 -1.7963
17779TIP3   OH274827   4.161   5.960  11.870 -0.1374  0.1069  0.1645
17779TIP3    H174828   4.158   6.001  11.957 -1.0399 -0.1500  0.2654
17779TIP3    H274829   4.209   5.878  11.883 -1.2414 -0.4856  0.6806
17780TIP3   OH274830   2.526   4.940   4.276 -0.1758 -0.4706  0.4677
17780TIP3    H174831   2.527   4.992   4.196  0.6042  0.6234  1.1634
17780TIP3    H274832   2.569   4.858   4.252 -0.6995 -0.4891 -0.4399
17781TIP3   OH274833   6.350   4.909   0.206  0.5802  0.3567 -0.2640
17781TIP3    H174834   6.389   4.992   0.233  1.0046  0.4837 -1.2148
17781TIP3    H274835   6.273   4.935   0.155 -1.3682  0.1058  2.3414
17782TIP3   OH274836   3.417   4.990   0.281 -0.9135  0.2226 -0.3069
17782TIP3    H174837   3.413   4.931   0.356  1.0329  0.6748  0.2051
17782TIP3    H274838   3.392   5.076   0.316  1.1545  0.6814  0.1652
17783TIP3   OH274839   5.385   3.989   0.218 -0.2283  0.2233 -0.4718
17783TIP3    H174840   5.369   3.958   0.307 -1.9673  1.3124 -0.3537
17783TIP3    H274841   5.363   3.913   0.163 -0.1526 -0.1388 -0.0116
17784TIP3   OH274842   6.647   4.386   5.326  0.8937  0.1761  0.0297
17784TIP3    H174843   6.598   4.466   5.346  2.0415  0.7544  0.6009
17784TIP3    H274844   6.738   4.414   5.318  1.1430 -0.8627 -1.1198
17785TIP3   OH274845   0.957   4.276  13.214 -0.2795 -0.6677 -0.3614
17785TIP3    H174846   0.946   4.181  13.215 -2.0145 -0.5184 -1.3049
17785TIP3    H274847   1.050   4.289  13.194  0.3520 -2.1334  1.3627
17786TIP3   OH274848   4.707   2.149  13.365 -0.4178  0.0061  0.7315
17786TIP3    H174849   4.730   2.128  13.275  0.3474  1.8254  0.4692
17786TIP3    H274850   4.636   2.212  13.358  0.2604  0.8631  1.3703
17787TIP3   OH274851   6.526   2.540   6.252  0.1169  0.1910  0.3734
17787TIP3    H174852   6.499   2.615   6.306 -1.6750  1.4116 -2.0253
17787TIP3    H274853   6.529   2.467   6.313 -1.4093  1.5455  2.2167
17788TIP3   OH274854   1.154   0.255   1.644 -0.8038 -0.2759 -0.3309
17788TIP3    H174855   1.191   0.204   1.716 -0.4061 -0.9077 -0.9756
17788TIP3    H274856   1.098   0.194   1.597  1.5878 -0.9143 -2.5994
17789TIP3   OH274857   2.143   5.749  10.499 -0.0644  0.2228 -0.2700
17789TIP3    H174858   2.078   5.686  10.531 -0.6301  1.0388  0.2217
17789TIP3    H274859   2.131   5.750  10.404 -0.3769 -0.0545 -0.2347
17790TIP3   OH274860   0.890   3.917   4.852  0.4445  0.1699  0.2732
17790TIP3    H174861   0.798   3.940   4.845  0.3064 -0.6240 -0.7734
17790TIP3    H274862   0.891   3.821   4.855  1.2041  0.1859  0.8883
17791TIP3   OH274863   5.441   4.788  13.075  0.5753 -0.7164  0.4526
17791TIP3    H174864   5.456   4.694  13.088  2.0883 -0.7055 -0.9815
17791TIP3    H274865   5.446   4.800  12.980 -4.0557  0.1358  0.0590
17792TIP3   OH274866   5.457   0.057  16.056 -0.3364 -0.3618  0.0463
17792TIP3    H174867   5.492   0.076  16.143  0.5577  0.0771 -0.3985
17792TIP3    H274868   5.527   0.082  15.996 -1.3444  0.3516 -0.8624
17793TIP3   OH274869   6.575   6.400  11.696  0.2685 -0.4895 -0.3565
17793TIP3    H174870   6.508   6.332  11.687  0.7994 -1.2382  1.0729
17793TIP3    H274871   6.581   6.416  11.790 -0.0228  1.7479 -0.6688
17794TIP3   OH274872   0.399   0.523  16.668 -0.5656 -0.2126 -0.1518
17794TIP3    H174873   0.340   0.581  16.717 -0.8410 -0.9762  0.4298
17794TIP3    H274874   0.467   0.500  16.731 -1.9170 -2.7047  0.5128
17795TIP3   OH274875   3.441   2.871   3.635 -0.4133 -0.4237  0.2537
17795TIP3    H174876   3.390   2.793   3.611  0.5986 -1.3501  0.9959
17795TIP3    H274877   3.459   2.915   3.552 -1.5619 -0.6069 -0.1113
17796TIP3   OH274878   6.398   6.623  10.824  0.4372 -0.0383 -0.0876
17796TIP3    H174879   6.455   6.684  10.873 -0.6502  0.2822  0.8212
17796TIP3    H274880   6.454   6.548  10.806  1.2298  0.3783  0.5576
17797TIP3   OH274881   3.577   1.692  11.800 -0.4977 -0.1591 -0.3904
17797TIP3    H174882   3.629   1.612  11.802 -0.8997 -0.4468 -1.0218
17797TIP3    H274883   3.509   1.679  11.866  0.1792  0.1867  0.3836
17798TIP3   OH274884   2.302   4.768   1.815 -0.1012 -0.0232 -0.7116
17798TIP3    H174885   2.392   4.781   1.787 -0.1243  1.9615 -0.0045
17798TIP3    H274886   2.306   4.694   1.876  0.9595 -0.2082 -0.9926
17799TIP3   OH274887   0.696   4.377  13.517  0.0614 -0.2183 -0.0235
17799TIP3    H174888   0.688   4.299  13.571 -3.5326 -1.3363 -1.8011
17799TIP3    H274889   0.736   4.346  13.436 -1.0740 -0.2166 -0.6101
17800TIP3   OH274890   1.317   6.638  14.962 -0.3526 -0.3764  0.0468
17800TIP3    H174891   1.387   6.691  14.999 -1.6367 -0.0004  2.0839
17800TIP3    H274892   1.356   6.551  14.953  0.5694 -0.0301  0.4995
17801TIP3   OH274893   0.151   1.139   3.927  0.6667  0.1645 -0.4073
17801TIP3    H174894   0.226   1.121   3.984 -0.8235 -0.4126  1.4624
17801TIP3    H274895   0.126   1.053   3.892 -0.1073  0.1109  0.2676
17802TIP3   OH274896   1.574   3.528   3.455 -0.3899  0.1757 -0.2521
17802TIP3    H174897   1.558   3.442   3.493 -0.1551 -0.1009 -0.7697
17802TIP3    H274898   1.486   3.561   3.434 -0.4019 -0.6784 -1.6467
17803TIP3   OH274899   0.893   6.164   0.829  0.8744 -0.1148  0.2481
17803TIP3    H174900   0.815   6.117   0.800  0.7510 -0.4420  1.0707
17803TIP3    H274901   0.944   6.178   0.750  0.0240  0.0285 -0.2915
17804TIP3   OH274902   2.466   6.347   0.193 -0.1880 -0.4170 -0.1331
17804TIP3    H174903   2.425   6.338   0.107 -0.4405  0.0453 -0.0690
17804TIP3    H274904   2.526   6.421   0.184  0.3944 -0.8902 -0.1349
17805TIP3   OH274905   2.030   1.512  11.614  0.3637 -0.2607  0.3991
17805TIP3    H174906   1.974   1.566  11.670  1.5227 -0.0873  1.4319
17805TIP3    H274907   2.118   1.523  11.649  1.4697  1.1980 -2.4532
17806TIP3   OH274908   2.318   4.704  15.461  0.0620 -0.4084 -0.0943
17806TIP3    H174909   2.244   4.695  15.522 -0.4981  1.4823 -0.4258
17806TIP3    H274910   2.293   4.653  15.385 -1.1247  0.5309 -0.3628
17807TIP3   OH274911   5.664   4.986  14.222  0.2148 -0.4092 -0.3283
17807TIP3    H174912   5.666   4.926  14.148  1.1031 -1.7743  0.7567
17807TIP3    H274913   5.734   5.049  14.205 -0.0900 -0.2545 -1.0106
17808TIP3   OH274914   2.790   2.352   3.994 -0.4124 -0.4670  0.4823
17808TIP3    H174915   2.710   2.302   4.010 -0.4920 -0.6874 -0.5315
17808TIP3    H274916   2.802   2.404   4.074 -2.6840  1.1037 -0.0910
17809TIP3   OH274917   4.388   3.055   0.329 -0.0976  0.0138  0.1784
17809TIP3    H174918   4.346   2.991   0.387  0.1711  0.0881  0.4570
17809TIP3    H274919   4.422   3.122   0.388 -0.7979  0.6637 -0.1548
17810TIP3   OH274920   1.005   4.001   4.092  0.0619 -0.0174  0.3147
17810TIP3    H174921   0.945   4.069   4.061  0.9531  0.9542  0.6769
17810TIP3    H274922   1.089   4.046   4.104  0.3973 -0.9313  1.6356
17811TIP3   OH274923   6.239   2.035   6.455  0.6446  0.3955  0.1644
17811TIP3    H174924   6.296   2.101   6.416 -0.6406  0.4460 -1.7409
17811TIP3    H274925   6.182   2.085   6.514  0.0442  0.9521 -0.8487
17812TIP3   OH274926   4.903   6.324   5.713  0.4379 -0.3349  0.6734
17812TIP3    H174927   4.857   6.343   5.794  0.8511 -0.7709  1.0180
17812TIP3    H274928   4.990   6.295   5.741  0.2358 -1.5259  0.1302
17813TIP3   OH274929   4.150   6.303  17.056  0.2623  0.1130 -0.3113
17813TIP3    H174930   4.100   6.385  17.059  0.2770  0.1980 -1.7551
17813TIP3    H274931   4.231   6.323  17.104 -0.0843  0.7013  0.0386
17814TIP3   OH274932   6.797   5.117   1.205  0.1726 -0.7326 -0.1075
17814TIP3    H174933   6.749   5.111   1.288  0.3640  0.9350  0.1582
17814TIP3    H274934   6.853   5.194   1.215  0.4970 -0.7358 -1.6458
17815TIP3   OH274935   2.244   2.487   2.996  0.1564  0.6959 -0.4614
17815TIP3    H174936   2.332   2.456   2.975 -0.2460  0.1267 -1.3578
17815TIP3    H274937   2.256   2.577   3.024  1.2734  0.0013  1.4581
17816TIP3   OH274938   1.860   2.348  14.832  0.3348 -0.0242 -0.3552
17816TIP3    H174939   1.867   2.342  14.927 -1.2765 -1.6339 -0.2988
17816TIP3    H274940   1.776   2.392  14.816  0.2821 -0.3579 -1.0353
17817TIP3   OH274941   6.287   6.455   0.286 -0.3920  1.0894  0.4729
17817TIP3    H174942   6.265   6.364   0.304 -0.4445  1.1092  0.5100
17817TIP3    H274943   6.380   6.462   0.309 -0.5159  1.1716  0.9560
17818TIP3   OH274944   3.749   0.699  11.727 -0.1921  0.0354  0.3283
17818TIP3    H174945   3.718   0.738  11.645  2.5722 -0.3251 -1.0350
17818TIP3    H274946   3.737   0.605  11.715 -1.6715  0.0777  1.2556
17819TIP3   OH274947   3.545   2.987  12.844 -0.1542 -0.0290  0.3326
17819TIP3    H174948   3.532   2.895  12.868 -2.1905  0.5378  1.5664
17819TIP3    H274949   3.458   3.026  12.847  0.4935  1.7089 -1.3275
17820TIP3   OH274950   3.671   4.582  12.742  0.3293  0.1909  0.3237
17820TIP3    H174951   3.746   4.588  12.683 -0.4314 -0.9949 -0.8151
17820TIP3    H274952   3.682   4.499  12.788  0.5580  0.7905  1.3835
17821TIP3   OH274953   2.529   5.664   2.760  0.1099  0.2606 -0.1489
17821TIP3    H174954   2.556   5.650   2.851 -1.8197 -1.3532  0.2396
17821TIP3    H274955   2.434   5.677   2.764 -0.0296  0.1231 -1.9491
17822TIP3   OH274956   3.975   1.084  14.989 -0.8679 -0.1021  0.1260
17822TIP3    H174957   3.906   1.061  14.927 -1.1555  0.7670  0.1021
17822TIP3    H274958   3.930   1.134  15.057  0.0416  2.7385 -1.1831
17823TIP3   OH274959   6.704   1.182  16.844 -0.1966 -0.5415 -0.3015
17823TIP3    H174960   6.667   1.095  16.850  0.1966 -0.8696 -2.0194
17823TIP3    H274961   6.754   1.193  16.925 -1.2025 -1.4341  0.4545
17824TIP3   OH274962   1.799   4.498   2.850 -0.3903  0.5224 -0.6112
17824TIP3    H174963   1.796   4.561   2.922 -0.8922 -0.0530 -0.1224
17824TIP3    H274964   1.797   4.552   2.771 -0.5475  1.1276 -0.1983
17825TIP3   OH274965   2.155   4.301   1.382 -0.2565  0.3791  0.1847
17825TIP3    H174966   2.190   4.232   1.439  1.1086 -1.1926 -2.3334
17825TIP3    H274967   2.093   4.256   1.325  1.5667  0.8572 -2.3449
17826TIP3   OH274968   5.207   0.046   0.846  0.1038  0.4406 -0.1278
17826TIP3    H174969   5.198   0.123   0.903  0.4518  0.6913 -0.4068
17826TIP3    H274970   5.275  -0.007   0.887 -1.5676 -0.7888  1.2374
17827TIP3   OH274971   4.810   0.695   4.246  0.2122  0.0976  0.2572
17827TIP3    H174972   4.814   0.600   4.258 -0.2940  0.1109  0.5499
17827TIP3    H274973   4.873   0.730   4.309  0.9350 -0.0722 -0.3485
17828TIP3   OH274974   3.933   3.557   5.427 -0.3671 -0.0796 -0.4940
17828TIP3    H174975   3.935   3.482   5.487  0.7488  1.0058  0.9252
17828TIP3    H274976   3.985   3.530   5.352  0.9332 -0.3878  0.4821
17829TIP3   OH274977   3.884   0.362  12.204  0.4535 -0.3493  0.4202
17829TIP3    H174978   3.867   0.452  12.233 -0.8107 -0.4179 -0.0630
17829TIP3    H274979   3.939   0.325  12.273 -1.9445 -0.3306  2.4623
17830TIP3   OH274980   4.239   3.610   5.594  0.3008  0.6591 -0.3229
17830TIP3    H174981   4.242   3.568   5.507  0.1715 -1.2658  0.5537
17830TIP3    H274982   4.329   3.640   5.609  0.4609  0.4719 -0.8729
17831TIP3   OH274983   0.560   2.118  14.647  0.6839 -0.0766  0.2598
17831TIP3    H174984   0.629   2.184  14.653  1.1356 -0.5841  0.8552
17831TIP3    H274985   0.529   2.123  14.557  1.7970 -0.1268 -0.1459
17832TIP3   OH274986   4.679   3.272   0.073  0.5559 -0.0463  0.3890
17832TIP3    H174987   4.735   3.287   0.149  1.0657 -0.5288  0.1122
17832TIP3    H274988   4.713   3.333   0.006  0.9406 -0.5390  0.1283
17833TIP3   OH274989   0.096   5.383   5.287 -0.1548  0.0444  0.3302
17833TIP3    H174990   0.006   5.353   5.272 -0.0907 -0.4027  0.8300
17833TIP3    H274991   0.087   5.467   5.331 -0.3305 -0.1737  0.7129
17834TIP3   OH274992   1.354   3.906  12.994  0.1676  0.1725  0.1046
17834TIP3    H174993   1.366   3.813  12.978  0.4291  0.3149 -0.5645
17834TIP3    H274994   1.439   3.935  13.027 -0.0151  0.1105  0.6349
17835TIP3   OH274995   6.429   6.437   4.345 -0.8045 -0.3647 -0.9720
17835TIP3    H174996   6.508   6.450   4.399 -0.2025  0.4008 -1.9809
17835TIP3    H274997   6.357   6.458   4.404 -0.2251 -0.5419 -0.1728
17836TIP3   OH274998   0.024   1.645   5.652 -0.1168 -0.1976  0.0863
17836TIP3    H174999   0.094   1.708   5.637 -0.8564  1.1865  2.0401
17836TIP3    H275000  -0.056   1.692   5.632 -0.5815 -1.3939 -0.9979
17837TIP3   OH275001   2.137   5.799   1.643 -0.4449 -0.0869 -0.5192
17837TIP3    H175002   2.051   5.796   1.686 -1.5096 -1.2061 -2.5602
17837TIP3    H275003   2.182   5.721   1.673 -0.7563 -0.2965 -0.5882
17838TIP3   OH275004   3.595   3.281   3.977 -0.2561  0.4187 -0.0473
17838TIP3    H175005   3.688   3.286   3.955 -0.4353  0.7983 -0.7572
17838TIP3    H275006   3.584   3.340   4.051  0.0058  0.6323 -0.1778
17839TIP3   OH275007   6.482   0.442   1.000 -0.1636  0.6207 -0.0449
17839TIP3    H175008   6.480   0.456   1.095  1.5559  0.3899  0.0691
17839TIP3    H275009   6.490   0.347   0.990  1.6573  0.7668 -0.3163
17840TIP3   OH275010   6.310   6.613   3.548  0.1349 -0.5653 -1.1832
17840TIP3    H175011   6.402   6.598   3.568  0.0034 -2.1639 -1.6195
17840TIP3    H275012   6.263   6.587   3.627  0.0390  0.4533 -0.8812
17841TIP3   OH275013   6.642   2.178  11.771 -0.1455  0.2254  0.1282
17841TIP3    H175014   6.692   2.230  11.709 -1.4232  0.9390 -0.3550
17841TIP3    H275015   6.609   2.104  11.721 -0.5200  0.3748  0.1499
17842TIP3   OH275016   4.052   4.088   2.648 -0.2894  0.1385  0.4414
17842TIP3    H175017   4.059   4.162   2.708 -1.5474 -1.6227  2.9830
17842TIP3    H275018   4.101   4.018   2.692  0.8775 -0.5868 -1.8879
17843TIP3   OH275019   1.096   0.487  16.538  0.0666  0.3718  0.6411
17843TIP3    H175020   1.154   0.432  16.590  2.6995  1.3988 -1.0076
17843TIP3    H275021   1.076   0.435  16.461  1.0311  0.9953 -0.0463
17844TIP3   OH275022   4.468   1.584   3.364  0.4864 -0.0320 -0.0524
17844TIP3    H175023   4.408   1.658   3.367 -0.1025 -0.3632 -2.1654
17844TIP3    H275024   4.555   1.624   3.364  0.2058  0.5886  0.2475
17845TIP3   OH275025   0.551   2.892   3.887  0.4322  0.1028 -0.0245
17845TIP3    H175026   0.639   2.855   3.884  0.3306 -0.1957  0.5287
17845TIP3    H275027   0.549   2.941   3.970 -0.1421 -0.4648  0.3081
17846TIP3   OH275028   0.017   4.176  11.251  0.7781  0.3168  0.5714
17846TIP3    H175029   0.086   4.231  11.290 -0.2969 -0.3053  3.6209
17846TIP3    H275030  -0.061   4.232  11.251  0.1444 -0.5341  1.8507
17847TIP3   OH275031   4.161   5.525   0.169  0.1729  0.1494 -0.5940
17847TIP3    H175032   4.137   5.556   0.082 -1.4580  2.9502  0.7048
17847TIP3    H275033   4.078   5.523   0.217  1.1176 -0.6560  1.0771
17848TIP3   OH275034   3.168   3.793   1.238  0.9138  0.3322 -0.1317
17848TIP3    H175035   3.107   3.727   1.205  1.3752  0.6086 -1.6656
17848TIP3    H275036   3.214   3.750   1.310  0.3091 -0.5781 -0.2751
17849TIP3   OH275037   3.459   3.503  13.247  0.3054 -0.0836 -0.0518
17849TIP3    H175038   3.521   3.470  13.181  0.3552  0.7324 -0.4214
17849TIP3    H275039   3.385   3.442  13.242  0.6497 -0.4879 -0.3066
17850TIP3   OH275040   5.084   1.921  15.885 -0.7752 -0.4938 -0.7780
17850TIP3    H175041   5.013   1.948  15.942 -0.4370  1.5890 -1.2586
17850TIP3    H275042   5.149   1.882  15.943 -2.0545 -1.9955 -0.2830
17851TIP3   OH275043   3.540   3.541   3.432 -0.3430  0.1444  0.0245
17851TIP3    H175044   3.605   3.528   3.362 -0.5403  0.6865 -0.2642
17851TIP3    H275045   3.458   3.509   3.394 -0.6232  1.2422 -0.3137
17852TIP3   OH275046   6.610   4.870   2.814  0.1390  0.0330  0.0813
17852TIP3    H175047   6.554   4.805   2.856  1.3683 -0.3874  1.1272
17852TIP3    H275048   6.653   4.823   2.744 -1.8299  0.7096 -1.6966
17853TIP3   OH275049   2.796   3.548   0.097  0.0045 -0.2984  0.0935
17853TIP3    H175050   2.794   3.549   0.001 -4.1126 -0.6303  0.0281
17853TIP3    H275051   2.771   3.459   0.121 -0.2934  0.1321  1.4607
17854TIP3   OH275052   2.056   5.516   6.097 -0.1686 -0.3669  0.3185
17854TIP3    H175053   2.079   5.424   6.095  0.7543 -0.1494 -1.8566
17854TIP3    H275054   1.983   5.525   6.036  0.0481  0.4013  0.1509
17855TIP3   OH275055   0.403   4.468   0.437 -0.4205 -0.3207 -0.0489
17855TIP3    H175056   0.396   4.419   0.355  0.8825  1.1796 -1.1182
17855TIP3    H275057   0.486   4.514   0.431 -0.6175  0.3790  1.8329
17856TIP3   OH275058   1.522   5.388  12.743  0.5831 -0.5158 -0.8689
17856TIP3    H175059   1.473   5.334  12.806  1.1326 -0.8383 -0.7094
17856TIP3    H275060   1.612   5.357  12.750  1.1813  1.3299  0.2057
17857TIP3   OH275061   2.562   5.711  12.593  0.4367  0.3241  0.1058
17857TIP3    H175062   2.532   5.791  12.635  1.4250  0.1499  1.1826
17857TIP3    H275063   2.628   5.675  12.653  1.8408  0.0271 -1.5359
17858TIP3   OH275064   1.440   6.646  13.906 -0.3763 -0.6666 -0.0849
17858TIP3    H175065   1.366   6.697  13.875  2.1356  2.9359 -0.7439
17858TIP3    H275066   1.452   6.671  13.997  0.2802 -0.8770 -0.1022
17859TIP3   OH275067   1.706   1.194   4.973  0.7961 -0.0806 -0.0692
17859TIP3    H175068   1.675   1.179   5.062 -0.9720  1.2284 -0.4137
17859TIP3    H275069   1.726   1.106   4.940 -0.3080 -0.7769  1.0065
17860TIP3   OH275070   1.616   5.458  12.480 -0.5062 -0.0999 -0.5220
17860TIP3    H175071   1.626   5.537  12.534  0.1501  0.1412 -0.9813
17860TIP3    H275072   1.602   5.388  12.544 -2.1604  0.5205 -0.1471
17861TIP3   OH275073   3.399   5.817  12.789 -0.1416 -0.2015  0.2385
17861TIP3    H175074   3.485   5.831  12.828 -0.6279  0.7953  1.0153
17861TIP3    H275075   3.357   5.903  12.792 -0.9108 -0.5177 -0.7699
17862TIP3   OH275076   4.561   2.586   3.339 -0.1449  0.0488 -0.1266
17862TIP3    H175077   4.564   2.533   3.418  1.1281 -1.3301 -1.0424
17862TIP3    H275078   4.534   2.526   3.270  3.0034  0.0041 -1.5157
17863TIP3   OH275079   4.257   1.673  13.442 -0.4783  0.1037 -0.0996
17863TIP3    H175080   4.321   1.692  13.373 -0.9656  0.8235 -0.3660
17863TIP3    H275081   4.286   1.589  13.479  1.7087  1.3155  1.0905
17864TIP3   OH275082   2.743   3.973   1.541 -0.1977  0.7274 -0.6025
17864TIP3    H175083   2.723   4.007   1.454  0.9113 -2.1692 -2.1388
17864TIP3    H275084   2.765   3.881   1.526  2.3034  0.6634  2.4279
17865TIP3   OH275085   6.025   6.603   2.461  0.5784 -0.1481  0.3381
17865TIP3    H175086   6.001   6.694   2.481 -0.5494  0.0685 -1.6786
17865TIP3    H275087   6.057   6.606   2.371  1.2135 -1.6615  0.4830
17866TIP3   OH275088   2.708   0.693   3.147  0.1188 -0.4648 -1.0560
17866TIP3    H175089   2.644   0.706   3.217  0.4429  3.0116 -1.2400
17866TIP3    H275090   2.663   0.637   3.084 -1.5323 -0.7038  0.2548
17867TIP3   OH275091   0.281   6.282   4.146  0.7039 -0.1794  0.1237
17867TIP3    H175092   0.374   6.263   4.162  0.7633  0.3985  0.4805
17867TIP3    H275093   0.257   6.224   4.074  1.2515 -0.5870  0.2639
17868TIP3   OH275094   3.185   0.381   0.784  0.4939 -0.7645  0.1895
17868TIP3    H175095   3.090   0.382   0.773  0.4110 -1.0918  0.8592
17868TIP3    H275096   3.216   0.327   0.711  0.2151 -0.2389 -0.3301
17869TIP3   OH275097   2.791   0.482  11.180  0.1946 -0.5724  0.5654
17869TIP3    H175098   2.887   0.474  11.179  0.6196  2.3992  2.7908
17869TIP3    H275099   2.770   0.526  11.097  0.4687 -2.5950 -0.6574
17870TIP3   OH275100   0.832   1.126  15.742  0.2970 -0.2396 -0.1368
17870TIP3    H175101   0.767   1.057  15.755 -0.9016  1.0559  1.1056
17870TIP3    H275102   0.781   1.207  15.741  1.8796  0.8349  0.9757
17871TIP3   OH275103   0.306   0.949  10.788 -0.1683  0.7895  0.2920
17871TIP3    H175104   0.229   0.920  10.836 -0.5751  1.7005  0.2103
17871TIP3    H275105   0.277   0.954  10.696  0.4120 -0.2835  0.0309
17872TIP3   OH275106   6.644   3.052  13.101 -0.1114  0.0478  0.0886
17872TIP3    H175107   6.596   3.110  13.042 -1.8600 -0.7318  0.6478
17872TIP3    H275108   6.576   2.997  13.140  1.0928 -0.1566  2.0437
17873TIP3   OH275109   3.699   0.042  13.331  0.7110  0.2787  0.3715
17873TIP3    H175110   3.639   0.003  13.394  1.0183  0.5996  0.8620
17873TIP3    H275111   3.671   0.006  13.246 -0.4492  0.7648  0.5366
17874TIP3   OH275112   5.923   2.893  12.057 -0.3329 -0.4128 -0.0598
17874TIP3    H175113   5.869   2.933  11.989  1.2450  1.2370 -0.4274
17874TIP3    H275114   5.877   2.912  12.139  0.7996  3.2215 -0.0972
17875TIP3   OH275115   5.240   1.673  14.365 -0.0314  0.0930  0.2206
17875TIP3    H175116   5.288   1.670  14.448 -0.5218  0.9004  0.5405
17875TIP3    H275117   5.154   1.636  14.386  0.3932 -1.2639 -0.3290
17876TIP3   OH275118   0.601   5.123   2.119 -0.2994  0.3975 -0.0568
17876TIP3    H175119   0.626   5.129   2.027  0.6414 -0.3080  0.1486
17876TIP3    H275120   0.632   5.038   2.147 -1.9444 -0.0382  0.5268
17877TIP3   OH275121   5.425   3.844  16.540 -0.1616  1.2730 -0.8710
17877TIP3    H175122   5.369   3.922  16.537 -1.5008  0.3987  0.1933
17877TIP3    H275123   5.364   3.770  16.543  0.9828  0.3132  1.2263
17878TIP3   OH275124   3.144   3.485  11.637  0.1989 -0.1901 -0.1844
17878TIP3    H175125   3.119   3.437  11.716  0.1518 -1.9532 -1.2024
17878TIP3    H275126   3.063   3.488  11.585  1.1931 -3.4220 -2.2459
17879TIP3   OH275127   0.141   2.430  15.787  0.0008 -0.0243  0.6476
17879TIP3    H175128   0.146   2.478  15.870  0.4549  0.0601  0.5731
17879TIP3    H275129   0.146   2.498  15.720 -0.4272 -0.0879  0.5497
17880TIP3   OH275130   0.653   3.172  12.494  0.5381 -0.6407  0.1437
17880TIP3    H175131   0.566   3.210  12.507 -0.6336 -3.2815  0.7503
17880TIP3    H275132   0.708   3.215  12.559 -0.9939 -0.7994  1.6118
17881TIP3   OH275133   1.617   3.216   1.243  0.4816  0.5948 -0.0835
17881TIP3    H175134   1.571   3.295   1.216  0.4209  0.3961 -0.5891
17881TIP3    H275135   1.697   3.247   1.286  1.4470  0.9589 -1.9979
17882TIP3   OH275136   4.796   3.873   5.257  0.5977  0.0481  0.1942
17882TIP3    H175137   4.824   3.964   5.270  0.3098  0.0261  1.0697
17882TIP3    H275138   4.877   3.823   5.256  0.7818  0.3472 -0.6621
17883TIP3   OH275139   2.900   6.851  11.221 -0.3041 -0.0244 -0.1697
17883TIP3    H175140   2.870   6.823  11.135 -0.4411  0.4557 -0.2807
17883TIP3    H275141   2.922   6.770  11.266 -0.8301 -0.3189 -0.4340
17884TIP3   OH275142   0.606   1.604   5.114 -0.6449  0.5977  0.3907
17884TIP3    H175143   0.590   1.692   5.079  1.0780  1.3621  1.4062
17884TIP3    H275144   0.700   1.589   5.100 -1.2402 -2.0541 -1.7985
17885TIP3   OH275145   4.607   4.398   0.639 -0.5627  0.1746 -0.1959
17885TIP3    H175146   4.646   4.449   0.710 -0.4035  0.4888 -0.5056
17885TIP3    H275147   4.559   4.329   0.683 -0.1631  0.1493  0.2099
17886TIP3   OH275148   6.718   3.161  12.722 -0.4964  0.3334  0.4665
17886TIP3    H175149   6.786   3.109  12.680 -0.3761  0.7141  0.1840
17886TIP3    H275150   6.665   3.097  12.770 -0.2429 -0.0242  0.2754
17887TIP3   OH275151   2.620   0.962   0.301  0.3578 -0.0971 -0.0121
17887TIP3    H175152   2.672   0.935   0.226 -0.5249  0.2821 -0.7792
17887TIP3    H275153   2.669   1.036   0.338  1.0388 -0.5851  0.0770
17888TIP3   OH275154   5.616   5.086   1.404 -0.4115  0.2014 -0.0242
17888TIP3    H175155   5.613   5.057   1.495 -0.1694 -0.4616 -0.2210
17888TIP3    H275156   5.709   5.103   1.388 -0.6567  2.2784  0.4345
17889TIP3   OH275157   4.911   2.173   0.242  0.2499 -0.5268  0.1529
17889TIP3    H175158   4.889   2.264   0.258 -0.6378 -0.6695 -0.2178
17889TIP3    H275159   4.989   2.176   0.187 -0.2666  0.0126 -0.5547
17890TIP3   OH275160   5.869   0.570   1.584 -0.0426 -0.0743  0.1588
17890TIP3    H175161   5.960   0.589   1.562  0.1815 -0.9843  0.2379
17890TIP3    H275162   5.864   0.585   1.678 -0.2880  1.1220 -0.0316
17891TIP3   OH275163   0.138   4.896   2.617 -0.1877 -0.3612 -0.2659
17891TIP3    H175164   0.087   4.960   2.568  0.1369 -0.6732 -1.0326
17891TIP3    H275165   0.099   4.896   2.704  0.6223  1.8158  0.1475
17892TIP3   OH275166   5.877   5.882   2.701 -0.2635  0.3736 -0.0142
17892TIP3    H175167   5.841   5.829   2.773  0.0009 -0.2976 -0.3750
17892TIP3    H275168   5.941   5.939   2.744  2.0813 -2.0184 -0.0520
17893TIP3   OH275169   6.721   5.560  16.739  0.2018 -0.4362  0.1277
17893TIP3    H175170   6.671   5.522  16.812 -0.5906  0.0519 -0.1407
17893TIP3    H275171   6.677   5.644  16.722  0.7006 -0.3138 -0.5701
17894TIP3   OH275172   6.537   2.756  12.958 -0.1980 -0.3664  0.2958
17894TIP3    H175173   6.444   2.738  12.966 -0.3199  0.5630  1.2848
17894TIP3    H275174   6.544   2.820  12.886 -0.0608 -2.0482 -1.2575
17895TIP3   OH275175   0.366   2.203  13.961 -0.7983 -0.1805  0.4949
17895TIP3    H175176   0.295   2.142  13.940 -1.2722  0.7083 -0.6224
17895TIP3    H275177   0.446   2.152  13.949 -1.1903 -0.6513 -0.2487
17896TIP3   OH275178   6.630   3.038   0.154  0.1248 -0.5524  0.1067
17896TIP3    H175179   6.723   3.014   0.153  0.9986  2.1781  2.1678
17896TIP3    H275180   6.610   3.051   0.247 -2.2409 -0.6274 -0.3367
17897TIP3   OH275181   2.899   0.159  14.983  0.1521 -0.2114  0.6432
17897TIP3    H175182   2.923   0.252  14.981 -1.8675  0.3541  0.2445
17897TIP3    H275183   2.934   0.126  15.066 -1.0633  1.5254  1.9318
17898TIP3   OH275184   5.899   6.802  14.648  0.0081 -0.5644 -0.5913
17898TIP3    H175185   5.812   6.828  14.617  0.2834  1.5980  0.2825
17898TIP3    H275186   5.955   6.808  14.572 -0.3938 -0.9600 -0.9268
17899TIP3   OH275187   2.942   0.162  12.132 -0.0112  0.1634  0.6519
17899TIP3    H175188   3.017   0.209  12.094 -0.8939  0.6855 -0.5000
17899TIP3    H275189   2.899   0.226  12.188  0.4996 -0.1981  1.4783
17900TIP3   OH275190   4.358   5.702  13.666 -0.0709 -0.0490 -0.3219
17900TIP3    H175191   4.377   5.623  13.716  1.4027  0.6043  0.2287
17900TIP3    H275192   4.286   5.744  13.712  1.4429  0.6887  1.4983
17901TIP3   OH275193   2.989   3.971   5.976 -0.1197 -0.0286 -0.2411
17901TIP3    H175194   3.026   3.927   6.053 -1.0770  2.2766  1.6714
17901TIP3    H275195   2.943   4.047   6.012  1.4477  2.5833 -3.3214
17902TIP3   OH275196   6.780   3.326   0.630 -0.1348  0.3163  0.3804
17902TIP3    H175197   6.720   3.394   0.599  0.0464 -0.1784 -1.1126
17902TIP3    H275198   6.853   3.327   0.567  1.7484  1.2635  2.4205
17903TIP3   OH275199   4.651   0.913  13.637 -0.0097  0.3493  0.3811
17903TIP3    H175200   4.676   0.915  13.545  0.1161 -1.2209  0.3655
17903TIP3    H275201   4.572   0.860  13.640  0.3419 -0.1498  1.2494
17904TIP3   OH275202   2.352   3.291  17.068 -0.0733  0.0229 -0.3927
17904TIP3    H175203   2.394   3.376  17.061  0.9695 -0.5046 -0.7298
17904TIP3    H275204   2.422   3.228  17.054 -1.0207 -0.8862 -1.2798
17905TIP3   OH275205   1.457   2.489   6.186 -0.7533 -0.4439  0.4137
17905TIP3    H175206   1.436   2.418   6.246 -0.4301  1.4495  2.9098
17905TIP3    H275207   1.552   2.501   6.196 -0.7754  0.2224 -0.1172
17906TIP3   OH275208   3.593   0.649   5.872 -0.0836 -0.0518  0.0521
17906TIP3    H175209   3.639   0.643   5.955  0.1075  1.6600  0.1021
17906TIP3    H275210   3.589   0.743   5.853 -0.1704 -0.3982 -1.8431
17907TIP3   OH275211   2.457   0.081  12.064 -0.1051 -0.4548  0.7578
17907TIP3    H175212   2.488   0.115  12.149  2.6668  0.1070 -0.3825
17907TIP3    H275213   2.523   0.110  12.001 -1.9736 -1.0282 -1.6148
17908TIP3   OH275214   4.309   0.602  16.176 -0.5698  0.3817  0.0936
17908TIP3    H175215   4.330   0.650  16.257 -0.3961 -0.0146  0.2860
17908TIP3    H275216   4.220   0.570  16.190 -0.0585 -0.8242  0.6892
17909TIP3   OH275217   3.127   1.525   0.389  0.1155  1.1273 -0.8687
17909TIP3    H175218   3.186   1.470   0.441  0.7940  0.8527 -1.9099
17909TIP3    H275219   3.131   1.610   0.433 -1.1607  0.3358  0.9273
17910TIP3   OH275220   2.130   3.448  13.196 -0.0250  0.4373  0.1818
17910TIP3    H175221   2.119   3.389  13.122  1.1478 -0.3057  0.5689
17910TIP3    H275222   2.209   3.498  13.175  0.4034  0.1139  0.9792
17911TIP3   OH275223   5.531   2.574  15.182 -0.5206 -0.0109  0.3695
17911TIP3    H175224   5.570   2.637  15.122  1.0074 -1.1562  0.0835
17911TIP3    H275225   5.543   2.614  15.269 -0.8827  0.7269  0.0882
17912TIP3   OH275226   3.222   6.040   5.677 -0.0827  0.8479  0.3022
17912TIP3    H175227   3.174   6.089   5.610 -0.8349 -0.2697 -0.0129
17912TIP3    H275228   3.280   5.982   5.626  0.4933  1.1076  0.6565
17913TIP3   OH275229   4.388   5.391   2.418  0.1546  0.1731 -0.6579
17913TIP3    H175230   4.462   5.391   2.357  0.3791  1.2737 -0.4176
17913TIP3    H275231   4.311   5.382   2.362  0.4838 -1.7011 -0.8542
17914TIP3   OH275232   5.817   5.605  13.621  0.3912  0.2023 -0.0121
17914TIP3    H175233   5.751   5.568  13.563 -0.4938  0.0334  1.0517
17914TIP3    H275234   5.810   5.700  13.608  0.9067  0.1288 -0.8997
17915TIP3   OH275235   3.284   1.300  11.177 -0.3541  0.3896  0.2182
17915TIP3    H175236   3.333   1.243  11.117 -1.2481 -2.8421  2.2919
17915TIP3    H275237   3.352   1.349  11.223  0.9507 -2.5097  1.6169
17916TIP3   OH275238   2.699   2.644  16.289 -0.1745  0.4181 -0.5663
17916TIP3    H175239   2.778   2.692  16.263  1.2900 -0.0856  2.4854
17916TIP3    H275240   2.642   2.711  16.328  0.9990  0.1365  1.8204
17917TIP3   OH275241   1.346   0.442  11.468  0.2531  0.1903  0.1917
17917TIP3    H175242   1.257   0.471  11.448  0.6787  2.4829  1.2576
17917TIP3    H275243   1.335   0.365  11.523 -1.0925  0.5063  0.3918
17918TIP3   OH275244   0.210   5.478   0.338 -0.0390  0.2407 -0.1249
17918TIP3    H175245   0.288   5.438   0.300  0.2940  0.1726  0.6112
17918TIP3    H275246   0.138   5.419   0.313  0.1681  0.1986 -0.6398
17919TIP3   OH275247   4.861   2.475  17.039 -0.4895  0.4204 -0.1991
17919TIP3    H175248   4.821   2.388  17.036  1.0601 -0.4143  1.4764
17919TIP3    H275249   4.824   2.516  17.118  1.4253 -0.1514  1.0584
17920TIP3   OH275250   6.075   3.715  14.781  0.6525  0.5145 -0.4724
17920TIP3    H175251   6.057   3.625  14.808  0.7372  0.5444 -0.3138
17920TIP3    H275252   6.167   3.715  14.756  1.1006  0.9283  1.1000
17921TIP3   OH275253   2.214   3.279   5.841  0.0940 -0.1899 -0.0788
17921TIP3    H175254   2.208   3.193   5.883 -0.2400 -0.4952 -0.7360
17921TIP3    H275255   2.165   3.338   5.899 -0.2598 -0.5791  0.0191
17922TIP3   OH275256   1.436   2.174  11.238  0.1124  0.2685 -0.4469
17922TIP3    H175257   1.367   2.120  11.199 -0.4380  1.3602 -1.0456
17922TIP3    H275258   1.486   2.207  11.164 -0.7083  2.0658 -0.2522
17923TIP3   OH275259   4.705   1.323  11.644  0.4161 -0.4646  0.6577
17923TIP3    H175260   4.683   1.244  11.594  0.6086  0.3513 -0.7790
17923TIP3    H275261   4.678   1.303  11.734 -1.3513 -1.4252 -0.0423
17924TIP3   OH275262   6.224   4.393   2.861  0.5039 -0.7687 -0.1423
17924TIP3    H175263   6.170   4.348   2.926  0.2110  0.2454  0.3356
17924TIP3    H275264   6.305   4.414   2.908  1.4403 -2.4740 -0.9170
17925TIP3   OH275265   3.914   6.585  15.825  0.7781 -0.7459  0.5058
17925TIP3    H175266   3.885   6.495  15.837  0.5913 -0.6119  1.1027
17925TIP3    H275267   3.850   6.637  15.873  0.4468 -0.2301 -0.4671
17926TIP3   OH275268   6.155   3.381   4.580  0.1765  0.6264 -0.3426
17926TIP3    H175269   6.075   3.357   4.533 -0.0698  0.3446  0.2111
17926TIP3    H275270   6.188   3.298   4.615  1.3348  0.5600 -1.4997
17927TIP3   OH275271   5.999   0.955  10.988 -0.2463 -0.2616  0.0894
17927TIP3    H175272   6.016   0.962  10.894 -1.6507 -0.9913 -0.2415
17927TIP3    H275273   6.076   0.995  11.029 -0.8776  2.8056 -1.3928
17928TIP3   OH275274   3.395   6.707  10.864 -0.0870  0.1379 -0.6144
17928TIP3    H175275   3.331   6.741  10.802  0.6298  1.7540 -0.5216
17928TIP3    H275276   3.351   6.713  10.949 -0.1772  0.2883 -0.6713
17929TIP3   OH275277   4.421   1.470   3.063 -0.1285 -0.3364 -0.1316
17929TIP3    H175278   4.414   1.447   3.156 -0.0582 -2.9213 -0.7047
17929TIP3    H275279   4.352   1.419   3.020 -0.0492  0.6885 -1.5609
17930TIP3   OH275280   0.241   0.843   1.059 -0.0413 -0.1488  0.0711
17930TIP3    H175281   0.150   0.852   1.028  0.3606 -0.6455 -1.3474
17930TIP3    H275282   0.267   0.755   1.032  1.4393  0.6266 -1.2419
17931TIP3   OH275283   0.851   5.163  16.715 -0.1651  0.1809  0.2480
17931TIP3    H175284   0.935   5.125  16.689 -0.9829 -1.6429  0.1387
17931TIP3    H275285   0.789   5.131  16.650 -1.1719  0.4302  1.0660
17932TIP3   OH275286   5.052   5.573   3.701  0.4214 -0.0289  0.3758
17932TIP3    H175287   5.129   5.547   3.752  1.9980 -0.9414 -2.2532
17932TIP3    H275288   4.991   5.500   3.708 -0.2728  0.6818  2.4433
17933TIP3   OH275289   0.701   5.784  14.673 -0.0307  0.0502 -0.0449
17933TIP3    H175290   0.673   5.824  14.755 -0.0567  2.1712 -1.0254
17933TIP3    H275291   0.637   5.715  14.656 -1.6405  1.3842  0.3666
17934TIP3   OH275292   1.638   3.933   2.641  0.6771  0.0536 -0.2073
17934TIP3    H175293   1.592   3.894   2.567  0.8505 -0.4434 -0.0580
17934TIP3    H275294   1.716   3.974   2.603  0.4624  0.3100 -0.3722
17935TIP3   OH275295   4.858   2.038  16.795  0.3360  0.3543  0.0775
17935TIP3    H175296   4.773   2.060  16.834  1.2965  2.4457  1.1730
17935TIP3    H275297   4.860   1.943  16.795 -1.8726  0.2417  0.3025
17936TIP3   OH275298   2.036   1.992  15.679 -0.9526  0.1077  0.0077
17936TIP3    H175299   1.952   1.953  15.654 -0.4854 -0.0776 -1.2903
17936TIP3    H275300   2.080   2.012  15.597  0.7076 -0.6744  0.6594
17937TIP3   OH275301   1.850   2.484   4.574 -0.0906  0.2218  0.0712
17937TIP3    H175302   1.907   2.537   4.629  0.5337 -2.4162  2.1603
17937TIP3    H275303   1.765   2.485   4.619 -0.8752  1.5846 -1.3469
17938TIP3   OH275304   3.123   3.422  15.886  1.0663  0.4052 -0.1427
17938TIP3    H175305   3.044   3.449  15.933  1.2048  1.7031 -0.6214
17938TIP3    H275306   3.195   3.437  15.947  0.9219 -1.4146  0.5429
17939TIP3   OH275307   1.091   1.449   5.952  0.3676 -0.2844  0.4209
17939TIP3    H175308   1.049   1.424   6.035 -0.5017  0.4360  0.2073
17939TIP3    H275309   1.123   1.538   5.967 -1.8847  0.8037 -0.7329
17940TIP3   OH275310   0.092   1.745  15.544 -0.2423  0.2131  0.0880
17940TIP3    H175311   0.061   1.803  15.614 -0.3909 -1.1733  1.2290
17940TIP3    H275312   0.187   1.750  15.549 -0.2410  1.1996 -0.5818
17941TIP3   OH275313   3.471   2.568   0.517 -0.6200  0.1496  0.3136
17941TIP3    H175314   3.556   2.574   0.560 -0.6875  0.5609  0.3928
17941TIP3    H275315   3.408   2.561   0.589 -0.7005  0.4373  0.2712
17942TIP3   OH275316   6.719   5.025   4.485  0.6960 -0.3226 -0.7873
17942TIP3    H175317   6.737   4.981   4.568  0.0959  1.9481  0.6406
17942TIP3    H275318   6.782   5.097   4.482 -1.5270  1.7488 -0.5160
17943TIP3   OH275319   0.708   0.104  15.131 -0.7304 -0.6938 -0.8649
17943TIP3    H175320   0.791   0.076  15.170 -0.0622 -0.0773 -1.8159
17943TIP3    H275321   0.643   0.086  15.199  0.5457  1.5281  1.0975
17944TIP3   OH275322   3.766   2.856   3.883 -0.1273  0.3145  0.0725
17944TIP3    H175323   3.775   2.808   3.801 -0.6063  0.3091  0.0177
17944TIP3    H275324   3.749   2.789   3.949  1.8042  0.1682  0.4594
17945TIP3   OH275325   1.057   4.235  16.561  0.2924  0.4330  0.0357
17945TIP3    H175326   0.975   4.284  16.567 -0.5692 -0.9721  0.2923
17945TIP3    H275327   1.116   4.292  16.511 -0.7348  1.5903  0.0889
17946TIP3   OH275328   4.842   3.357  11.024 -0.4519 -0.9208  0.4949
17946TIP3    H175329   4.800   3.440  11.047  1.9716  0.4922  0.1474
17946TIP3    H275330   4.935   3.379  11.016 -0.0877 -2.9912 -2.7152
17947TIP3   OH275331   3.950   4.604  14.602  0.7097  0.3945 -0.4508
17947TIP3    H175332   3.933   4.641  14.689 -0.4855  2.0537 -1.3281
17947TIP3    H275333   3.977   4.514  14.619 -0.9598  0.1894  1.5559
17948TIP3   OH275334   3.029   5.335   2.927  0.6679  0.5324 -0.1695
17948TIP3    H175335   2.938   5.339   2.896  0.4354 -0.0295  0.4162
17948TIP3    H275336   3.081   5.351   2.849  0.0734  0.3198 -0.6191
17949TIP3   OH275337   5.135   6.243  12.319 -0.0706 -0.0592  0.0007
17949TIP3    H175338   5.180   6.326  12.338 -0.0343 -0.3066  1.0578
17949TIP3    H275339   5.177   6.211  12.239  0.8530  0.2818  0.3313
17950TIP3   OH275340   6.422   4.381   0.324  0.5297  0.5145  0.0113
17950TIP3    H175341   6.354   4.325   0.285  3.2666 -3.1286 -0.1151
17950TIP3    H275342   6.390   4.399   0.412 -0.8823 -0.5054 -0.2463
17951TIP3   OH275343   5.784   6.211   4.567 -0.3542 -0.1246 -0.0507
17951TIP3    H175344   5.694   6.188   4.546 -0.1091 -1.3573  0.1350
17951TIP3    H275345   5.798   6.178   4.655  0.0800  0.6766  0.1914
17952TIP3   OH275346   0.136   3.836   3.143 -0.1987 -0.1209  0.3269
17952TIP3    H175347   0.202   3.851   3.076  0.6747  1.3698  1.4549
17952TIP3    H275348   0.169   3.762   3.193  0.7914  0.7677  1.0382
17953TIP3   OH275349   3.724   4.826  16.732  0.5703 -0.2983  0.8399
17953TIP3    H175350   3.750   4.902  16.784  1.9089  0.1349 -0.4082
17953TIP3    H275351   3.805   4.778  16.717  0.6629  0.6103 -2.4231
17954TIP3   OH275352   3.838   1.404  14.137 -0.3582  0.3537 -0.0328
17954TIP3    H175353   3.836   1.477  14.075  0.8193 -0.4252 -1.0267
17954TIP3    H275354   3.824   1.445  14.222 -2.2466  1.4146 -0.8090
17955TIP3   OH275355   6.342   6.166   2.119 -0.0314  0.1277  0.4217
17955TIP3    H175356   6.395   6.182   2.198 -1.1350  0.8472  1.0436
17955TIP3    H275357   6.402   6.123   2.058  1.0621  0.2642  1.3694
17956TIP3   OH275358   5.688   5.340   2.552  0.5264 -0.4906 -0.5427
17956TIP3    H175359   5.612   5.396   2.533  1.4883  0.7245 -0.9458
17956TIP3    H275360   5.653   5.251   2.547 -1.1938  0.0574  0.7305
17957TIP3   OH275361   2.446   5.130  11.187 -0.3657  0.2389  0.5839
17957TIP3    H175362   2.393   5.103  11.111 -0.5944  1.8602  0.1375
17957TIP3    H275363   2.395   5.100  11.263 -2.1348  2.0021  0.1761
17958TIP3   OH275364   2.524   6.081  10.702  0.1197 -0.0021  0.0805
17958TIP3    H175365   2.429   6.071  10.703  0.1466 -1.1486  3.2026
17958TIP3    H275366   2.552   6.040  10.620 -2.0724  0.6965 -1.0680
17959TIP3   OH275367   0.282   2.992  14.908  0.9442  0.2730 -0.0818
17959TIP3    H175368   0.323   3.037  14.835  0.0225  0.5823 -0.4173
17959TIP3    H275369   0.188   3.007  14.897  0.8189  1.0554  1.6197
17960TIP3   OH275370   3.099   4.665   3.997  0.3437 -0.2634 -0.5912
17960TIP3    H175371   3.129   4.618   4.074 -0.4891 -1.7773 -1.1435
17960TIP3    H275372   3.167   4.650   3.931  1.6766  2.0474  0.1174
17961TIP3   OH275373   4.312   4.002  14.067 -0.1053  0.1626  0.5104
17961TIP3    H175374   4.382   4.064  14.045 -1.9074  1.7673 -1.1859
17961TIP3    H275375   4.286   4.025  14.156 -1.7006  2.9894 -0.5670
17962TIP3   OH275376   5.408   1.261   5.181 -0.5620 -0.6733  0.5400
17962TIP3    H175377   5.454   1.285   5.261 -0.9218 -0.3075  0.6388
17962TIP3    H275378   5.362   1.180   5.203  0.4085 -1.3102  0.2972
17963TIP3   OH275379   2.632   2.899   2.533  0.4508 -0.4410 -0.0489
17963TIP3    H175380   2.550   2.948   2.531 -1.1829 -2.6711  3.1218
17963TIP3    H275381   2.646   2.871   2.443 -2.3241  0.0103 -0.7181
17964TIP3   OH275382   1.167   3.458   3.967  0.2182  0.0928  0.3030
17964TIP3    H175383   1.175   3.380   3.912  2.0625 -0.4998  1.3272
17964TIP3    H275384   1.250   3.463   4.014 -0.6745  1.4902  1.8447
17965TIP3   OH275385   5.339   1.523   2.040 -0.0905  0.2238  0.4592
17965TIP3    H175386   5.299   1.600   2.001 -1.9464 -1.0223 -0.2749
17965TIP3    H275387   5.391   1.556   2.113 -2.1492  2.0420  1.2043
17966TIP3   OH275388   3.176   4.048   2.482 -0.2136  0.1790  0.1485
17966TIP3    H175389   3.174   4.056   2.577  0.7096 -1.6600  0.3589
17966TIP3    H275390   3.236   4.117   2.453  0.6165 -0.1631  1.0306
17967TIP3   OH275391   2.698   1.688   1.216 -0.4031  0.2922 -0.9264
17967TIP3    H175392   2.771   1.634   1.245 -0.8256  0.0311 -0.3051
17967TIP3    H275393   2.668   1.647   1.135  0.0620  0.3377 -1.1250
17968TIP3   OH275394   5.693   1.193   0.502  0.1912 -0.3284  0.3019
17968TIP3    H175395   5.715   1.211   0.594  1.9461 -1.0863  0.0792
17968TIP3    H275396   5.675   1.099   0.500 -2.1942  0.0691  0.2498
17969TIP3   OH275397   5.343   0.199  12.699 -0.1708 -0.7117 -0.1903
17969TIP3    H175398   5.332   0.113  12.740  0.3013 -0.3757  0.6613
17969TIP3    H275399   5.436   0.206  12.682 -0.4576 -1.2466 -2.2629
17970TIP3   OH275400   1.375   5.311   4.941 -0.3590 -0.0510  0.3244
17970TIP3    H175401   1.459   5.282   4.977 -1.0360 -1.0131  1.1461
17970TIP3    H275402   1.354   5.390   4.990  0.3548  0.5610 -0.3222
17971TIP3   OH275403   1.781   1.557  15.342  0.2707  0.6165 -0.1250
17971TIP3    H175404   1.787   1.502  15.420 -0.4471 -1.3952 -1.4041
17971TIP3    H275405   1.689   1.584  15.339 -0.3338 -1.3537 -1.4979
17972TIP3   OH275406   2.110   0.473   5.226  0.7813  0.2481 -0.2361
17972TIP3    H175407   2.128   0.487   5.319 -2.0188 -1.5841  0.7172
17972TIP3    H275408   2.170   0.403   5.201  0.5097 -0.3178  0.6437
17973TIP3   OH275409   3.300   1.408  13.989  0.0538 -0.1585 -0.0335
17973TIP3    H175410   3.279   1.489  13.944 -3.1444 -0.2419  1.0261
17973TIP3    H275411   3.357   1.434  14.061  0.6576  0.8266 -0.8507
17974TIP3   OH275412   0.474   0.332   1.268 -0.1141 -0.4100  0.1560
17974TIP3    H175413   0.420   0.289   1.202 -0.3349  0.7925 -0.4682
17974TIP3    H275414   0.463   0.426   1.252  0.9385 -0.1102  1.0109
17975TIP3   OH275415   0.683   1.863  14.826  0.4934 -0.5349  0.0533
17975TIP3    H175416   0.654   1.948  14.857  0.8950 -0.5514  0.4787
17975TIP3    H275417   0.715   1.879  14.737 -2.0640 -0.7510 -1.0059
17976TIP3   OH275418   3.617   5.247  16.234  0.0727  0.0918  0.0009
17976TIP3    H175419   3.592   5.296  16.156  0.3775  0.1641 -0.0534
17976TIP3    H275420   3.579   5.296  16.307  0.4482  0.4656 -0.0470
17977TIP3   OH275421   0.255   1.544  12.400  0.3935  0.3850 -0.1409
17977TIP3    H175422   0.272   1.455  12.431 -1.2885  1.3472  4.1238
17977TIP3    H275423   0.171   1.538  12.356  0.0077 -0.0711  0.6313
17978TIP3   OH275424   5.059   0.096   2.926 -0.4787 -0.5226  0.4119
17978TIP3    H175425   4.971   0.087   2.963  0.3758 -1.3101  2.4388
17978TIP3    H275426   5.101   0.161   2.983  0.4944 -0.7507 -0.0406
17979TIP3   OH275427   5.357   2.699   3.407  0.3652 -0.0736 -0.1203
17979TIP3    H175428   5.307   2.650   3.473 -1.5688  0.5071 -1.0987
17979TIP3    H275429   5.383   2.780   3.452 -1.3136  0.5189 -0.1506
17980TIP3   OH275430   3.555   2.278  11.761  0.2181  0.4484  0.2245
17980TIP3    H175431   3.565   2.295  11.667 -0.1699  0.3028  0.1547
17980TIP3    H275432   3.505   2.197  11.765  0.3079  0.4091  0.5599
17981TIP3   OH275433   2.701   0.392  15.486  0.5981 -0.3076 -0.3685
17981TIP3    H175434   2.627   0.453  15.490 -0.2470 -1.3121  0.1657
17981TIP3    H275435   2.728   0.382  15.577 -0.3788 -1.9636 -0.2118
17982TIP3   OH275436   2.597   0.802   4.610  0.5488  0.2001  0.9731
17982TIP3    H175437   2.647   0.779   4.532  1.6555 -1.5329  2.1344
17982TIP3    H275438   2.506   0.780   4.589  0.8294 -0.2107  0.1713
17983TIP3   OH275439   6.496   2.130   5.198 -0.3393 -0.5288 -0.4206
17983TIP3    H175440   6.563   2.064   5.219  0.4791 -0.0169 -1.3171
17983TIP3    H275441   6.519   2.159   5.110 -2.2849 -0.9667 -1.1252
17984TIP3   OH275442   6.431   3.805   2.797 -0.1485 -0.6864  0.2453
17984TIP3    H175443   6.427   3.868   2.725  1.5143 -0.6960  0.1206
17984TIP3    H275444   6.354   3.749   2.783 -2.4642  2.0541  1.1371
17985TIP3   OH275445   1.532   4.160  15.030  0.1849 -0.1184  0.1132
17985TIP3    H175446   1.600   4.161  14.962 -0.1436  1.4256 -0.2250
17985TIP3    H275447   1.572   4.200  15.106  0.9067 -2.8138  1.2774
17986TIP3   OH275448   6.738   2.556  11.322  0.2989 -0.3776  0.5696
17986TIP3    H175449   6.676   2.483  11.330 -0.2316 -0.0752 -0.5835
17986TIP3    H275450   6.689   2.624  11.275  0.6720  0.8669  1.8960
17987TIP3   OH275451   4.120   1.787   4.560  0.2232 -0.4552  0.1507
17987TIP3    H175452   4.207   1.768   4.524 -0.0303 -0.1248 -0.6580
17987TIP3    H275453   4.090   1.863   4.511 -0.4293 -0.4173  0.5972
17988TIP3   OH275454   1.161   1.397   4.233 -0.1321 -0.0868  0.3361
17988TIP3    H175455   1.082   1.396   4.179 -0.2623  2.1668  0.3669
17988TIP3    H275456   1.147   1.470   4.293  1.1918 -0.8343  1.6055
17989TIP3   OH275457   0.124   3.829   5.821 -0.2100 -0.1302  0.4296
17989TIP3    H175458   0.071   3.789   5.890 -1.0912 -0.9318 -0.6714
17989TIP3    H275459   0.105   3.777   5.743  1.2855  0.3207 -0.2773
17990TIP3   OH275460   2.547   2.679   2.903  0.5220 -0.3280 -0.1292
17990TIP3    H175461   2.584   2.593   2.886  2.0418  0.0092  1.1204
17990TIP3    H275462   2.484   2.665   2.974  0.7249 -0.4235  0.0323
17991TIP3   OH275463   5.928   3.158  16.292 -0.5428 -0.3632 -0.0582
17991TIP3    H175464   5.942   3.203  16.376  0.7792  0.5377 -0.7303
17991TIP3    H275465   5.889   3.225  16.236  2.0665  0.2606 -1.2798
17992TIP3   OH275466   0.594   3.361   4.034  0.4872 -0.1384 -0.2436
17992TIP3    H175467   0.611   3.397   3.947 -0.6398  0.0369 -0.4095
17992TIP3    H275468   0.519   3.411   4.066  0.5411 -0.5827  0.6021
17993TIP3   OH275469   4.270   6.132   1.811 -0.3280 -0.2228 -0.1643
17993TIP3    H175470   4.320   6.214   1.821  0.6880 -0.9909  1.5999
17993TIP3    H275471   4.267   6.117   1.717  4.0975 -0.8239 -0.4362
17994TIP3   OH275472   2.911   1.859  14.511  0.0457 -0.4926 -0.8398
17994TIP3    H175473   2.873   1.943  14.486 -0.4832 -0.7887 -1.0502
17994TIP3    H275474   2.973   1.880  14.580 -0.2029  0.0518 -0.7803
17995TIP3   OH275475   2.030   2.511  12.777 -0.3730  0.3357  0.3029
17995TIP3    H175476   1.940   2.520  12.746 -1.4343 -0.2353  2.9924
17995TIP3    H275477   2.056   2.423  12.747 -0.7485  0.4307 -0.3283
17996TIP3   OH275478   2.871   6.580   0.514 -0.1342 -0.4118 -0.3398
17996TIP3    H175479   2.945   6.553   0.568 -0.0537  0.8998  0.2238
17996TIP3    H275480   2.794   6.557   0.566 -0.0588  2.3536  1.1937
17997TIP3   OH275481   0.206   6.160   2.653 -0.4148 -0.1461 -0.4876
17997TIP3    H175482   0.260   6.187   2.578 -1.5810 -1.4913 -1.8931
17997TIP3    H275483   0.123   6.132   2.613 -1.5362  0.2756  1.4474
17998TIP3   OH275484   0.128   0.213  10.887  0.1486  0.0934  0.1795
17998TIP3    H175485   0.186   0.157  10.938 -0.9309  0.8715  2.3615
17998TIP3    H275486   0.185   0.250  10.819  1.8773 -0.2421  1.3758
17999TIP3   OH275487   1.875   3.424   0.867  0.0000  0.2127  0.1867
17999TIP3    H175488   1.848   3.356   0.806  0.7268 -1.3990  1.5934
17999TIP3    H275489   1.924   3.486   0.813  1.0778 -1.4312 -0.8143
18000TIP3   OH275490   3.096   5.567   4.042 -0.1095  0.5505  0.2475
18000TIP3    H175491   3.141   5.626   4.103 -1.5415  1.1193  0.7940
18000TIP3    H275492   3.027   5.527   4.094 -1.5960  1.3186 -1.0787
18001TIP3   OH275493   1.355   3.375  12.693 -0.0324 -0.8483  0.0496
18001TIP3    H175494   1.384   3.325  12.769 -0.7220 -0.3058  0.6869
18001TIP3    H275495   1.260   3.382  12.703  0.0179  0.3510 -0.1566
18002TIP3   OH275496   1.991   4.606  12.610  0.5010  0.1385  0.3325
18002TIP3    H175497   1.941   4.686  12.599  0.1198  0.1465  1.9169
18002TIP3    H275498   1.935   4.550  12.664  1.1987 -0.7836  0.1257
18003TIP3   OH275499   5.653   3.828  16.971 -0.2175  0.0137  0.2470
18003TIP3    H175500   5.605   3.884  16.910 -0.4381  0.4359  0.8002
18003TIP3    H275501   5.737   3.871  16.982 -0.5065  0.4152  0.9217
18004TIP3   OH275502   2.624   1.012  12.742  0.2948 -0.4190  0.5659
18004TIP3    H175503   2.568   0.961  12.684 -0.9068 -0.1863  1.4635
18004TIP3    H275504   2.667   0.946  12.797  0.0115 -0.5603  0.6243
18005TIP3   OH275505   0.955   3.651   3.687  0.5726  0.0070 -0.1438
18005TIP3    H175506   1.023   3.708   3.650  0.4962  0.0955 -0.1488
18005TIP3    H275507   0.921   3.603   3.611 -0.6621  1.3134 -0.4607
18006TIP3   OH275508   6.499   0.168   1.043 -0.0484  0.5237 -0.0124
18006TIP3    H175509   6.510   0.111   1.119 -0.9163 -0.5213 -0.6492
18006TIP3    H275510   6.522   0.113   0.968 -1.5500  0.7790 -0.6904
18007TIP3   OH275511   1.434   3.692   2.142 -0.0968  0.3389  0.0301
18007TIP3    H175512   1.363   3.673   2.204 -1.5477  0.3261 -1.5437
18007TIP3    H275513   1.465   3.606   2.115 -1.2217  0.2611 -1.1257
18008TIP3   OH275514   5.082   5.078  12.792 -0.0369  0.8934  0.1812
18008TIP3    H175515   5.127   5.055  12.873 -1.0039 -3.1247 -0.2228
18008TIP3    H275516   5.151   5.081  12.725  0.2413 -0.6311  0.3672
18009TIP3   OH275517   3.297   3.989   0.654 -0.3929 -0.2002  0.4383
18009TIP3    H175518   3.353   3.985   0.576  0.4468 -1.7088  1.0859
18009TIP3    H275519   3.211   4.014   0.620  0.4236  1.2087 -0.7030
18010TIP3   OH275520   0.399   5.567   5.297 -0.1378 -0.1483  0.6732
18010TIP3    H175521   0.330   5.567   5.363  1.2746  1.1348  2.2508
18010TIP3    H275522   0.463   5.503   5.329  0.4343  0.2813  0.4091
18011TIP3   OH275523   5.458   1.988   2.350  0.1567  0.0942 -0.6007
18011TIP3    H175524   5.475   1.914   2.292 -0.4404  0.0631 -0.7450
18011TIP3    H275525   5.501   2.063   2.307  0.3049 -0.0622 -0.7253
18012TIP3   OH275526   1.468   0.749   5.638 -0.0981 -0.6156 -0.7147
18012TIP3    H175527   1.468   0.660   5.604  3.0541 -0.7247 -0.7423
18012TIP3    H275528   1.477   0.739   5.733 -1.1232 -0.2866 -0.5654
18013TIP3   OH275529   4.043   3.722  15.190  0.2317 -0.1090 -0.0932
18013TIP3    H175530   3.976   3.731  15.122  1.7672 -1.3063 -1.8557
18013TIP3    H275531   4.085   3.808  15.194  0.1825 -0.0550 -0.6924
18014TIP3   OH275532   5.483   5.547   5.962  0.1876 -0.4726  0.0397
18014TIP3    H175533   5.429   5.609   6.011 -0.4389 -2.2992  1.8021
18014TIP3    H275534   5.508   5.594   5.883 -1.9513  1.3039  0.3308
18015TIP3   OH275535   5.500   1.434   1.475 -0.1429  0.0714  0.2142
18015TIP3    H175536   5.548   1.356   1.447 -2.1375 -0.8383 -0.9107
18015TIP3    H275537   5.468   1.413   1.563  0.5501  0.2268  0.5069
18016TIP3   OH275538   5.694   5.340   1.137 -0.4385  0.1542  0.2788
18016TIP3    H175539   5.706   5.356   1.231 -0.7949  1.5325  0.1171
18016TIP3    H275540   5.783   5.341   1.101 -0.2023 -1.4988  0.7292
18017TIP3   OH275541   6.036   5.803   3.107 -0.3483 -0.4286  0.6460
18017TIP3    H175542   6.067   5.724   3.063 -0.2334  0.4700 -0.9661
18017TIP3    H275543   5.942   5.804   3.090 -0.2896 -0.0381  0.2999
18018TIP3   OH275544   4.451   5.032   6.322 -0.1274 -0.1180  0.4738
18018TIP3    H175545   4.461   5.076   6.406 -2.7737 -0.8334  1.2575
18018TIP3    H275546   4.362   5.054   6.293  0.2143 -1.0393 -1.4552
18019TIP3   OH275547   6.511   5.523  15.790  0.2997  1.0503 -0.4944
18019TIP3    H175548   6.439   5.556  15.844  0.9148 -0.9182  1.7177
18019TIP3    H275549   6.572   5.596  15.783  0.5513  1.2040  2.2503
18020TIP3   OH275550   5.744   4.179   3.135  0.4554  0.1518  0.0599
18020TIP3    H175551   5.783   4.224   3.209  1.0738 -0.5843  0.1874
18020TIP3    H275552   5.810   4.115   3.107 -0.0173 -0.0123 -0.7263
18021TIP3   OH275553   1.065   2.464   2.230  0.3804  0.3262  0.4084
18021TIP3    H175554   1.033   2.425   2.148  0.5549 -0.7979  0.8639
18021TIP3    H275555   1.018   2.547   2.236  2.4799  1.8963 -2.3079
18022TIP3   OH275556   5.446   4.972   6.121  0.0964 -0.1225  0.5792
18022TIP3    H175557   5.505   5.025   6.175  0.6696 -1.4382  1.3097
18022TIP3    H275558   5.502   4.941   6.049  0.1210 -0.7505  0.8574
18023TIP3   OH275559   5.237   3.548  12.978  0.5991  0.0419  0.2108
18023TIP3    H175560   5.278   3.548  12.892 -0.5032  1.0652 -0.3344
18023TIP3    H275561   5.261   3.632  13.016  0.3340 -0.0281  0.5371
18024TIP3   OH275562   5.805   0.196   6.316  0.4677 -0.4923  0.1476
18024TIP3    H175563   5.799   0.124   6.379  2.7319 -0.2759  0.6717
18024TIP3    H275564   5.897   0.223   6.318 -0.2005  2.1068 -0.3992
18025TIP3   OH275565   5.346   1.391   1.750 -0.3886 -0.5851 -0.5183
18025TIP3    H175566   5.268   1.446   1.749  0.8732  1.2714 -0.3193
18025TIP3    H275567   5.387   1.409   1.834  2.2800  1.5251 -2.1086
18026TIP3   OH275568   4.161   2.535  10.928  0.7999  0.2305  0.3551
18026TIP3    H175569   4.107   2.477  10.875  1.1860  1.2261 -1.1974
18026TIP3    H275570   4.248   2.495  10.926  0.7594  0.1358  0.4584
18027TIP3   OH275571   4.270   2.760  15.236  0.2236  0.8932 -0.3123
18027TIP3    H175572   4.298   2.709  15.311 -0.1094  0.3529 -0.5499
18027TIP3    H275573   4.199   2.815  15.269  0.3177  0.9181 -0.1502
18028TIP3   OH275574   2.341   2.364  11.551  0.0186 -0.7515  0.3744
18028TIP3    H175575   2.429   2.399  11.541 -0.5263  0.7848  0.7287
18028TIP3    H275576   2.339   2.288  11.493  2.0677 -1.8132  1.5981
18029TIP3   OH275577   0.081   4.346   2.375 -0.2562  0.0218 -0.1314
18029TIP3    H175578  -0.011   4.322   2.366 -0.2535  0.0133 -0.1344
18029TIP3    H275579   0.128   4.279   2.326 -0.2149 -0.2702  0.3025
18030TIP3   OH275580   4.510   2.280   6.837 -0.2127  0.1746 -0.1797
18030TIP3    H175581   4.468   2.226   6.769  2.4053 -1.0920 -0.9313
18030TIP3    H275582   4.527   2.364   6.793 -2.2965  0.8916  0.2934
18031TIP3   OH275583   3.003   5.521   3.238 -0.1693  0.2300  0.2677
18031TIP3    H175584   3.061   5.460   3.192  0.6915 -0.8485  2.5864
18031TIP3    H275585   3.063   5.583   3.280 -0.7353 -0.1720  1.7262
18032TIP3   OH275586   6.015   6.694   0.779 -0.3281 -0.0373  0.0268
18032TIP3    H175587   5.957   6.747   0.724 -0.5608  0.8495  1.0804
18032TIP3    H275588   5.957   6.655   0.845 -0.1184 -1.4353 -0.5892
18033TIP3   OH275589   6.112   6.140  15.283  0.0923 -0.0022 -0.0303
18033TIP3    H175590   6.105   6.057  15.330  2.5672  0.4107  1.2221
18033TIP3    H275591   6.177   6.123  15.215  0.8985  0.9937  0.4785
18034TIP3   OH275592   6.086   2.655   4.235 -0.7151  0.2093 -0.2679
18034TIP3    H175593   6.099   2.658   4.329 -2.0837  2.0372 -0.0783
18034TIP3    H275594   6.174   2.640   4.199  0.1815  1.5208  1.2357
18035TIP3   OH275595   6.033   2.287  14.755 -0.0710  0.0243  0.3189
18035TIP3    H175596   6.046   2.200  14.793  1.0945  0.6877  1.5214
18035TIP3    H275597   6.080   2.346  14.814 -2.9596  1.8236  1.0173
18036TIP3   OH275598   1.301   6.738   0.848 -0.4264 -0.1301  0.2230
18036TIP3    H175599   1.347   6.820   0.862  1.1282 -0.4677 -2.3451
18036TIP3    H275600   1.208   6.762   0.850 -0.0203  1.5116  0.4232
18037TIP3   OH275601   1.562   6.142   0.619  0.1521 -0.3867 -0.4472
18037TIP3    H175602   1.631   6.205   0.598 -0.3847  1.4398  2.6664
18037TIP3    H275603   1.604   6.081   0.681 -0.8414  0.5250  1.1896
18038TIP3   OH275604   1.146   4.755  10.867  0.2610  0.6541 -0.6440
18038TIP3    H175605   1.132   4.826  10.930 -0.1970  1.2219 -1.3807
18038TIP3    H275606   1.064   4.750  10.818 -0.5739 -1.8099  0.8027
18039TIP3   OH275607   3.533   3.994  15.494 -0.0492 -0.4320 -0.5663
18039TIP3    H175608   3.584   3.915  15.508 -1.6584 -1.2321  1.1478
18039TIP3    H275609   3.573   4.035  15.417 -0.3712 -3.8979 -2.7799
18040TIP3   OH275610   3.681   4.006  11.743 -0.0474  0.3514 -0.0453
18040TIP3    H175611   3.768   4.044  11.758  1.4728 -2.2523 -1.4982
18040TIP3    H275612   3.668   4.012  11.648 -0.8098 -0.5506 -0.0157
18041TIP3   OH275613   5.435   0.810  12.402  0.0896 -0.0537  0.2593
18041TIP3    H175614   5.373   0.876  12.432 -0.0325  0.2021 -0.5421
18041TIP3    H275615   5.441   0.748  12.475 -0.0760  0.6370  0.8682
18042TIP3   OH275616   0.980   0.629   5.551  0.4958 -0.0907  0.3617
18042TIP3    H175617   1.021   0.592   5.472  0.5395  0.0525  0.3163
18042TIP3    H275618   1.026   0.712   5.564 -0.1381  0.3145  0.0162
18043TIP3   OH275619   0.982   4.823   5.257 -0.0850 -0.0354 -0.0442
18043TIP3    H175620   0.981   4.919   5.252  0.8248  0.2096  2.8031
18043TIP3    H275621   1.071   4.801   5.285 -0.1122 -1.7851 -1.2010
18044TIP3   OH275622   4.261   5.364  13.033 -0.1692 -0.4461 -0.1589
18044TIP3    H175623   4.294   5.421  13.103 -1.9349 -1.1063  1.2977
18044TIP3    H275624   4.306   5.394  12.954  0.3655  1.6961  0.8888
18045TIP3   OH275625   0.767   0.938  12.913 -0.7427 -0.0884  0.2386
18045TIP3    H175626   0.855   0.943  12.951 -0.6692 -0.8961  0.1860
18045TIP3    H275627   0.751   0.844  12.900 -1.2195  0.1090 -0.6808
18046TIP3   OH275628   5.735   4.992  15.670  0.1645  0.2142  0.1004
18046TIP3    H175629   5.818   4.998  15.622  0.1897 -1.1534 -0.0504
18046TIP3    H275630   5.761   4.990  15.762  0.3641 -1.0292  0.0282
18047TIP3   OH275631   5.860   0.468  11.656  0.1863 -0.2149 -0.4029
18047TIP3    H175632   5.908   0.387  11.670  0.2826 -1.1967 -4.7298
18047TIP3    H275633   5.927   0.532  11.630 -0.0371  0.9688  1.7222
18048TIP3   OH275634   6.255   5.469  14.193 -0.3608  0.1801  0.4614
18048TIP3    H175635   6.233   5.414  14.268 -0.1722  1.9963  1.9151
18048TIP3    H275636   6.173   5.477  14.144 -0.4495 -1.1524  0.3569
18049TIP3   OH275637   3.596   4.431  12.301  0.3834 -0.3785  0.2048
18049TIP3    H175638   3.624   4.353  12.253 -0.2026 -0.3053 -0.2696
18049TIP3    H275639   3.643   4.426  12.384 -0.4037 -1.7938  0.6185
18050TIP3   OH275640   3.101   4.923  14.854  0.3747  0.1777  0.2867
18050TIP3    H175641   3.159   4.855  14.891  0.6291 -0.0308 -0.4832
18050TIP3    H275642   3.083   4.981  14.928  0.4577 -0.5152  0.8720
18051TIP3   OH275643   4.733   6.762   6.295 -0.5217  0.2815  0.1047
18051TIP3    H175644   4.804   6.822   6.319  0.0406 -0.3859  0.1509
18051TIP3    H275645   4.777   6.678   6.282 -1.3066 -0.1289  0.0841
18052TIP3   OH275646   5.127   4.176   3.478 -0.1369 -0.1767  0.2605
18052TIP3    H175647   5.218   4.204   3.487 -0.5626  1.0794  0.9399
18052TIP3    H275648   5.121   4.141   3.389  1.6044 -2.6968  1.0359
18053TIP3   OH275649   1.847   5.113  15.139 -0.0865  0.3875  0.0613
18053TIP3    H175650   1.913   5.050  15.112  0.0144  0.1687  0.7890
18053TIP3    H275651   1.843   5.104  15.234 -2.4903 -0.9464 -0.0745
18054TIP3   OH275652   0.249   6.260   5.089 -0.4028 -0.0541 -0.3669
18054TIP3    H175653   0.253   6.211   5.007 -1.1393 -0.3494 -0.2373
18054TIP3    H275654   0.329   6.237   5.136  0.7557  1.2190 -1.6062
18055TIP3   OH275655   3.264   0.168   1.664  0.3871 -0.0103 -0.3670
18055TIP3    H175656   3.243   0.202   1.751 -0.5255 -0.4413 -0.4091
18055TIP3    H275657   3.234   0.077   1.665  1.2369 -0.3015 -0.8228
18056TIP3   OH275658   1.216   0.746  11.349  0.1851  0.5007  0.3363
18056TIP3    H175659   1.161   0.716  11.276  2.2258 -0.4535 -0.9038
18056TIP3    H275660   1.306   0.741  11.315  0.9649  4.2089  1.4641
18057TIP3   OH275661   0.350   2.715   1.755  0.0172 -0.1351 -0.1098
18057TIP3    H175662   0.327   2.625   1.777 -1.7471  0.9242  3.0142
18057TIP3    H275663   0.410   2.743   1.825 -2.2672  2.1076  1.1177
18058TIP3   OH275664   1.053   2.365   4.200 -0.1098  0.3949  0.7018
18058TIP3    H175665   1.016   2.316   4.274  2.0905 -1.2647  0.7815
18058TIP3    H275666   1.016   2.323   4.122  1.3422 -1.1311  0.7849
18059TIP3   OH275667   2.619   3.846   4.102  0.7045  0.0514  0.0555
18059TIP3    H175668   2.686   3.894   4.152 -0.9592  0.9387  1.5760
18059TIP3    H275669   2.595   3.772   4.158 -0.2220  0.2739 -0.0212
18060TIP3   OH275670   4.246   2.887   0.500  0.1331  0.0682 -0.7243
18060TIP3    H175671   4.226   2.810   0.446  2.1152 -0.4005 -0.8805
18060TIP3    H275672   4.295   2.851   0.574  0.4522  1.1039 -0.4208
18061TIP3   OH275673   0.832   4.624  15.641  0.6818  0.3689  0.1289
18061TIP3    H175674   0.831   4.543  15.691 -0.8846 -0.8229 -1.6930
18061TIP3    H275675   0.794   4.689  15.699  1.2986 -0.3401  1.3672
18062TIP3   OH275676   2.700   4.391  13.625 -0.7392  0.2720  0.3531
18062TIP3    H175677   2.617   4.354  13.654  0.1849 -0.8892  1.6436
18062TIP3    H275678   2.745   4.415  13.706 -0.0163  1.3674 -0.3473
18063TIP3   OH275679   4.241   3.454  13.935  0.0484 -0.0655  0.0216
18063TIP3    H175680   4.180   3.488  13.869  0.6957 -0.7924 -0.9786
18063TIP3    H275681   4.294   3.529  13.960  0.2928  0.0530 -0.8426
18064TIP3   OH275682   3.287   6.593   2.701  0.0223 -0.1445 -0.3170
18064TIP3    H175683   3.198   6.561   2.719 -0.2656  0.7546 -0.0711
18064TIP3    H275684   3.279   6.642   2.620  0.2219  0.2142 -0.1217
18065TIP3   OH275685   6.831   2.448   3.966  0.0359 -0.3589 -0.4008
18065TIP3    H175686   6.903   2.423   3.908  1.5568  0.1035  1.2415
18065TIP3    H275687   6.829   2.543   3.962  0.1052 -0.3290  0.2724
18066TIP3   OH275688   6.618   4.347  15.421  0.1348  0.1388  0.4185
18066TIP3    H175689   6.578   4.261  15.413  0.8120 -0.0585 -1.4886
18066TIP3    H275690   6.577   4.399  15.351  1.4812  0.6169 -0.0484
18067TIP3   OH275691   0.738   2.073   2.114  0.4623 -0.2670 -0.2486
18067TIP3    H175692   0.761   2.121   2.194 -0.0093 -0.1215 -0.1950
18067TIP3    H275693   0.816   2.079   2.059  0.9227 -0.6808  0.3480
18068TIP3   OH275694   6.559   4.437   6.003  0.6632 -0.3717  0.1071
18068TIP3    H175695   6.643   4.401   5.975  1.0922 -1.4954  2.5869
18068TIP3    H275696   6.563   4.437   6.099 -0.7025  3.1285  0.3276
18069TIP3   OH275697   6.309   1.302  13.192 -0.0859 -0.1712 -0.9608
18069TIP3    H175698   6.363   1.254  13.254 -0.0049  0.5514 -0.4578
18069TIP3    H275699   6.305   1.245  13.115 -0.3780 -1.1737 -0.2248
18070TIP3   OH275700   0.689   6.404  14.277  0.4240  0.1546  0.3098
18070TIP3    H175701   0.697   6.407  14.181  1.7828  0.9331  0.4133
18070TIP3    H275702   0.753   6.338  14.304 -1.0952 -1.2514  0.6157
18071TIP3   OH275703   3.487   1.285   0.401  0.5888  0.3324 -0.3749
18071TIP3    H175704   3.577   1.258   0.382  0.1350 -0.7165 -1.1254
18071TIP3    H275705   3.494   1.380   0.415  2.0191  0.0687  1.0441
18072TIP3   OH275706   5.996   2.927  16.141  0.2745 -0.1588 -0.4128
18072TIP3    H175707   5.926   2.913  16.078  1.2951  0.8903 -1.8637
18072TIP3    H275708   5.983   3.017  16.172  1.1055  0.1497 -0.9119
18073TIP3   OH275709   4.877   6.326   2.604 -0.0486 -0.3121  0.5617
18073TIP3    H175710   4.939   6.381   2.556  1.0936 -0.8410  1.4039
18073TIP3    H275711   4.791   6.366   2.586  0.5389  0.5315 -0.4723
18074TIP3   OH275712   2.210   5.856   2.591 -0.5211 -0.0690  0.5281
18074TIP3    H175713   2.234   5.893   2.506 -0.4473  1.8248  1.3174
18074TIP3    H275714   2.229   5.763   2.583 -3.0506 -0.4607 -2.4043
18075TIP3   OH275715   5.787   4.055   6.026 -0.3999 -0.1056  0.4749
18075TIP3    H175716   5.861   4.034   5.969  1.5339  2.6876  1.6940
18075TIP3    H275717   5.750   3.970   6.050  2.6468 -1.7102  0.0491
18076TIP3   OH275718   2.959   6.050   5.504  0.2003 -0.1490  0.2606
18076TIP3    H175719   2.988   6.002   5.582  1.2353  0.0318  0.0074
18076TIP3    H275720   3.004   6.134   5.510 -1.8043  0.9406  0.8421
18077TIP3   OH275721   5.924   1.886  14.871 -0.2995  0.4470  0.5787
18077TIP3    H175722   5.880   1.825  14.930 -1.7388 -0.5135 -1.3888
18077TIP3    H275723   5.854   1.924  14.818  0.8380  1.9224  0.0472
18078TIP3   OH275724   1.642   1.342  13.259  0.1381  0.8884  0.3895
18078TIP3    H175725   1.676   1.317  13.173  0.9644  2.8452  0.1081
18078TIP3    H275726   1.553   1.373  13.242 -0.1262  0.1848  0.4385
18079TIP3   OH275727   2.437   2.135   2.440  0.1374 -0.3784  0.2995
18079TIP3    H175728   2.354   2.090   2.428  0.2925 -0.6966  0.4029
18079TIP3    H275729   2.413   2.226   2.459 -0.2447 -0.7265  1.6312
18080TIP3   OH275730   4.137   0.470   2.091 -0.3791  0.4048  0.1499
18080TIP3    H175731   4.201   0.446   2.158 -1.1384 -1.0321  0.4064
18080TIP3    H275732   4.189   0.486   2.012  0.3310 -0.4868  0.4225
18081TIP3   OH275733   4.205   0.398  14.526  0.2931 -0.2022 -0.8427
18081TIP3    H175734   4.201   0.482  14.571 -2.1747 -0.6508 -0.0340
18081TIP3    H275735   4.185   0.334  14.595  2.5931 -1.5500 -1.3291
18082TIP3   OH275736   6.348   0.558  12.460  0.0772 -0.0693 -0.0735
18082TIP3    H175737   6.413   0.489  12.447  0.0520 -0.1227  0.0885
18082TIP3    H275738   6.264   0.513  12.458  0.0924 -0.1516  0.7740
18083TIP3   OH275739   5.897   0.834   3.125  0.5538 -0.0319  0.4669
18083TIP3    H175740   5.923   0.860   3.037  0.2694 -0.0611  0.3726
18083TIP3    H275741   5.913   0.913   3.179 -1.4698  0.7929 -0.0472
18084TIP3   OH275742   5.658   2.254   4.682  0.0842 -0.4049  0.6180
18084TIP3    H175743   5.671   2.314   4.608  1.3104  0.6194  1.6238
18084TIP3    H275744   5.660   2.167   4.642 -1.2734  0.1589 -0.8204
18085TIP3   OH275745   2.998   6.790   1.039  0.4414 -0.1406  0.6727
18085TIP3    H175746   2.928   6.725   1.049 -0.7542  0.7998 -1.1096
18085TIP3    H275747   3.075   6.738   1.015  0.3558 -1.1660  2.4227
18086TIP3   OH275748   1.737   0.437  15.715  0.7296 -0.1568 -0.1709
18086TIP3    H175749   1.653   0.419  15.757  1.3904 -1.2872  0.7016
18086TIP3    H275750   1.713   0.475  15.630 -0.6348  2.1386  1.1359
18087TIP3   OH275751   1.155   1.818  16.241  0.1545 -0.7851 -0.0118
18087TIP3    H175752   1.217   1.872  16.291  0.6598 -0.1950 -1.2510
18087TIP3    H275753   1.130   1.748  16.302 -0.4903  0.7964  1.6099
18088TIP3   OH275754   4.051   3.087  12.593  0.7606 -0.3921  0.0055
18088TIP3    H175755   3.958   3.087  12.614  0.4379 -0.4183 -1.3338
18088TIP3    H275756   4.084   3.004  12.628  0.2944 -0.3830  0.4807
18089TIP3   OH275757   5.825   1.374  15.414  0.2006  0.2619  0.4246
18089TIP3    H175758   5.782   1.460  15.420 -0.1575 -0.0091  2.1705
18089TIP3    H275759   5.911   1.394  15.376  0.7130  1.6587  2.1428
18090TIP3   OH275760   4.907   3.113  13.972 -0.0327 -0.3510  0.1255
18090TIP3    H175761   4.872   3.192  14.014 -1.3115 -0.6323 -0.3499
18090TIP3    H275762   4.941   3.144  13.888 -0.6275 -0.3062 -0.1065
18091TIP3   OH275763   3.461   5.382  15.494 -0.5530  0.7002  0.1836
18091TIP3    H175764   3.453   5.478  15.491 -0.1682  0.7436  0.5416
18091TIP3    H275765   3.477   5.362  15.586 -1.3829  0.2302  0.2363
18092TIP3   OH275766   5.927   4.290  12.351  0.1626  0.0223 -0.6718
18092TIP3    H175767   5.848   4.236  12.341 -0.8979  1.1485  1.1567
18092TIP3    H275768   5.899   4.378  12.326  0.9533  0.3742 -0.3578
18093TIP3   OH275769   6.370   1.153   5.448 -0.0837 -0.3249  0.6675
18093TIP3    H175770   6.291   1.205   5.462  0.4124  0.4482  0.7107
18093TIP3    H275771   6.402   1.133   5.536 -0.6055 -1.2452  0.6563
18094TIP3   OH275772   6.486   6.286   2.358  0.8580 -0.0688 -0.3697
18094TIP3    H175773   6.519   6.317   2.274 -1.5127  0.6000 -1.1048
18094TIP3    H275774   6.512   6.353   2.421  0.4504  0.7006 -1.0160
18095TIP3   OH275775   4.183   4.329  15.676  0.2870 -0.2557  0.3427
18095TIP3    H175776   4.164   4.405  15.620  1.1432 -1.7969 -2.2463
18095TIP3    H275777   4.101   4.280  15.678  0.3371 -0.3495  0.1593
18096TIP3   OH275778   2.093   4.081  13.521  0.6647 -0.2675 -0.0119
18096TIP3    H175779   2.169   4.062  13.576 -0.1227  1.9796  2.0711
18096TIP3    H275780   2.018   4.068  13.578 -0.2008  2.1834 -0.4677
18097TIP3   OH275781   6.066   0.597  11.534 -0.0690  0.3751 -0.3393
18097TIP3    H175782   6.117   0.539  11.477 -0.4289 -1.2934  0.9654
18097TIP3    H275783   6.085   0.685  11.501  1.3826 -0.3860 -1.6876
18098TIP3   OH275784   2.627   2.260   4.433  0.5506 -0.3014  0.2927
18098TIP3    H175785   2.542   2.292   4.404 -0.4395 -1.2637  1.9992
18098TIP3    H275786   2.686   2.281   4.361 -1.1258  0.3517 -0.9516
18099TIP3   OH275787   6.083   0.971   2.622 -0.4162 -0.3505  0.2663
18099TIP3    H175788   6.118   0.924   2.546 -0.8982 -0.5322  0.1541
18099TIP3    H275789   6.050   0.903   2.680 -3.7286 -0.1560 -1.1488
18100TIP3   OH275790   6.118   0.699   4.594  0.0940 -0.2639 -0.3081
18100TIP3    H175791   6.078   0.633   4.651  0.1675 -0.2572 -0.2494
18100TIP3    H275792   6.105   0.781   4.641  0.0153 -0.2379 -0.3750
18101TIP3   OH275793   2.351   5.591   2.129  0.1145  0.1882  0.1420
18101TIP3    H175794   2.386   5.550   2.208 -1.8076  2.5948  2.4301
18101TIP3    H275795   2.277   5.536   2.104  2.3349 -2.1729 -1.8456
18102TIP3   OH275796   6.127   3.488   2.147  0.2341  0.3285 -0.5970
18102TIP3    H175797   6.060   3.428   2.181 -0.2545  0.8428 -0.6351
18102TIP3    H275798   6.173   3.437   2.081 -0.7564  0.2655 -1.2627
18103TIP3   OH275799   5.989   0.882  16.319 -0.3577  0.6483 -0.3322
18103TIP3    H175800   6.017   0.797  16.284 -0.8508  0.7224 -0.9284
18103TIP3    H275801   5.916   0.909  16.262 -0.9545  0.9425  0.5573
18104TIP3   OH275802   0.441   4.211  13.458 -0.3783  0.3600  0.4997
18104TIP3    H175803   0.440   4.163  13.376 -0.2586  1.9157 -0.4662
18104TIP3    H275804   0.508   4.278  13.445 -1.5489  1.7305  1.1889
18105TIP3   OH275805   1.096   1.294   5.009  0.2009 -0.3353  0.0777
18105TIP3    H175806   1.087   1.339   4.926  1.6627  0.2360  0.1952
18105TIP3    H275807   1.187   1.264   5.010  0.5208  0.5566  1.8811
18106TIP3   OH275808   1.931   2.655   3.233 -0.6326  0.0595  0.5073
18106TIP3    H175809   1.948   2.642   3.326  0.9663  2.1649  0.5846
18106TIP3    H275810   2.018   2.665   3.194 -1.3310  2.0601 -0.7091
18107TIP3   OH275811   3.192   5.670   3.373  0.1943  0.4630 -0.3045
18107TIP3    H175812   3.206   5.761   3.347 -0.3604  0.4459 -0.6739
18107TIP3    H275813   3.278   5.640   3.403  0.3271  1.1862  0.0700
18108TIP3   OH275814   2.458   4.939   0.336 -1.0063  0.1156 -0.2991
18108TIP3    H175815   2.532   4.926   0.395  0.2246 -0.6482 -1.9563
18108TIP3    H275816   2.383   4.952   0.395  0.3298  0.3814  1.4095
18109TIP3   OH275817   5.172   3.099   2.163  0.4149  0.0199  0.8003
18109TIP3    H175818   5.244   3.083   2.223  0.5251  0.7293  0.8663
18109TIP3    H275819   5.101   3.044   2.195  1.3622 -1.8435 -0.1326
18110TIP3   OH275820   2.667   1.186   4.669 -0.6001 -0.3767  0.5357
18110TIP3    H175821   2.672   1.134   4.750  0.4211 -3.0544 -1.1217
18110TIP3    H275822   2.604   1.139   4.614 -0.5080  0.8153 -0.6352
18111TIP3   OH275823   0.105   1.196   3.428  0.1893  0.2724 -0.4432
18111TIP3    H175824   0.172   1.222   3.491  0.1244  0.5511 -0.4886
18111TIP3    H275825   0.035   1.159   3.482  0.3103  0.1319 -0.3828
18112TIP3   OH275826   6.756   3.845  17.091 -0.0922 -1.0834  0.3181
18112TIP3    H175827   6.780   3.809  17.005 -1.5898 -1.3543 -0.0170
18112TIP3    H275828   6.815   3.919  17.103  0.0837 -0.9832 -0.9918
18113TIP3   OH275829   1.653   5.306   5.022  0.1453 -1.0919 -0.0611
18113TIP3    H175830   1.705   5.295   5.101 -0.0248 -0.6261  0.1175
18113TIP3    H275831   1.650   5.218   4.983  0.6692 -1.2159  0.1696
18114TIP3   OH275832   5.531   6.235   0.182  0.3167 -0.2186 -0.3018
18114TIP3    H175833   5.516   6.294   0.255  1.8114 -0.4312  0.2117
18114TIP3    H275834   5.446   6.193   0.167 -0.2079  0.4133  0.7699
18115TIP3   OH275835   2.481   1.098  11.688  0.6217  0.3220  0.1138
18115TIP3    H175836   2.407   1.158  11.699  0.9590  0.5750  1.0204
18115TIP3    H275837   2.440   1.016  11.660  0.0779  0.7026 -0.2484
18116TIP3   OH275838   3.390   4.970   4.210 -0.4481  0.2277  0.4165
18116TIP3    H175839   3.422   4.884   4.238 -1.2346  0.1305  1.0434
18116TIP3    H275840   3.382   4.964   4.115 -1.9174 -0.8938  0.5841
18117TIP3   OH275841   0.911   4.408   1.103 -0.1888  0.4243 -0.3969
18117TIP3    H175842   1.005   4.408   1.084  0.0908  0.2758  0.8726
18117TIP3    H275843   0.899   4.480   1.165 -0.7532 -0.1464  0.1731
18118TIP3   OH275844   1.432   1.735  12.800 -0.8939 -0.2131 -0.7297
18118TIP3    H175845   1.503   1.734  12.865 -1.6620 -1.3732  0.1187
18118TIP3    H275846   1.391   1.820  12.812 -0.0574  0.2151 -0.7829
18119TIP3   OH275847   5.585   1.940   4.175 -0.5495  0.1357  0.2637
18119TIP3    H175848   5.602   1.976   4.088 -0.1489  0.9614  0.6829
18119TIP3    H275849   5.533   2.007   4.219  1.5870  0.9858  1.6182
18120TIP3   OH275850   6.771   1.457  12.178  0.2786 -0.8317 -0.1516
18120TIP3    H175851   6.705   1.467  12.247  0.4491  0.4485 -0.1505
18120TIP3    H275852   6.838   1.522  12.200  0.5703 -0.7451 -1.2532
18121TIP3   OH275853   0.547   2.581   1.220 -0.1385  0.3647  0.2898
18121TIP3    H175854   0.512   2.497   1.249  1.4440  0.1214  1.6335
18121TIP3    H275855   0.540   2.638   1.297  1.4946  0.5692  0.3150
18122TIP3   OH275856   0.253   0.058  14.077 -0.2518  0.4663 -0.2951
18122TIP3    H175857   0.185   0.091  14.135 -0.1732 -1.2512  0.8534
18122TIP3    H275858   0.299  -0.008  14.129  0.9306  0.0767 -1.7564
18123TIP3   OH275859   0.021   6.595   2.594 -0.0543  0.5663 -0.0315
18123TIP3    H175860  -0.071   6.615   2.579  0.1104  1.7317  0.4324
18123TIP3    H275861   0.031   6.504   2.565 -1.2564  0.5515 -0.4409
18124TIP3   OH275862   4.754   6.490  11.840  0.1769 -0.2514  0.5293
18124TIP3    H175863   4.833   6.491  11.895  0.7445 -1.8502 -0.2000
18124TIP3    H275864   4.725   6.399  11.841 -0.3573 -0.1238 -1.0429
18125TIP3   OH275865   4.800   6.295   3.109  0.2194 -0.4183  0.0823
18125TIP3    H175866   4.808   6.361   3.040  0.4641  0.5944  1.0476
18125TIP3    H275867   4.821   6.212   3.065  1.6235  0.3508 -0.7869
18126TIP3   OH275868   4.280   1.851   3.764  1.0941 -0.0762 -1.0250
18126TIP3    H175869   4.196   1.843   3.720  0.6102  1.4972 -0.4586
18126TIP3    H275870   4.326   1.769   3.745 -0.4053 -0.7914 -1.6628
18127TIP3   OH275871   5.768   4.405  16.179 -0.2020  0.0803 -0.1039
18127TIP3    H175872   5.747   4.372  16.266  2.0161  0.3264  0.6070
18127TIP3    H275873   5.758   4.500  16.186  0.5151  0.1521  0.0870
18128TIP3   OH275874   2.190   6.148   1.422  0.5135  0.2855  0.0670
18128TIP3    H175875   2.232   6.087   1.363  1.5074  1.6589 -0.6957
18128TIP3    H275876   2.114   6.181   1.374  0.2356  0.0016  0.3037
18129TIP3   OH275877   1.953   4.361  10.561 -0.1154 -0.5113  0.1603
18129TIP3    H175878   1.885   4.406  10.511  0.5285  1.8784  1.2944
18129TIP3    H275879   1.915   4.276  10.581 -1.3518 -0.6069 -2.2139
18130TIP3   OH275880   0.953   1.388   6.176  0.0946  0.4287  0.1646
18130TIP3    H175881   0.970   1.446   6.251  1.2124 -0.9935  1.0479
18130TIP3    H275882   0.876   1.338   6.202  1.1701 -0.8939  0.9092
18131TIP3   OH275883   4.639   5.740   0.371  0.1656  0.1058  0.1702
18131TIP3    H175884   4.683   5.655   0.380 -0.3924 -0.4050 -1.4539
18131TIP3    H275885   4.563   5.721   0.316 -2.5847  0.8164  3.3879
18132TIP3   OH275886   4.304   1.404   3.699 -0.8736 -0.6672 -0.0188
18132TIP3    H175887   4.334   1.494   3.715  0.3155 -0.9586 -0.5247
18132TIP3    H275888   4.350   1.351   3.764 -1.8575 -0.8822  0.5255
18133TIP3   OH275889   2.752   6.467   2.699  0.0500 -0.2781 -0.0214
18133TIP3    H175890   2.796   6.404   2.641 -0.3346 -0.9613  0.4223
18133TIP3    H275891   2.714   6.414   2.769  1.6558  0.6507  1.6373
18134TIP3   OH275892   1.423   0.676  13.710 -0.4099  0.0076 -0.3207
18134TIP3    H175893   1.485   0.613  13.748  0.5551  0.4902 -1.0563
18134TIP3    H275894   1.460   0.698  13.625 -1.6087  0.3135 -0.7788
18135TIP3   OH275895   6.658   0.709  16.354 -0.2396  0.1863 -0.6939
18135TIP3    H175896   6.733   0.762  16.381  2.0041 -1.4665 -3.2223
18135TIP3    H275897   6.663   0.630  16.408  0.2672 -0.2144 -1.3164
18136TIP3   OH275898   0.085   1.684  12.236  0.3868  0.7031 -0.2482
18136TIP3    H175899   0.060   1.765  12.280 -0.4762 -0.3397  1.3246
18136TIP3    H275900   0.174   1.699  12.205 -0.0964  2.5558 -0.8618
18137TIP3   OH275901   4.728   1.551  13.367  0.3054  0.1369 -0.0667
18137TIP3    H175902   4.760   1.577  13.454 -0.5836  0.5658  0.1486
18137TIP3    H275903   4.699   1.461  13.379  1.0325 -0.1122 -0.1552
18138TIP3   OH275904   6.489   2.172   1.533 -0.4053 -0.1089  0.8309
18138TIP3    H175905   6.540   2.227   1.473  1.7986 -1.1565  1.6211
18138TIP3    H275906   6.470   2.093   1.482 -1.1522  0.2275  0.5788
18139TIP3   OH275907   0.101   6.507   0.326 -0.0528 -0.1448 -0.3740
18139TIP3    H175908   0.011   6.540   0.319  0.1837  0.1992 -2.7648
18139TIP3    H275909   0.152   6.565   0.269  1.4553 -1.1565 -0.1106
18140TIP3   OH275910   3.120   4.180  12.183  0.3008 -0.3446  0.1892
18140TIP3    H175911   3.112   4.201  12.090  1.1249 -0.3772  0.1022
18140TIP3    H275912   3.214   4.166  12.197  0.0776 -1.3484  0.8085
18141TIP3   OH275913   1.841   3.189  10.668 -0.0836 -0.1489  0.4246
18141TIP3    H175914   1.783   3.154  10.735  0.2677 -0.0125  0.8017
18141TIP3    H275915   1.924   3.205  10.713 -0.0007  0.4315  0.0829
18142TIP3   OH275916   6.416   5.727   0.422 -0.2632 -0.0557  0.4837
18142TIP3    H175917   6.476   5.735   0.496 -0.4108 -1.6928  0.8252
18142TIP3    H275918   6.471   5.735   0.344  0.0793  0.4237  0.7734
18143TIP3   OH275919   6.299   4.135  12.174  0.0193 -0.1537  0.1795
18143TIP3    H175920   6.206   4.131  12.152 -0.4480  2.5819  1.2249
18143TIP3    H275921   6.301   4.130  12.270  0.3969  3.8446  0.5886
18144TIP3   OH275922   4.475   2.545   4.909  0.3689 -0.4657  0.1316
18144TIP3    H175923   4.483   2.614   4.842 -5.5560  2.2696  1.5381
18144TIP3    H275924   4.464   2.464   4.859  0.7959  0.7056 -1.9739
18145TIP3   OH275925   6.558   0.859   3.517  0.2702  0.2820  0.1766
18145TIP3    H175926   6.550   0.880   3.610 -0.6375 -0.5001  0.2899
18145TIP3    H275927   6.484   0.903   3.476  0.6501  0.5990 -0.1797
18146TIP3   OH275928   4.560   0.170  12.719  0.4616 -0.0131  0.3745
18146TIP3    H175929   4.541   0.137  12.631  1.5147 -0.9419  0.4643
18146TIP3    H275930   4.617   0.245  12.704 -1.7252  1.7114  0.1798
18147TIP3   OH275931   1.278   4.227   1.906 -0.2735  0.1519 -0.4891
18147TIP3    H175932   1.316   4.227   1.994 -0.8074 -2.2558 -0.1931
18147TIP3    H275933   1.251   4.318   1.892  0.8248  0.8203  1.3790
18148TIP3   OH275934   5.375   3.919  15.254 -0.0089 -0.2762 -0.3818
18148TIP3    H175935   5.284   3.928  15.227  0.2975  2.1942 -0.9046
18148TIP3    H275936   5.421   3.892  15.174 -0.1772 -0.6878 -0.3377
18149TIP3   OH275937   3.755   6.583  16.572  0.3053 -0.2917  0.0331
18149TIP3    H175938   3.814   6.514  16.600 -0.1241  0.0970  2.0004
18149TIP3    H275939   3.807   6.636  16.511  1.9726 -0.0131  1.6170
18150TIP3   OH275940   4.941   2.343   0.809  0.4041 -0.1195  0.0818
18150TIP3    H175941   5.010   2.281   0.831  1.7750  0.7904 -1.4729
18150TIP3    H275942   4.875   2.330   0.877  2.5413 -0.3155  2.2655
18151TIP3   OH275943   5.466   1.360   0.830 -0.6692  0.6915  0.1795
18151TIP3    H175944   5.401   1.358   0.760 -1.1401 -0.9601  0.6214
18151TIP3    H275945   5.531   1.294   0.805  0.3788  1.6967  0.1842
18152TIP3   OH275946   3.557   5.537  14.909  0.5498  0.5521  0.1201
18152TIP3    H175947   3.629   5.474  14.900  0.4138  0.1128  1.7547
18152TIP3    H275948   3.491   5.508  14.847  0.8828 -0.3648  0.1834
18153TIP3   OH275949   4.248   6.784  16.438  0.2864 -0.1749  0.0563
18153TIP3    H175950   4.249   6.754  16.347  0.8136  0.7296 -0.2482
18153TIP3    H275951   4.339   6.772  16.468  0.1413 -0.3591  0.4308
18154TIP3   OH275952   1.089   2.139   3.645 -0.6278  0.3051  0.2496
18154TIP3    H175953   1.004   2.095   3.650 -1.1122  1.2629  0.7793
18154TIP3    H275954   1.135   2.095   3.574 -1.0369 -1.1263  0.8449
18155TIP3   OH275955   0.308   6.834   1.508 -0.2519  0.2665 -0.1649
18155TIP3    H175956   0.221   6.832   1.469 -0.1652 -1.8729 -0.3601
18155TIP3    H275957   0.296   6.881   1.591 -0.8547  3.0082 -1.6616
18156TIP3   OH275958   4.400   5.926  13.151 -0.2221  0.6449 -0.3402
18156TIP3    H175959   4.337   5.890  13.213 -0.5295  0.0528 -0.9863
18156TIP3    H275960   4.444   5.996  13.200  0.0446 -0.2667  0.7716
18157TIP3   OH275961   2.366   1.794  14.557  0.1696 -1.0299  0.0728
18157TIP3    H175962   2.328   1.733  14.620  1.1316 -0.2675  1.4422
18157TIP3    H275963   2.456   1.763  14.545  0.8352  0.3680  1.1810
18158TIP3   OH275964   1.199   4.264   6.174  0.2211  0.3270 -0.2249
18158TIP3    H175965   1.280   4.260   6.224  0.0734  1.9280  0.2022
18158TIP3    H275966   1.180   4.358   6.166 -0.6440  0.0535 -1.8455
18159TIP3   OH275967   6.412   2.931   4.420  0.1568 -0.3896 -0.0119
18159TIP3    H175968   6.326   2.972   4.430  0.3362  0.2080 -0.8758
18159TIP3    H275969   6.432   2.897   4.508 -0.1664  1.0461  0.6555
18160TIP3   OH275970   3.773   5.358   3.086  0.2744  0.3429  0.4128
18160TIP3    H175971   3.852   5.391   3.130  0.6820  0.5407 -0.4620
18160TIP3    H275972   3.778   5.394   2.998 -0.2337 -0.5483  0.0140
18161TIP3   OH275973   4.346   4.769   3.370  0.1824  0.2432  0.0726
18161TIP3    H175974   4.354   4.679   3.401  1.3570  0.5887  0.8072
18161TIP3    H275975   4.427   4.786   3.323 -1.4116 -0.1599 -3.0712
18162TIP3   OH275976   2.255   5.301   3.738  0.0160  0.3270  0.0219
18162TIP3    H175977   2.275   5.395   3.730 -1.5940  0.8282  1.3987
18162TIP3    H275978   2.207   5.294   3.820 -0.3877 -1.6470 -0.3450
18163TIP3   OH275979   1.373   5.125  14.010  0.0110  0.1440  0.2637
18163TIP3    H175980   1.373   5.030  13.999  0.0103  0.3010 -1.3206
18163TIP3    H275981   1.456   5.144  14.053  0.4557 -0.4990 -0.2813
18164TIP3   OH275982   1.603   6.040  15.255  0.0371 -0.5086  0.2311
18164TIP3    H175983   1.688   6.081  15.270 -0.1069 -0.7133  1.7899
18164TIP3    H275984   1.592   5.980  15.328 -1.8216  0.1469  0.5376
18165TIP3   OH275985   3.079   3.931   6.230  0.0556  0.5681 -0.0303
18165TIP3    H175986   3.095   3.996   6.299 -2.3625 -1.0501  2.2340
18165TIP3    H275987   3.112   3.849   6.266  1.1715  0.0919 -1.9962
18166TIP3   OH275988   3.448   0.182  11.237  0.0998 -0.4020 -0.4735
18166TIP3    H175989   3.509   0.108  11.238 -1.7396 -1.9830  0.1694
18166TIP3    H275990   3.368   0.147  11.275 -0.6542  2.1149  0.4257
18167TIP3   OH275991   1.489   2.601   3.049  0.1022 -0.1245 -0.3401
18167TIP3    H175992   1.435   2.676   3.026  1.9403  0.9799 -1.2487
18167TIP3    H275993   1.565   2.638   3.093  0.8696 -1.4813 -0.4695
18168TIP3   OH275994   5.673   6.219  12.665 -0.1038 -0.0124 -0.0958
18168TIP3    H175995   5.767   6.222  12.684  0.3156  2.1051 -2.1158
18168TIP3    H275996   5.667   6.171  12.582 -0.6953  0.7544 -0.5024
18169TIP3   OH275997   2.989   2.572  10.733 -0.0622  0.1570  0.7493
18169TIP3    H175998   3.082   2.550  10.739  0.0926  0.8726  1.0160
18169TIP3    H275999   2.966   2.608  10.818  0.0097  2.1756 -0.0223
18170TIP3   OH276000   5.701   2.827  11.618 -0.0643 -0.0284  0.1430
18170TIP3    H176001   5.792   2.816  11.594 -0.3138 -0.5634 -0.5794
18170TIP3    H276002   5.662   2.876  11.546  0.0528  1.8711  1.3159
18171TIP3   OH276003   1.784   5.573   1.060  0.1418 -0.0160  0.1657
18171TIP3    H176004   1.785   5.497   1.118 -0.9925 -1.6329 -1.8196
18171TIP3    H276005   1.754   5.645   1.115  0.2068 -1.2209  1.8404
18172TIP3   OH276006   6.012   3.911  13.780 -0.2009 -0.3554 -0.0308
18172TIP3    H176007   6.028   3.861  13.860  2.9733  0.2125 -0.2001
18172TIP3    H276008   6.071   3.872  13.715 -1.3031  0.4517 -1.5846
18173TIP3   OH276009   6.828   4.960   4.099 -0.3711  0.6200  0.6384
18173TIP3    H176010   6.923   4.970   4.095 -0.3484  0.0028 -0.8837
18173TIP3    H276011   6.797   4.991   4.014 -1.3747 -0.7669  0.4663
18174TIP3   OH276012   1.672   5.331  11.395  0.2000  0.4542 -0.3256
18174TIP3    H176013   1.681   5.315  11.301  0.9193 -0.0137 -0.1853
18174TIP3    H276014   1.579   5.350  11.407 -0.0440 -0.2281 -1.0231
18175TIP3   OH276015   3.511   4.875   5.493  0.0915  0.0912 -1.0570
18175TIP3    H176016   3.508   4.956   5.546  1.7433 -0.8888  0.6736
18175TIP3    H276017   3.569   4.897   5.420 -0.5361  0.8448 -1.3508
18176TIP3   OH276018   5.745   2.588  12.710 -0.3663  0.5157 -0.4043
18176TIP3    H176019   5.822   2.540  12.742  0.6091  1.5527 -1.0834
18176TIP3    H276020   5.693   2.606  12.788 -0.3801 -0.9662 -0.0451
18177TIP3   OH276021   4.642   0.055   5.383 -0.6253 -0.1323  0.1458
18177TIP3    H176022   4.704   0.116   5.342 -1.6440 -0.6962 -2.4791
18177TIP3    H276023   4.585   0.110   5.436 -0.9814  1.1292 -1.4767
18178TIP3   OH276024   0.888   4.941  11.623  0.4624  0.2846 -0.0150
18178TIP3    H176025   0.868   4.879  11.553  0.3010 -0.4004  0.6285
18178TIP3    H276026   0.831   4.915  11.695  1.1365  0.5306  0.6150
18179TIP3   OH276027   0.974   4.911  13.557 -0.2098  0.5147  0.1631
18179TIP3    H176028   0.958   4.994  13.602  0.4176  1.3724 -1.1272
18179TIP3    H276029   1.026   4.935  13.480 -0.0573 -1.0749 -0.2693
18180TIP3   OH276030   6.395   4.131  14.211  0.1145  0.0434 -0.2394
18180TIP3    H176031   6.410   4.145  14.117 -1.5562 -2.2220 -0.9207
18180TIP3    H276032   6.304   4.157  14.225 -0.4457 -1.9797  0.1727
18181TIP3   OH276033   5.692   1.887  15.689  0.1062 -0.4864 -0.1639
18181TIP3    H176034   5.724   1.880  15.599 -2.3635 -0.5937 -1.1044
18181TIP3    H276035   5.758   1.841  15.742  0.6357 -2.1519 -2.1500
18182TIP3   OH276036   4.179   3.730  16.182 -0.1377  0.1621  0.0316
18182TIP3    H176037   4.215   3.661  16.238 -0.1199 -0.9980 -1.3485
18182TIP3    H276038   4.253   3.757  16.127 -0.9372 -1.1469 -1.7662
18183TIP3   OH276039   4.859   3.406   2.862 -0.4295  0.1305  0.2115
18183TIP3    H176040   4.923   3.336   2.851 -0.4490  0.0620  0.5156
18183TIP3    H276041   4.795   3.391   2.792 -0.1198  0.1987 -0.0905
18184TIP3   OH276042   4.381   5.396  15.358  0.3531  0.6565  0.4133
18184TIP3    H176043   4.361   5.437  15.274 -0.3236  0.3520  0.4145
18184TIP3    H276044   4.459   5.344  15.341 -0.7591 -0.8092 -0.5202
18185TIP3   OH276045   5.875   5.997  15.904  0.5336  0.3759  0.1922
18185TIP3    H176046   5.834   6.083  15.897 -1.4471 -0.4402  0.8427
18185TIP3    H276047   5.969   6.015  15.909  0.2530  2.4010 -0.8155
18186TIP3   OH276048   3.040   4.831  15.784 -0.2969 -0.4802 -0.3022
18186TIP3    H176049   3.063   4.883  15.861 -0.7825 -0.9133  0.1445
18186TIP3    H276050   2.963   4.876  15.748  0.0326 -0.1809 -0.6340
18187TIP3   OH276051   4.403   5.877  14.245  0.4549  0.0690  0.3622
18187TIP3    H176052   4.475   5.887  14.182 -0.1365  1.7414 -0.0878
18187TIP3    H276053   4.344   5.814  14.204  0.4520  0.5641 -0.3992
18188TIP3   OH276054   4.541   3.284  12.657  0.4210  0.6759 -0.5843
18188TIP3    H176055   4.493   3.358  12.619 -0.3179  0.1609 -0.6641
18188TIP3    H276056   4.474   3.230  12.699  1.3116  1.8567  2.6472
18189TIP3   OH276057   3.080   1.349   3.779 -0.4751  0.4987  0.7878
18189TIP3    H176058   3.121   1.368   3.863  0.0319  1.7032  0.2835
18189TIP3    H276059   3.016   1.418   3.766 -1.5141 -0.4334  0.7877
18190TIP3   OH276060   1.482   5.105  14.353 -0.3770 -0.3033  0.1074
18190TIP3    H176061   1.570   5.120  14.319  0.2471 -1.7938  0.9632
18190TIP3    H276062   1.477   5.159  14.432  0.2636 -1.1695  0.7645
18191TIP3   OH276063   2.473   1.497   5.675 -0.3957  0.1874 -0.5044
18191TIP3    H176064   2.422   1.524   5.598 -0.4340  0.9503 -0.2194
18191TIP3    H276065   2.492   1.405   5.660 -0.6246  0.2652 -1.3080
18192TIP3   OH276066   1.651   6.541  11.785  0.1024 -0.2014  0.2182
18192TIP3    H176067   1.679   6.629  11.759  0.2564 -0.4916 -0.6351
18192TIP3    H276068   1.706   6.521  11.861 -0.1217  0.5389  0.5898
18193TIP3   OH276069   5.213   2.763   1.912 -0.1435  0.2970 -0.1337
18193TIP3    H176070   5.251   2.732   1.995 -1.3036 -2.1320 -0.4310
18193TIP3    H276071   5.279   2.823   1.877  1.2492 -0.1165  1.5986
18194TIP3   OH276072   2.062   6.419   3.827 -0.1758 -0.0386 -0.1614
18194TIP3    H176073   2.139   6.363   3.837  0.1304  0.5005  0.6182
18194TIP3    H276074   2.098   6.507   3.817 -0.6539  0.0444 -1.2698
18195TIP3   OH276075   3.866   6.572   2.105 -0.1126  0.1346 -0.5744
18195TIP3    H176076   3.954   6.591   2.136 -0.8268  0.3526  1.4631
18195TIP3    H276077   3.879   6.524   2.023  1.9681 -2.0610  0.9166
18196TIP3   OH276078   6.596   0.571   2.102  0.2192 -0.2312 -0.4632
18196TIP3    H176079   6.686   0.546   2.083  0.6323  0.1720  0.8603
18196TIP3    H276080   6.575   0.525   2.184 -0.9209 -0.6399 -0.9536
18197TIP3   OH276081   5.425   2.051   3.834 -0.1047 -0.8716 -0.1494
18197TIP3    H176082   5.338   2.050   3.873 -0.7846  2.1064 -1.3404
18197TIP3    H276083   5.410   2.067   3.741  1.7119  0.1336 -0.3284
18198TIP3   OH276084   6.007   4.508  15.588  0.2206  0.0220  0.2981
18198TIP3    H176085   5.950   4.563  15.642 -0.7125  0.9560 -1.5247
18198TIP3    H276086   5.960   4.425  15.580  1.7147 -1.2485  3.2050
18199TIP3   OH276087   3.247   1.531   5.565 -0.0700 -0.1484  0.2602
18199TIP3    H176088   3.225   1.621   5.589 -0.2343 -0.3812  1.0096
18199TIP3    H276089   3.162   1.488   5.556 -0.1458  0.4440 -2.9602
18200TIP3   OH276090   5.704   2.154  10.338  0.1335 -0.2589  0.5730
18200TIP3    H176091   5.744   2.090  10.279  0.5702  0.2447  0.3131
18200TIP3    H276092   5.654   2.212  10.281 -0.2220 -0.3430  0.8011
18201TIP3   OH276093   4.694   4.485  12.341  0.7613  0.4769 -0.1454
18201TIP3    H176094   4.744   4.565  12.327  0.3807  0.7099 -0.1671
18201TIP3    H276095   4.676   4.483  12.435  1.4240  0.0274 -0.0192
18202TIP3   OH276096   3.320   1.655  11.992  0.5656  0.1821 -0.3044
18202TIP3    H176097   3.263   1.704  12.051 -0.1202  0.5154 -1.2351
18202TIP3    H276098   3.301   1.564  12.010  1.7426  0.2106  1.3365
18203TIP3   OH276099   6.628   2.678  11.090 -0.6405 -0.1355 -0.7651
18203TIP3    H176100   6.664   2.738  11.024  2.2130 -0.2498  0.5615
18203TIP3    H276101   6.627   2.593  11.046  3.1091 -0.6050 -0.2090
18204TIP3   OH276102   5.301   0.763  14.086  0.1315 -0.5365  0.5311
18204TIP3    H176103   5.374   0.729  14.138 -1.8819 -1.8591  2.6999
18204TIP3    H276104   5.229   0.704  14.106 -2.3429  2.3670  0.8253
18205TIP3   OH276105   2.814   2.065  16.034 -0.0530  0.3571  0.5424
18205TIP3    H176106   2.728   2.048  16.073 -0.1420 -0.3538  0.0587
18205TIP3    H276107   2.874   2.066  16.108  0.0194 -2.5298  0.6221
18206TIP3   OH276108   0.058   6.341  10.409  0.8543 -0.1463  0.1318
18206TIP3    H176109   0.081   6.350  10.502 -0.4673 -0.3545  0.5067
18206TIP3    H276110   0.050   6.430  10.377  0.6451 -0.0653  0.4064
18207TIP3   OH276111   2.111   3.005   0.661  0.0719  0.3613  0.2895
18207TIP3    H176112   2.094   2.937   0.596 -0.4226 -1.4578  2.2351
18207TIP3    H276113   2.170   3.067   0.616 -1.4281  0.0232 -2.3574
18208TIP3   OH276114   5.198   2.963  13.789 -0.1728  0.5545 -0.0029
18208TIP3    H176115   5.224   2.886  13.739 -1.4302  0.6420 -0.8185
18208TIP3    H276116   5.217   3.037  13.732 -0.8830  0.7090 -0.0469
18209TIP3   OH276117   5.362   5.650  16.647 -0.1627  0.1772 -0.0030
18209TIP3    H176118   5.355   5.634  16.553 -0.1489  0.0420  0.0188
18209TIP3    H276119   5.344   5.565  16.687 -0.2917  0.2618  0.1221
18210TIP3   OH276120   3.659   6.380   3.037  0.1919  0.1257  1.0283
18210TIP3    H176121   3.730   6.318   3.054  2.5397  2.2269 -0.5475
18210TIP3    H276122   3.626   6.357   2.950  0.7939  0.8105  0.6124
18211TIP3   OH276123   1.395   4.161   1.592 -0.9072 -0.8269  0.4352
18211TIP3    H176124   1.444   4.195   1.517 -0.7933 -0.4274  0.6886
18211TIP3    H276125   1.428   4.072   1.603 -0.9123 -0.8837  0.0209
18212TIP3   OH276126   0.999   6.281  14.689 -0.2461 -0.5414  0.1517
18212TIP3    H176127   0.929   6.347  14.682 -0.0490 -0.3674 -0.2528
18212TIP3    H276128   0.962   6.212  14.745 -0.6457 -0.3309  0.1517
18213TIP3   OH276129   5.214   4.773   4.635 -0.3731 -0.4001  0.1434
18213TIP3    H176130   5.279   4.710   4.666 -1.4464 -0.0484  3.4841
18213TIP3    H276131   5.226   4.850   4.692 -3.6008 -0.3128  0.8761
18214TIP3   OH276132   6.020   2.776   1.309  0.0477  1.3631 -0.6303
18214TIP3    H176133   5.990   2.722   1.383 -0.9534  2.1050 -0.4781
18214TIP3    H276134   6.035   2.712   1.239  1.5170  0.5815  0.3247
18215TIP3   OH276135   1.980   1.971   5.392  0.1047  0.0176 -0.4974
18215TIP3    H176136   1.905   2.016   5.354  1.2599  0.8291 -1.9415
18215TIP3    H276137   2.018   1.921   5.319  1.9374  0.9952 -0.2836
18216TIP3   OH276138   3.103   1.143  14.686  0.3188 -0.0432  0.3202
18216TIP3    H176139   3.111   1.179  14.598 -1.9514  1.1008  0.5208
18216TIP3    H276140   3.175   1.183  14.735  0.0094  1.4111 -0.3749
18217TIP3   OH276141   0.285   5.770   3.563  0.5164  0.4587  0.6299
18217TIP3    H176142   0.348   5.803   3.627  0.7107 -1.9828  1.7858
18217TIP3    H276143   0.319   5.684   3.538 -1.3518 -0.0847 -0.1984
18218TIP3   OH276144   1.901   1.763   2.925 -0.2797 -0.2732 -0.4468
18218TIP3    H176145   1.964   1.779   2.994 -0.5862  1.5273 -0.5332
18218TIP3    H276146   1.953   1.730   2.852  0.4788  0.4867 -0.2740
18219TIP3   OH276147   0.005   0.248   1.623  0.2974 -0.0245  0.3776
18219TIP3    H176148  -0.064   0.183   1.605  0.1188  0.3010 -0.1398
18219TIP3    H276149   0.062   0.244   1.547  0.4902  0.1737  0.5112
18220TIP3   OH276150   6.185   3.021  16.604  0.2820 -0.4787  0.0449
18220TIP3    H176151   6.175   2.977  16.520 -1.6059  0.6672 -0.4044
18220TIP3    H276152   6.157   3.111  16.587 -2.4493 -0.7475  2.3319
18221TIP3   OH276153   1.569   5.107  10.979  0.4524 -0.1957 -0.1928
18221TIP3    H176154   1.519   5.152  10.912  1.4689 -0.4144 -1.1204
18221TIP3    H276155   1.614   5.036  10.933 -0.3976 -1.6036  1.0674
18222TIP3   OH276156   6.443   5.028  15.298 -0.3599  0.3722  0.0357
18222TIP3    H176157   6.521   5.071  15.263 -0.8451  0.3603 -1.1029
18222TIP3    H276158   6.472   4.939  15.318 -0.4349 -0.1298 -1.8956
18223TIP3   OH276159   3.835   5.657   2.344 -0.9273 -0.8068  0.2357
18223TIP3    H176160   3.865   5.617   2.262  0.4672  2.6010 -1.1321
18223TIP3    H276161   3.907   5.644   2.405  0.3168  1.0039 -0.7592
18224TIP3   OH276162   2.524   4.945   3.492 -0.1914  0.1781 -0.1860
18224TIP3    H176163   2.454   5.008   3.509  0.4198  0.7280  0.3217
18224TIP3    H276164   2.485   4.882   3.432 -2.1668 -1.2838  2.3780
18225TIP3   OH276165   5.785   3.280  12.113 -0.1012  0.2869  0.3666
18225TIP3    H176166   5.737   3.204  12.081  0.6501 -0.3576  0.7384
18225TIP3    H276167   5.750   3.353  12.062  0.6092 -0.5969 -1.4780
18226TIP3   OH276168   3.916   0.742  14.804 -0.7905  0.4992 -0.3200
18226TIP3    H176169   3.873   0.795  14.737 -1.1674  0.3122 -0.2313
18226TIP3    H276170   3.844   0.696  14.848 -0.3485 -2.3238 -2.2801
18227TIP3   OH276171   0.133   1.879  13.731  0.2033 -0.0948 -0.1417
18227TIP3    H176172   0.153   1.787  13.717 -0.8320 -0.5052  0.9444
18227TIP3    H276173   0.087   1.906  13.652  2.2047  0.0489 -1.3250
18228TIP3   OH276174   0.069   4.458  13.604  0.0568  0.5130 -0.4786
18228TIP3    H176175   0.097   4.437  13.515  0.0873 -0.2378 -0.2969
18228TIP3    H276176  -0.021   4.426  13.610  0.5499 -0.8140  0.2157
18229TIP3   OH276177   1.245   2.883   3.008  0.4316  0.2170 -0.0364
18229TIP3    H176178   1.178   2.951   3.020 -1.3841 -1.2088 -1.4763
18229TIP3    H276179   1.286   2.905   2.925 -0.1701 -0.3937 -0.5133
18230TIP3   OH276180   0.725   3.084   0.831 -0.0981 -0.3071 -0.2761
18230TIP3    H176181   0.741   3.175   0.858 -0.1062 -0.5490  0.5916
18230TIP3    H276182   0.720   3.036   0.914  2.1168 -1.4716 -0.7572
18231TIP3   OH276183   0.853   1.525  11.575  0.3041 -0.2229 -0.3659
18231TIP3    H176184   0.933   1.572  11.597 -0.1832  0.3184  0.3282
18231TIP3    H276185   0.877   1.432  11.580  0.8624 -0.0662 -0.0650
18232TIP3   OH276186   0.140   1.610  13.630 -0.8779  0.4615  0.1655
18232TIP3    H176187   0.095   1.637  13.550 -0.7823 -0.1431 -0.0956
18232TIP3    H276188   0.151   1.516  13.621 -0.0699  0.5163  0.4866
18233TIP3   OH276189   5.183   2.345  16.033  0.1413  0.1483  0.1343
18233TIP3    H176190   5.257   2.285  16.040 -1.6184 -2.1528 -0.0733
18233TIP3    H276191   5.160   2.346  15.940 -0.7450  0.0119  0.3452
18234TIP3   OH276192   4.630   2.318   2.932 -0.4656 -0.4204 -0.2051
18234TIP3    H176193   4.633   2.409   2.905 -0.6326  0.1525  1.5519
18234TIP3    H276194   4.608   2.270   2.853 -1.1999  1.1541 -1.0001
18235TIP3   OH276195   1.871   6.697  16.605 -0.3989  0.1818 -0.4407
18235TIP3    H176196   1.871   6.602  16.620 -0.4181 -0.0152 -1.5546
18235TIP3    H276197   1.792   6.728  16.648 -2.0336 -0.7762 -2.5586
18236TIP3   OH276198   5.007   0.807  14.564  0.3640 -0.1600  0.6527
18236TIP3    H176199   4.919   0.844  14.571  0.8308  1.1842 -0.2177
18236TIP3    H276200   4.996   0.732  14.505 -0.4328 -0.8881  1.6988
18237TIP3   OH276201   1.827   3.692  13.743 -0.1519  0.1662  0.5691
18237TIP3    H176202   1.845   3.712  13.651 -1.8236  0.2864  0.2427
18237TIP3    H276203   1.880   3.615  13.761  0.5957  0.4463 -0.3401
18238TIP3   OH276204   2.842   2.251   1.131  0.4607  0.1627  0.4796
18238TIP3    H176205   2.758   2.245   1.178 -0.0556 -0.6826 -0.5133
18238TIP3    H276206   2.826   2.205   1.049  2.2302 -0.9686  0.7343
18239TIP3   OH276207   1.510   5.680  11.905  0.4517  0.3299  0.3932
18239TIP3    H176208   1.423   5.714  11.926 -0.3342 -2.0325  1.4031
18239TIP3    H276209   1.570   5.741  11.946 -0.8430  0.6114  1.9827
18240TIP3   OH276210   2.006   0.420   0.480  0.0417 -0.7404  0.2079
18240TIP3    H176211   2.068   0.471   0.428  2.3339 -3.5634 -0.1138
18240TIP3    H276212   1.997   0.338   0.431  0.1308 -2.4268  2.8153
18241TIP3   OH276213   2.396   6.567   5.036  0.4488 -0.0105 -0.1152
18241TIP3    H176214   2.483   6.608   5.032  0.1404  1.0163  1.9773
18241TIP3    H276215   2.335   6.640   5.024 -0.0990 -0.2216  1.2148
18242TIP3   OH276216   0.972   4.223   5.423 -0.5647 -0.5424  0.3897
18242TIP3    H176217   0.909   4.173   5.474 -1.6889 -0.2589 -0.6862
18242TIP3    H276218   1.053   4.219   5.475 -1.8754  0.5178  2.6646
18243TIP3   OH276219   3.095   4.063  15.268 -0.1277  0.3214 -0.4301
18243TIP3    H176220   3.118   3.995  15.331  1.7713  0.8691 -0.4462
18243TIP3    H276221   3.016   4.103  15.304  0.6358  0.3121  1.3991
18244TIP3   OH276222   1.729   6.497   5.512  0.3724  0.0608  0.2816
18244TIP3    H176223   1.645   6.464   5.544 -0.3700 -1.0934 -2.5650
18244TIP3    H276224   1.787   6.421   5.516  0.5480  0.1726 -0.1426
18245TIP3   OH276225   0.804   6.542   4.851 -0.3126  0.8853  0.0813
18245TIP3    H176226   0.779   6.600   4.779 -0.3601 -0.0271 -0.6633
18245TIP3    H276227   0.863   6.478   4.810 -1.4168 -0.4729  0.5337
18246TIP3   OH276228   0.099   3.126   1.260 -0.1827 -0.1098  0.3021
18246TIP3    H176229   0.128   3.211   1.229 -0.0555 -0.3749 -0.3241
18246TIP3    H276230   0.041   3.146   1.333  0.6332  0.4673  0.8063
18247TIP3   OH276231   2.635   0.694  10.624 -0.0137  0.2551 -0.1383
18247TIP3    H176232   2.678   0.748  10.557 -0.5882  0.4039 -0.3996
18247TIP3    H276233   2.630   0.607  10.584  0.3771  0.1520  0.0404
18248TIP3   OH276234   0.384   2.904   0.648 -0.3062  0.2888 -0.2730
18248TIP3    H176235   0.362   2.811   0.646  0.0550  0.2054 -1.8335
18248TIP3    H276236   0.300   2.949   0.654 -0.8062 -0.0886 -3.1478
18249TIP3   OH276237   6.102   4.783   4.265  0.3814 -0.2536 -0.1256
18249TIP3    H176238   6.068   4.697   4.291 -0.5800 -0.0314 -0.5916
18249TIP3    H276239   6.026   4.828   4.228  0.3359  1.6153  2.0487
18250TIP3   OH276240   6.479   0.419  16.804 -0.2019 -0.0669 -0.4522
18250TIP3    H176241   6.393   0.441  16.770 -1.2714  1.6684  2.8634
18250TIP3    H276242   6.484   0.324  16.798 -2.1495 -0.1716 -1.1719
18251TIP3   OH276243   5.482   0.945  17.083  0.2790  0.2761  0.1944
18251TIP3    H176244   5.550   0.878  17.074 -1.0740 -1.1543  0.2291
18251TIP3    H276245   5.470   0.979  16.994 -0.1629 -0.7260 -0.1510
18252TIP3   OH276246   1.065   1.391   5.520  0.1615  0.3344  0.1705
18252TIP3    H176247   1.028   1.473   5.553 -0.5743 -0.0263  0.2611
18252TIP3    H276248   1.085   1.340   5.599 -0.1804  0.0870  0.1018
18253TIP3   OH276249   1.166   5.041   2.709  0.0426  0.4569  0.3861
18253TIP3    H176250   1.169   5.040   2.805  1.3918 -1.3318  0.3803
18253TIP3    H276251   1.076   5.016   2.688  0.4123 -1.8324  1.2501
18254TIP3   OH276252   5.286   5.267   5.763 -0.0874  0.1838  0.4820
18254TIP3    H176253   5.319   5.289   5.676  1.2908  1.1646  1.2071
18254TIP3    H276254   5.217   5.331   5.779 -0.1007  0.2269  0.2530
18255TIP3   OH276255   5.131   1.768   2.174 -0.2188 -0.0215  0.0846
18255TIP3    H176256   5.042   1.778   2.140 -0.4668 -1.0798  0.3840
18255TIP3    H276257   5.188   1.794   2.102 -0.7388 -1.7230 -1.0037
18256TIP3   OH276258   2.741   5.090  11.539 -0.3055 -0.0708 -0.4176
18256TIP3    H176259   2.718   5.183  11.532 -0.9491 -0.1277  0.6932
18256TIP3    H276260   2.666   5.050  11.584 -0.2075 -1.2034 -1.2197
18257TIP3   OH276261   1.049   0.170   5.016  0.2148 -0.3639  0.1009
18257TIP3    H176262   1.010   0.254   4.991  1.6494  1.4262  3.1848
18257TIP3    H276263   1.139   0.174   4.982  0.5376 -0.2301  0.9319
18258TIP3   OH276264   6.821   6.762  16.252 -0.3477  0.2082  0.0797
18258TIP3    H176265   6.894   6.768  16.314 -0.5957  1.6216  0.2865
18258TIP3    H276266   6.861   6.734  16.170  0.1516 -0.6755  0.6161
18259TIP3   OH276267   3.177   1.389  13.600  0.3199  0.0601 -0.0381
18259TIP3    H176268   3.136   1.335  13.668 -1.0335  1.2516  0.1366
18259TIP3    H276269   3.213   1.326  13.538 -0.3173 -1.0438  0.6813
18260TIP3   OH276270   0.932   3.720  16.992 -0.2397  0.4385 -0.1842
18260TIP3    H176271   0.838   3.702  16.984 -0.4051  1.5248 -0.9090
18260TIP3    H276272   0.971   3.636  17.015 -1.5284  0.1838  1.2660
18261TIP3   OH276273   3.599   3.083  16.704 -0.4751  0.1292  0.2846
18261TIP3    H176274   3.603   3.177  16.684  0.3206 -0.0237 -0.3076
18261TIP3    H276275   3.588   3.080  16.799  0.9300  0.8253  0.4998
18262TIP3   OH276276   6.034   6.626   4.972 -0.4268 -0.7367 -0.3582
18262TIP3    H176277   5.970   6.691   5.003  0.2960 -0.3610  0.3850
18262TIP3    H276278   6.042   6.645   4.878  1.0056  1.4008  0.1181
18263TIP3   OH276279   3.212   1.587  13.280 -0.5731  0.2210 -0.8296
18263TIP3    H176280   3.258   1.652  13.226 -0.7944  0.5357 -0.6414
18263TIP3    H276281   3.269   1.572  13.355 -1.2241  1.3738 -0.0738
18264TIP3   OH276282   1.188   6.331  11.913 -0.1106  0.0331 -0.4358
18264TIP3    H176283   1.126   6.394  11.875 -0.0539 -0.2073 -0.9301
18264TIP3    H276284   1.274   6.366  11.892 -0.0646 -0.7631 -1.6806
18265TIP3   OH276285   3.104   3.595  14.729  0.2371 -0.2220  0.2250
18265TIP3    H176286   3.123   3.607  14.636  2.0644  0.2790  0.6387
18265TIP3    H276287   3.153   3.518  14.754  0.3612  0.0840  0.9428
18266TIP3   OH276288   4.578   3.366  15.262 -0.5694 -0.1121 -0.3056
18266TIP3    H176289   4.645   3.393  15.324 -0.6009 -3.4085  1.4064
18266TIP3    H276290   4.627   3.324  15.191 -0.7055 -1.2908  0.2733
18267TIP3   OH276291   4.030   5.501  13.236 -0.1147 -0.2197  0.0406
18267TIP3    H176292   4.089   5.574  13.258  0.4254 -0.5621 -0.2486
18267TIP3    H276293   4.042   5.440  13.309  1.4395 -1.2132 -0.9946
18268TIP3   OH276294   0.947   1.680  12.637  0.5655 -0.0188  0.4929
18268TIP3    H176295   0.898   1.733  12.700  0.5850 -1.5161  1.8625
18268TIP3    H276296   1.030   1.662  12.681 -0.1146 -2.6080  0.9219
18269TIP3   OH276297   3.039   2.260  13.356  0.1320 -0.3369  0.5853
18269TIP3    H176298   3.058   2.350  13.330 -0.0917 -0.9790 -2.1916
18269TIP3    H276299   2.973   2.268  13.424  1.6021  1.6030  1.8884
18270TIP3   OH276300   0.770   3.548   1.614 -0.0313  0.0859 -0.2341
18270TIP3    H176301   0.786   3.457   1.637 -1.0980  0.3081  1.5916
18270TIP3    H276302   0.676   3.560   1.623 -0.1885  0.9338 -2.3070
18271TIP3   OH276303   5.956   4.484   2.780 -0.5416 -0.8300  0.4492
18271TIP3    H176304   5.924   4.423   2.713 -0.4702  1.3211 -1.6952
18271TIP3    H276305   6.044   4.453   2.801 -0.8235 -1.9397  0.0617
18272TIP3   OH276306   2.157   2.735   2.566  0.2760 -0.1510  0.3168
18272TIP3    H176307   2.063   2.717   2.558  0.1191  0.5432  0.4465
18272TIP3    H276308   2.168   2.821   2.524  0.7910 -0.0806  0.5886
18273TIP3   OH276309   6.615   1.169  15.780 -0.0266 -0.1200  0.0651
18273TIP3    H176310   6.528   1.158  15.818  1.0564 -1.7927  2.2823
18273TIP3    H276311   6.652   1.245  15.826  0.2343 -0.3665  0.2671
18274TIP3   OH276312   4.357   5.515  15.104 -0.4849  0.0995 -0.1600
18274TIP3    H176313   4.377   5.505  15.011 -0.8537 -0.0255 -0.2281
18274TIP3    H276314   4.263   5.497  15.111 -0.3275 -0.5803  0.3381
18275TIP3   OH276315   0.596   6.423   4.560  0.2448  0.4256 -0.3538
18275TIP3    H176316   0.597   6.439   4.654  0.6468  0.7104 -0.4006
18275TIP3    H276317   0.688   6.427   4.534  0.4694 -2.4845 -0.3054
18276TIP3   OH276318   1.451   3.868  13.660  0.3542 -0.5171 -0.0437
18276TIP3    H176319   1.366   3.873  13.703  0.4644 -0.8781  0.2252
18276TIP3    H276320   1.514   3.893  13.728  0.3822  0.9888 -0.5894
18277TIP3   OH276321   3.198   4.702   3.522  0.3141 -0.0220 -0.3035
18277TIP3    H176322   3.259   4.703   3.448  2.4853  0.9010  1.3869
18277TIP3    H276323   3.125   4.648   3.491  0.5010  1.3249 -3.5408
18278TIP3   OH276324   1.913   4.825  13.936  0.0639  0.5420  0.1282
18278TIP3    H176325   1.849   4.786  13.876 -1.3978  2.3012  0.4370
18278TIP3    H276326   1.864   4.836  14.018  1.6477 -0.6702  1.2706
18279TIP3   OH276327   6.027   0.244  16.353 -0.3601  0.2439 -0.3223
18279TIP3    H176328   5.975   0.165  16.337  0.5370 -0.4238 -0.0854
18279TIP3    H276329   6.118   0.216  16.337 -0.0087  1.1800 -0.0407
18280TIP3   OH276330   2.959   4.439   4.365 -0.0456  0.1570  0.4059
18280TIP3    H176331   2.888   4.503   4.373 -1.2192 -0.8688 -1.3064
18280TIP3    H276332   2.939   4.372   4.430 -1.0009 -0.4174 -0.4578
18281TIP3   OH276333   1.331   1.122  15.524  0.0619 -0.0854 -0.5919
18281TIP3    H176334   1.387   1.195  15.550 -1.6484  1.8282 -1.8476
18281TIP3    H276335   1.252   1.133  15.576 -0.4793 -0.6452 -1.2633
18282TIP3   OH276336   4.427   3.223   4.482  0.1855  0.4384 -0.8479
18282TIP3    H176337   4.500   3.165   4.461 -0.2497 -0.4170 -0.0728
18282TIP3    H276338   4.364   3.210   4.410  0.3757  0.4433 -1.0146
18283TIP3   OH276339   1.563   2.253  14.598  0.3640  0.4450  0.3497
18283TIP3    H176340   1.557   2.291  14.510 -1.8462 -0.0050  0.2495
18283TIP3    H276341   1.546   2.160  14.586 -2.8248  0.7597  1.4725
18284TIP3   OH276342   1.725   4.262   1.510 -0.4644 -0.1318 -0.5296
18284TIP3    H176343   1.756   4.178   1.544  1.2930  0.7503  0.1321
18284TIP3    H276344   1.779   4.327   1.553 -0.1510  1.2179 -2.8053
18285TIP3   OH276345   6.740   3.879   5.415 -0.1715  0.5296 -0.2536
18285TIP3    H176346   6.689   3.939   5.469  0.4905 -0.4143  1.4874
18285TIP3    H276347   6.681   3.857   5.342 -0.6257  2.7890 -0.6535
18286TIP3   OH276348   5.008   2.643  15.097  0.1090 -0.3286  0.4613
18286TIP3    H176349   4.980   2.633  15.188  0.7407 -2.0108  0.5134
18286TIP3    H276350   4.995   2.556  15.059 -1.4179  0.6635 -1.4574
18287TIP3   OH276351   0.905   3.554   4.490 -0.0603  0.3560  0.0150
18287TIP3    H176352   0.862   3.622   4.541 -0.6235 -0.6941  0.9755
18287TIP3    H276353   0.999   3.571   4.503 -0.1884  1.4246 -0.4192
18288TIP3   OH276354   1.022   2.805   3.865  0.1390 -0.0507 -0.5357
18288TIP3    H176355   1.044   2.821   3.957  0.1051  1.6926 -0.7977
18288TIP3    H276356   1.086   2.857   3.816 -1.3814  1.0703 -1.4230
18289TIP3   OH276357   1.288   6.186  16.525  0.4258 -0.3142 -0.6616
18289TIP3    H176358   1.228   6.133  16.578 -0.7940  1.5206 -0.0995
18289TIP3    H276359   1.251   6.183  16.437 -1.1753  1.5866 -0.1401
18290TIP3   OH276360   6.311   1.502   4.970  0.3356  0.1355  0.2610
18290TIP3    H176361   6.261   1.536   5.045 -0.3495  0.5805 -0.3813
18290TIP3    H276362   6.395   1.476   5.007  0.5908  1.7991  0.9418
18291TIP3   OH276363   5.707   3.898  16.606  0.0380 -0.5654 -0.2515
18291TIP3    H176364   5.614   3.882  16.594  0.1149 -0.3225 -1.2946
18291TIP3    H276365   5.719   3.905  16.701 -1.0216 -0.4545 -0.1211
18292TIP3   OH276366   1.397   6.833   4.744  0.4009 -0.0969 -0.0263
18292TIP3    H176367   1.410   6.832   4.649 -2.6141 -0.9135 -0.5193
18292TIP3    H276368   1.462   6.771   4.777  0.9450 -0.4419 -1.6365
18293TIP3   OH276369   6.463   2.189  14.941  0.7145  0.4353  0.5055
18293TIP3    H176370   6.522   2.134  14.889 -0.2902  0.4102 -0.6533
18293TIP3    H276371   6.423   2.247  14.876  0.5835  1.4759  1.4891
18294TIP3   OH276372   4.065   1.997   1.737  0.1224 -0.3085  0.2327
18294TIP3    H176373   4.136   1.943   1.773  1.9935  1.5959 -0.3934
18294TIP3    H276374   4.053   1.963   1.648  0.5974 -0.3443  0.1757
18295TIP3   OH276375   3.838   3.339  11.498  0.1407  0.0020  0.4589
18295TIP3    H176376   3.895   3.402  11.454  1.3378 -0.0980  1.8008
18295TIP3    H276377   3.898   3.284  11.549 -1.1609  0.1768  2.2765
18296TIP3   OH276378   2.996   5.170  15.863 -0.1129 -0.0474  0.1510
18296TIP3    H176379   3.077   5.121  15.880  0.6026  1.1365  0.2859
18296TIP3    H276380   2.961   5.189  15.949 -0.2085 -0.0406  0.1104
18297TIP3   OH276381   2.738   1.247  12.357 -0.2065 -0.5372 -0.2098
18297TIP3    H176382   2.658   1.287  12.392 -0.1087 -1.2577  0.8629
18297TIP3    H276383   2.715   1.225  12.267 -0.9789 -0.0787 -0.1399
18298TIP3   OH276384   2.171   1.147   2.427 -0.1382  0.1649  0.1866
18298TIP3    H176385   2.130   1.225   2.464 -0.6636  0.1205 -0.2889
18298TIP3    H276386   2.231   1.181   2.360  0.6414  0.2316  0.9020
18299TIP3   OH276387   4.064   1.007   4.420  0.3152  0.2133 -0.7168
18299TIP3    H176388   4.046   0.993   4.513  2.1820 -1.5595 -0.5521
18299TIP3    H276389   4.082   1.101   4.412  1.1113  0.2231  0.9081
18300TIP3   OH276390   6.829   6.299  14.438 -0.1770 -0.5676 -0.3571
18300TIP3    H176391   6.766   6.356  14.394  2.5104  4.7055  1.8560
18300TIP3    H276392   6.877   6.258  14.366 -1.9514  0.2230 -2.1080
18301TIP3   OH276393   4.513   6.670   5.356  0.0906  0.3999  0.5332
18301TIP3    H176394   4.582   6.735   5.340  1.6744 -0.6359  2.5937
18301TIP3    H276395   4.501   6.627   5.272  0.4650  1.9598 -0.3721
18302TIP3   OH276396   0.257   3.110   1.965 -0.7471  0.7414  0.1942
18302TIP3    H176397   0.321   3.039   1.964  0.2053  1.5511  1.4255
18302TIP3    H276398   0.173   3.066   1.981 -0.7125 -0.4367 -2.3649
18303TIP3   OH276399   2.674   6.317   2.917 -0.3893 -0.1475  0.4807
18303TIP3    H176400   2.613   6.343   2.986 -1.4826  0.5868 -0.7097
18303TIP3    H276401   2.664   6.222   2.910  0.0630 -0.2909  1.6122
18304TIP3   OH276402   4.882   4.909   3.854  0.5105 -0.0898 -0.7130
18304TIP3    H176403   4.833   4.912   3.936 -0.0967 -0.3895 -1.0619
18304TIP3    H276404   4.899   4.816   3.840  0.5753 -0.0419 -0.9488
18305TIP3   OH276405   4.525   5.826   1.651 -0.2170  0.8296 -0.4599
18305TIP3    H176406   4.458   5.848   1.716 -1.4284 -2.0023 -0.5974
18305TIP3    H276407   4.604   5.871   1.682 -1.1420  0.8983  2.0657
18306TIP3   OH276408   3.481   2.686   1.311 -0.1774 -0.3781 -1.0632
18306TIP3    H176409   3.530   2.675   1.393  0.3960 -0.7374 -1.4488
18306TIP3    H276410   3.528   2.632   1.248  0.6538  1.5145 -2.1706
18307TIP3   OH276411   5.831   0.406  16.402  0.7060  0.4483  0.0367
18307TIP3    H176412   5.833   0.481  16.342 -0.6695 -0.2807 -0.9972
18307TIP3    H276413   5.920   0.371  16.401  1.5640  2.4367  1.0876
18308TIP3   OH276414   4.502   2.016  16.622 -0.1289 -0.0811 -0.0342
18308TIP3    H176415   4.490   1.934  16.671 -1.9277  0.3277  0.2803
18308TIP3    H276416   4.535   1.988  16.537 -0.5040 -1.1250  0.1440
18309TIP3   OH276417   3.691   2.927   2.511 -0.4339 -0.4583 -0.1994
18309TIP3    H176418   3.653   2.870   2.578 -0.2045 -1.4374 -0.8885
18309TIP3    H276419   3.711   2.869   2.438  1.2499  0.2366 -0.3316
18310TIP3   OH276420   5.736   1.669   0.197  0.3418  0.1369 -0.7771
18310TIP3    H176421   5.711   1.646   0.107  0.1118  0.7966 -0.8828
18310TIP3    H276422   5.703   1.595   0.249 -1.6465  0.8295 -0.9455
18311TIP3   OH276423   0.521   3.978   3.955 -0.4574  0.6349 -0.4400
18311TIP3    H176424   0.582   3.904   3.959  0.9821  1.7978  0.0634
18311TIP3    H276425   0.494   3.983   3.864  0.5080  0.3332 -0.7500
18312TIP3   OH276426   5.879   1.990   3.833 -0.3658  0.6877  0.0303
18312TIP3    H176427   5.820   1.965   3.762  1.6369  0.4321 -1.6330
18312TIP3    H276428   5.841   1.950   3.911 -0.9315 -1.8067 -1.4277
18313TIP3   OH276429   6.218   4.238   4.437  0.1340 -0.6645 -0.9790
18313TIP3    H176430   6.284   4.298   4.400 -0.7019  2.4099  2.0679
18313TIP3    H276431   6.270   4.174   4.486  0.9881  0.6336 -0.1096
18314TIP3   OH276432   4.178   4.033  13.781  0.4673  0.5058  0.4463
18314TIP3    H176433   4.261   4.053  13.823  0.7292 -0.4127  0.3775
18314TIP3    H276434   4.161   4.109  13.724  1.8155  0.2081 -0.3857
18315TIP3   OH276435   1.666   1.690  15.068  0.1113  0.7459  0.4407
18315TIP3    H176436   1.713   1.773  15.077  0.4244  0.5638  0.5281
18315TIP3    H276437   1.636   1.670  15.157 -0.2341  0.9239  0.3621
18316TIP3   OH276438   0.878   2.320  12.428  0.3966 -0.4693  0.3557
18316TIP3    H176439   0.933   2.289  12.356  0.1364  0.6990 -0.3704
18316TIP3    H276440   0.918   2.284  12.506  3.1207  1.5278  0.0044
18317TIP3   OH276441   3.003   5.341  17.029  0.2120  0.3835 -0.1512
18317TIP3    H176442   3.089   5.376  17.007  0.1250  1.5663  1.2347
18317TIP3    H276443   3.018   5.287  17.106 -0.1231 -0.3205 -0.5678
18318TIP3   OH276444   3.335   2.275  14.170  0.1720 -0.3143 -0.8710
18318TIP3    H176445   3.288   2.223  14.104 -0.2246 -2.5572  1.0430
18318TIP3    H276446   3.374   2.210  14.228  1.8756  1.5620  0.2092
18319TIP3   OH276447   3.476   0.625   1.751 -0.1203 -0.0590  0.5721
18319TIP3    H176448   3.567   0.629   1.780 -0.4655 -0.1206  1.7189
18319TIP3    H276449   3.435   0.562   1.811 -1.1957  0.9005  0.8768
18320TIP3   OH276450   6.203   5.970   1.147  0.0718 -0.0217 -0.4127
18320TIP3    H176451   6.229   6.049   1.099 -2.4265  1.2636  0.1950
18320TIP3    H276452   6.164   6.003   1.228  0.2425 -1.9712  0.5241
18321TIP3   OH276453   0.222   5.785   2.656  0.8222 -0.4414  0.2210
18321TIP3    H176454   0.237   5.691   2.666  2.6280 -0.1475  0.7152
18321TIP3    H276455   0.256   5.823   2.738  0.7947  0.6978 -0.2782
18322TIP3   OH276456   6.416   3.443   2.811  0.1857  0.0179  0.7304
18322TIP3    H176457   6.365   3.467   2.734 -0.9961 -1.1495  1.1152
18322TIP3    H276458   6.506   3.468   2.789  0.1626 -1.6974 -1.6626
18323TIP3   OH276459   3.348   4.751  13.611 -0.6129 -0.6672  0.4059
18323TIP3    H176460   3.364   4.833  13.658  0.9301 -0.6570 -0.0571
18323TIP3    H276461   3.279   4.771  13.548 -0.9091  0.0048  0.9382
18324TIP3   OH276462   5.519   6.091   4.147  0.3181 -0.1747  0.0389
18324TIP3    H176463   5.489   6.172   4.188  2.8401  0.2299  1.2964
18324TIP3    H276464   5.488   6.096   4.057 -1.6883  0.9807  0.7310
18325TIP3   OH276465   6.064   1.928  15.283 -0.2696  0.5844 -0.4762
18325TIP3    H176466   6.097   1.922  15.373 -2.1075  0.6809  0.2448
18325TIP3    H276467   5.996   1.995  15.288  0.5668  1.6525 -2.2794
18326TIP3   OH276468   5.565   5.339  16.991  0.3266  0.3555 -0.0630
18326TIP3    H176469   5.517   5.396  17.050  0.2904  0.5767 -0.3080
18326TIP3    H276470   5.528   5.356  16.904  1.4250  1.1579 -0.3910
18327TIP3   OH276471   4.110   6.103  13.646 -0.1132  0.3371 -0.1321
18327TIP3    H176472   4.081   6.120  13.557 -1.6359 -0.0741  0.2627
18327TIP3    H276473   4.063   6.166  13.700 -0.5770 -0.5910  0.5727
18328TIP3   OH276474   3.284   6.310  15.638  0.4044 -0.2011  0.6484
18328TIP3    H176475   3.289   6.239  15.702  0.7256 -0.7270  0.0469
18328TIP3    H276476   3.236   6.380  15.683 -1.2878 -1.3576  0.7464
18329TIP3   OH276477   5.014   5.098  14.985  0.1410 -0.1191 -0.0572
18329TIP3    H176478   4.973   5.012  14.994  1.0202 -0.6303 -0.7045
18329TIP3    H276479   5.105   5.084  15.011 -0.3403  1.2854  2.6678
18330TIP3   OH276480   4.585   2.977  11.427  0.1421  0.4078 -0.3186
18330TIP3    H176481   4.681   2.985  11.421  0.2708 -0.7553 -0.0389
18330TIP3    H276482   4.563   3.029  11.505  0.7190 -0.4515  0.4353
18331TIP3   OH276483   2.399   0.338   6.218  0.0601 -0.3262 -0.4765
18331TIP3    H176484   2.446   0.420   6.204 -0.0196 -0.2667 -0.3995
18331TIP3    H276485   2.465   0.270   6.209  0.1566 -0.2440 -0.3853
18332TIP3   OH276486   0.794   1.107   1.183 -0.3583 -0.0714 -0.3102
18332TIP3    H176487   0.771   1.130   1.273  0.3229  2.9476 -0.7958
18332TIP3    H276488   0.849   1.030   1.191 -0.3246  0.1085  1.8709
18333TIP3   OH276489   5.959   2.214   2.279  0.4156 -0.3256  0.6850
18333TIP3    H176490   5.898   2.287   2.275  1.1319  0.2669  0.5193
18333TIP3    H276491   5.903   2.136   2.269 -0.6939  0.0305  3.2676
18334TIP3   OH276492   6.608   6.299  10.950  0.1855 -0.4328  0.3902
18334TIP3    H176493   6.644   6.221  10.908  0.2089  0.4734 -1.3495
18334TIP3    H276494   6.666   6.315  11.024  2.4314  0.0278 -1.3678
18335TIP3   OH276495   0.812   1.848  14.553  0.2614 -0.5693  0.3617
18335TIP3    H176496   0.853   1.934  14.550  1.1928 -1.0316 -1.9387
18335TIP3    H276497   0.873   1.794  14.604  0.4456 -0.2401  0.4915
18336TIP3   OH276498   3.351   1.684  15.703  0.0995 -0.1805  0.2795
18336TIP3    H176499   3.310   1.601  15.678 -0.8568 -0.0630  1.3840
18336TIP3    H276500   3.352   1.735  15.622  0.7419 -1.2656 -0.4295
18337TIP3   OH276501   2.274   1.621   2.572 -0.0215 -0.0445 -0.0828
18337TIP3    H176502   2.321   1.668   2.641 -0.9325 -0.0143  0.5381
18337TIP3    H276503   2.278   1.680   2.496  1.3988 -0.2873 -0.2109
18338TIP3   OH276504   1.295   2.127   2.440 -0.0171  0.4054 -0.3366
18338TIP3    H176505   1.334   2.151   2.356 -0.0545  0.1663 -0.4245
18338TIP3    H276506   1.334   2.042   2.461 -0.0897  0.4146 -0.1661
18339TIP3   OH276507   0.859   0.399  14.316  0.1924  0.1777 -0.2565
18339TIP3    H176508   0.942   0.357  14.339 -1.4872 -3.4256 -0.0508
18339TIP3    H276509   0.828   0.438  14.397  0.0947 -1.5465  0.5695
18340TIP3   OH276510   0.471   2.325   1.356 -0.0782  0.0974  0.1925
18340TIP3    H176511   0.416   2.273   1.298  1.0523 -1.4865  0.4785
18340TIP3    H276512   0.410   2.380   1.406 -1.1043  1.2564 -2.1904
18341TIP3   OH276513   6.630   4.233   5.565  0.2224 -0.2028 -0.2558
18341TIP3    H176514   6.610   4.236   5.471  1.0794 -0.6207 -0.4688
18341TIP3    H276515   6.604   4.318   5.599 -1.3310 -0.5092 -0.6092
18342TIP3   OH276516   6.272   1.757   2.112  0.2241 -0.1467 -0.2306
18342TIP3    H176517   6.312   1.721   2.191 -0.2135  1.4190  0.7288
18342TIP3    H276518   6.322   1.716   2.040  1.1551 -0.9784  0.8520
18343TIP3   OH276519   0.734   0.765   2.320 -0.1452  0.3525  0.4069
18343TIP3    H176520   0.749   0.768   2.225  1.1352  0.6159  0.6056
18343TIP3    H276521   0.675   0.691   2.332  1.5221 -1.1773 -0.3892
18344TIP3   OH276522   0.722   6.268  15.087  0.1311  0.0869 -0.8180
18344TIP3    H176523   0.764   6.187  15.114 -0.6795  0.4666  1.9422
18344TIP3    H276524   0.774   6.337  15.128 -2.7132  0.5798  2.3780
18345TIP3   OH276525   3.888   2.595   5.758 -0.6798  0.4260  0.6896
18345TIP3    H176526   3.822   2.546   5.808 -0.9477  1.5127  1.4376
18345TIP3    H276527   3.853   2.684   5.753  0.1521  0.7275  0.0066
18346TIP3   OH276528   2.830   1.411  11.621  0.2072  0.8134  0.3490
18346TIP3    H176529   2.751   1.395  11.570  0.5424 -0.3113  0.1570
18346TIP3    H276530   2.838   1.506  11.624 -2.5449  1.1254  2.4951
18347TIP3   OH276531   3.218   0.721   0.094 -0.5030  0.2194 -0.0851
18347TIP3    H176532   3.149   0.692   0.034 -1.8778  0.5519  1.2658
18347TIP3    H276533   3.291   0.661   0.077 -1.4611 -0.7724 -0.8762
18348TIP3   OH276534   1.200   2.660   2.610  0.6714 -0.1733 -0.4914
18348TIP3    H176535   1.223   2.568   2.596  0.9248  0.0118 -1.3922
18348TIP3    H276536   1.266   2.708   2.561  1.1635  0.5353  0.8324
18349TIP3   OH276537   5.091   1.960   4.203  0.1559  0.2278  0.1146
18349TIP3    H176538   5.067   1.948   4.295 -0.1879  0.3445  0.0416
18349TIP3    H276539   5.071   1.876   4.161 -2.7345  1.1021 -0.5018
18350TIP3   OH276540   1.336   5.477   1.318 -0.1216  0.4653 -0.5468
18350TIP3    H176541   1.304   5.538   1.252 -1.3734 -0.3176 -0.7047
18350TIP3    H276542   1.279   5.401   1.309  0.2381  0.0067  0.8546
18351TIP3   OH276543   1.001   0.792   5.221 -0.2339  0.6117 -0.6210
18351TIP3    H176544   1.051   0.720   5.259 -1.7443  0.5666  1.4191
18351TIP3    H276545   1.019   0.867   5.278 -1.2781  0.9653 -0.7242
18352TIP3   OH276546   6.680   1.845   4.167  0.0920  0.2624  0.1316
18352TIP3    H176547   6.757   1.887   4.206 -0.3172  1.3573 -0.1792
18352TIP3    H276548   6.681   1.756   4.200  1.6974  0.1557 -0.1654
18353TIP3   OH276549   3.992   0.077  13.951 -0.0986 -0.1744  0.3762
18353TIP3    H176550   4.058   0.134  13.990 -0.4360  0.1491  0.4703
18353TIP3    H276551   3.909   0.108  13.986 -0.4914  0.5817 -1.1318
18354TIP3   OH276552   3.239   0.476  13.803 -0.1763 -0.1463 -0.0625
18354TIP3    H176553   3.297   0.535  13.853 -1.2979  0.3236  0.7308
18354TIP3    H276554   3.270   0.484  13.713  0.1862  1.0842  0.1405
18355TIP3   OH276555   3.230   0.009  12.192 -0.2503  0.3515  0.1332
18355TIP3    H176556   3.212   0.063  12.115  0.2675  1.1664  0.5705
18355TIP3    H276557   3.146  -0.030  12.214 -0.2493 -0.5786 -1.3467
18356TIP3   OH276558   3.894   1.538  13.434 -0.3007  1.0399 -0.0803
18356TIP3    H176559   3.827   1.495  13.487 -0.3409  1.6724  0.3912
18356TIP3    H276560   3.934   1.601  13.493 -0.1415  1.5441 -0.7210
18357TIP3   OH276561   3.223   0.734   5.046  0.0452 -0.4767  0.0727
18357TIP3    H176562   3.231   0.788   5.125 -2.3608 -1.3183  0.9787
18357TIP3    H276563   3.173   0.789   4.985 -0.7987 -0.9604  0.3139
18358TIP3   OH276564   6.593   5.979  15.807  0.1224  0.5721  0.1458
18358TIP3    H176565   6.525   5.979  15.875 -1.5189 -0.8135 -1.3857
18358TIP3    H276566   6.619   6.071  15.799  0.3857  0.7839  2.5869
18359TIP3   OH276567   5.015   0.308   2.701  0.5971  0.5932 -0.2441
18359TIP3    H176568   5.061   0.250   2.761 -0.4870 -2.3192 -2.0343
18359TIP3    H276569   4.927   0.317   2.738  0.4137  0.1252 -0.5627
18360TIP3   OH276570   4.078   4.306   6.277 -0.0712 -0.5550  0.1095
18360TIP3    H176571   4.057   4.264   6.360  2.1252  0.6176  1.3471
18360TIP3    H276572   4.051   4.397   6.288 -0.6672 -0.5941 -0.8654
18361TIP3   OH276573   2.080   1.184  11.366  0.0504 -0.0986 -0.6064
18361TIP3    H176574   1.997   1.230  11.359  0.3851  0.4324 -1.2064
18361TIP3    H276575   2.059   1.092  11.347 -0.8610 -0.4788  1.9302
18362TIP3   OH276576   0.801   6.049   4.787  0.1057  0.0058  0.3021
18362TIP3    H176577   0.847   6.120   4.831 -2.2082  1.9830 -0.2472
18362TIP3    H276578   0.813   5.973   4.845  1.0809  1.2956  1.8752
18363TIP3   OH276579   5.783   5.719   2.112 -0.0298  0.2570 -0.1465
18363TIP3    H176580   5.746   5.640   2.151 -0.4554  0.3880 -0.2835
18363TIP3    H276581   5.866   5.690   2.073 -0.6716 -0.3438 -1.0960
18364TIP3   OH276582   3.827   6.716   6.081 -0.2415  0.7591  0.2883
18364TIP3    H176583   3.845   6.648   6.146 -0.5058  0.3181 -0.0995
18364TIP3    H276584   3.732   6.728   6.086 -0.3445  0.2859 -0.4520
18365TIP3   OH276585   0.271   6.228   5.706 -0.2261 -1.0131 -0.1831
18365TIP3    H176586   0.323   6.155   5.740  0.6063 -0.1213  0.5424
18365TIP3    H276587   0.335   6.296   5.685 -1.0063 -0.3281 -0.4378
18366TIP3   OH276588   2.593   3.809   6.156  0.9294 -0.3542 -0.3057
18366TIP3    H176589   2.517   3.867   6.145  0.5728 -0.8455 -0.4521
18366TIP3    H276590   2.666   3.869   6.173  0.8352  0.2275 -1.7705
18367TIP3   OH276591   3.001   5.946   4.131  0.0410  0.1150  0.2633
18367TIP3    H176592   2.964   6.008   4.194 -1.6768 -0.6138  0.0223
18367TIP3    H276593   3.094   5.968   4.127 -0.3411  1.9941  0.9498
18368TIP3   OH276594   3.475   2.979  12.138  0.0152 -0.0255  0.2347
18368TIP3    H176595   3.558   3.027  12.146 -0.7273  1.0312  2.2355
18368TIP3    H276596   3.476   2.944  12.049  2.3307  0.4602  0.0076
18369TIP3   OH276597   4.698   2.455  11.678 -0.4501  0.4300  0.0302
18369TIP3    H176598   4.714   2.547  11.655  0.8973  0.7535  2.0768
18369TIP3    H276599   4.784   2.419  11.697 -0.5482 -2.1142 -3.2883
18370TIP3   OH276600   4.227   4.312   3.240  0.0955  0.0164  0.2935
18370TIP3    H176601   4.235   4.381   3.174  0.1983  0.4021  0.7048
18370TIP3    H276602   4.278   4.344   3.314 -0.7948  0.0266  0.9226
18371TIP3   OH276603   2.980   3.434   5.699  0.1489 -0.4677 -0.6967
18371TIP3    H176604   3.010   3.377   5.770  2.4056 -0.6032 -1.6668
18371TIP3    H276605   2.899   3.473   5.732 -0.4815 -2.7645  0.7546
18372TIP3   OH276606   6.813   4.030  14.622  0.3298 -0.0841  0.1602
18372TIP3    H176607   6.869   4.082  14.679 -0.9492  1.4841  0.0631
18372TIP3    H276608   6.817   3.941  14.658 -0.5329  0.8679  2.7779
18373TIP3   OH276609   0.244   2.232   0.443  0.5795 -0.0704  0.0569
18373TIP3    H176610   0.293   2.150   0.430  1.1009 -0.0963  1.9123
18373TIP3    H276611   0.312   2.300   0.447  0.4305  0.0183  1.6953
18374TIP3   OH276612   4.458   5.576   4.566 -0.5082 -0.0545 -0.1413
18374TIP3    H176613   4.517   5.504   4.588 -3.0071 -2.2713 -0.1607
18374TIP3    H276614   4.466   5.586   4.471  1.5886  1.4322  0.1192
18375TIP3   OH276615   0.676   0.650   3.770  0.0255 -0.2327 -0.0628
18375TIP3    H176616   0.660   0.709   3.696 -0.2531  0.0417  0.2125
18375TIP3    H276617   0.716   0.573   3.731  0.7349  0.2850 -0.3804
18376TIP3   OH276618   5.356   5.841   5.804  0.3898 -1.0142 -0.4286
18376TIP3    H176619   5.262   5.823   5.796  0.6484 -2.3695 -0.4745
18376TIP3    H276620   5.367   5.866   5.896 -0.0982 -0.2476 -0.5634
18377TIP3   OH276621   2.196   4.807  15.964  0.3590  0.2698  0.0479
18377TIP3    H176622   2.181   4.860  16.042  0.8973 -0.4928  0.6723
18377TIP3    H276623   2.161   4.721  15.986 -1.2379  0.5351 -1.2444
18378TIP3   OH276624   1.038   6.469   5.032 -0.4412 -0.0860  0.6602
18378TIP3    H176625   1.002   6.511   5.110 -1.1911 -1.4905  1.0868
18378TIP3    H276626   1.047   6.541   4.969 -1.1085  0.8275  1.5682
18379TIP3   OH276627   2.479   2.081  16.755 -0.2258  0.2172 -0.0400
18379TIP3    H176628   2.387   2.073  16.779  0.0292 -1.6240  0.4596
18379TIP3    H276629   2.518   1.997  16.779  2.0421  1.6235  1.7157
18380TIP3   OH276630   4.399   4.462  15.055 -0.0868 -0.5374  0.3154
18380TIP3    H176631   4.347   4.492  14.980 -1.1142  0.0819  1.2452
18380TIP3    H276632   4.358   4.380  15.082 -0.1080 -0.4455  0.5692
18381TIP3   OH276633   0.093   2.383   4.484 -0.8679 -0.2396  0.3513
18381TIP3    H176634   0.101   2.428   4.568  1.4161 -1.2341  0.7237
18381TIP3    H276635   0.035   2.309   4.502 -0.7450 -0.1948  0.9590
18382TIP3   OH276636   1.456   1.272  14.784 -0.0494 -0.1397  0.3580
18382TIP3    H176637   1.397   1.246  14.854 -1.6521  0.0108 -0.8927
18382TIP3    H276638   1.454   1.199  14.723 -0.9804  0.9180 -0.9341
18383TIP3   OH276639   4.787   3.814   4.094  0.0801  0.0482 -0.0157
18383TIP3    H176640   4.809   3.829   4.185 -0.1298 -1.5853  0.3268
18383TIP3    H276641   4.695   3.840   4.087  0.5392  1.7601 -0.1926
18384TIP3   OH276642   2.323   1.780   5.303  0.2722  0.0975  0.0273
18384TIP3    H176643   2.236   1.806   5.273 -0.2428 -1.2413  0.2660
18384TIP3    H276644   2.377   1.782   5.224 -0.4747 -0.9924 -0.5459
18385TIP3   OH276645   3.662   5.983  12.382 -0.1846  0.1893 -0.4102
18385TIP3    H176646   3.615   5.916  12.332  0.6662 -1.0728  0.4293
18385TIP3    H276647   3.744   5.996  12.333 -0.5228  0.9548 -0.8003
18386TIP3   OH276648   4.972   4.145  15.997 -0.0806 -0.1493  0.6497
18386TIP3    H176649   5.048   4.159  15.941 -0.5635 -1.2883 -0.3348
18386TIP3    H276650   5.003   4.165  16.085  1.3057 -0.4407  0.2425
18387TIP3   OH276651   6.068   0.985   3.626 -0.5497  0.3635  0.1044
18387TIP3    H176652   5.984   1.024   3.602  0.5737  1.7100 -1.9502
18387TIP3    H276653   6.097   1.035   3.703 -1.5215 -0.0055  0.7281
18388TIP3   OH276654   5.308   4.306   5.226  0.0046  0.2990 -0.5632
18388TIP3    H176655   5.252   4.324   5.301  0.5669  0.6137 -0.2051
18388TIP3    H276656   5.391   4.351   5.247  0.1512  0.4349 -1.3927
18389TIP3   OH276657   5.601   6.515  12.621 -0.5213 -0.2789  0.2313
18389TIP3    H176658   5.693   6.540  12.609 -0.4630 -1.3533 -2.0877
18389TIP3    H276659   5.602   6.420  12.624 -1.6647 -0.3724 -1.2738
18390TIP3   OH276660   6.594   3.457  15.564 -0.1637  0.4307 -0.5332
18390TIP3    H176661   6.558   3.454  15.652  0.1732 -0.1613 -0.4080
18390TIP3    H276662   6.665   3.522  15.568  0.4781 -0.2746 -0.1155
18391TIP3   OH276663   0.554   0.303  11.616  0.4684  0.2203  0.2800
18391TIP3    H176664   0.607   0.228  11.588  1.1600  1.0907 -0.8701
18391TIP3    H276665   0.619   0.369  11.642 -0.1232  0.4597  1.1760
18392TIP3   OH276666   4.256   2.031  16.813 -0.0577 -0.4112 -0.0787
18392TIP3    H176667   4.298   2.083  16.745 -0.9632  1.5739  0.8117
18392TIP3    H276668   4.328   1.986  16.857  0.7275 -0.1626 -1.0769
18393TIP3   OH276669   6.601   5.618   6.503  0.2319 -0.0214  0.2434
18393TIP3    H176670   6.673   5.611   6.566  0.8925  1.8906 -0.2088
18393TIP3    H276671   6.601   5.711   6.477 -1.7796 -0.1795 -0.5106
18394TIP3   OH276672   1.453   2.401  12.512  0.5162  0.7642  0.3236
18394TIP3    H176673   1.522   2.336  12.499 -0.6009 -0.1515 -1.5534
18394TIP3    H276674   1.458   2.458  12.435 -1.4294  0.0243 -0.4255
18395TIP3   OH276675   4.166   2.836  15.712 -0.1230  0.1684  0.1983
18395TIP3    H176676   4.178   2.846  15.807  0.1083 -0.5299  0.2433
18395TIP3    H276677   4.084   2.883  15.694 -0.3083  0.0812  0.7820
18396TIP3   OH276678   4.855   3.021  11.372  0.0870  0.0091  0.0121
18396TIP3    H176679   4.898   2.981  11.297 -1.1645 -0.2728 -0.5895
18396TIP3    H276680   4.888   3.111  11.374  0.1370  0.0194 -0.8830
18397TIP3   OH276681   1.516   6.361  16.421  0.5403 -0.2682  0.3925
18397TIP3    H176682   1.446   6.337  16.360  0.5389  0.3908  0.1255
18397TIP3    H276683   1.553   6.442  16.385  2.5403 -1.4495 -0.4042
18398TIP3   OH276684   0.136   5.741   4.040  0.5117 -0.4565 -0.2088
18398TIP3    H176685   0.230   5.752   4.025  0.4365 -1.4795 -1.5677
18398TIP3    H276686   0.102   5.705   3.958 -0.9161 -1.0089  0.5892
18399TIP3   OH276687   4.462   6.476   5.574 -0.4200 -0.8451 -0.0824
18399TIP3    H176688   4.466   6.549   5.512 -1.2179 -0.4326  0.3340
18399TIP3    H276689   4.375   6.439   5.560 -0.7965 -0.4517  1.1122
18400TIP3   OH276690   1.266   4.348  15.992  0.0660  0.4352  0.5266
18400TIP3    H176691   1.272   4.390  16.077 -0.9306  0.4231  0.6151
18400TIP3    H276692   1.175   4.360  15.966 -0.0631 -1.0303  0.2297
18401TIP3   OH276693   2.236   4.983  10.992  0.1334  0.0223 -0.1033
18401TIP3    H176694   2.215   5.054  10.932 -1.4829 -2.1694 -2.2992
18401TIP3    H276695   2.152   4.959  11.032  0.4182 -1.4059 -0.3024
18402TIP3   OH276696   3.277   1.943  10.353 -0.0126  0.0616  0.5472
18402TIP3    H176697   3.362   1.900  10.362 -0.8381 -1.3427  2.3352
18402TIP3    H276698   3.262   1.985  10.438 -0.9117  0.6735  0.1042
18403TIP3   OH276699   1.969   2.171  16.173  0.2312  0.0749 -0.1307
18403TIP3    H176700   2.013   2.116  16.108  0.9336 -0.0006  0.3943
18403TIP3    H276701   1.898   2.213  16.125 -0.3917 -1.3624 -0.5363
18404TIP3   OH276702   3.603   0.352  15.200 -0.1766 -0.0854 -0.1339
18404TIP3    H176703   3.540   0.320  15.264 -0.9948 -0.3917 -1.0752
18404TIP3    H276704   3.627   0.439  15.232  0.2827 -0.6552  1.1752
18405TIP3   OH276705   1.663   0.275  13.570  0.4277  0.3235 -0.1576
18405TIP3    H176706   1.650   0.280  13.475 -2.4125  0.2319  0.1443
18405TIP3    H276707   1.665   0.366  13.599 -2.9431  0.4570  0.0553
18406TIP3   OH276708   1.745   1.016  16.261  0.1166 -0.0446 -0.0949
18406TIP3    H176709   1.705   0.934  16.232 -2.4566  0.6440  1.1503
18406TIP3    H276710   1.826   1.023  16.212  0.0095 -2.9260 -0.8289
18407TIP3   OH276711   6.310   1.983   4.348  0.0019  0.1929 -0.1909
18407TIP3    H176712   6.226   1.977   4.393 -0.2348 -0.5898 -0.7174
18407TIP3    H276713   6.343   2.070   4.369 -0.4790  0.1352  0.8274
18408TIP3   OH276714   1.172   6.159   3.653  0.0305 -0.4313  0.3393
18408TIP3    H176715   1.134   6.078   3.688  0.9868 -0.1799  2.0967
18408TIP3    H276716   1.263   6.136   3.634 -0.0523 -0.1142 -0.4835
18409TIP3   OH276717   0.419   3.264  16.009  0.1782  0.6301  0.2778
18409TIP3    H176718   0.360   3.288  16.080 -0.7204  0.2657 -0.3326
18409TIP3    H276719   0.367   3.208  15.952  0.6595  1.4356 -1.0128
18410TIP3   OH276720   6.766   4.506  15.671 -0.7872  0.4273  0.7475
18410TIP3    H176721   6.825   4.532  15.600 -1.5231  0.1665  0.0278
18410TIP3    H276722   6.774   4.411  15.675 -0.9773  0.4148  0.8139
18411TIP3   OH276723   0.508   0.407   5.855 -0.1629 -0.0988  0.6907
18411TIP3    H176724   0.478   0.334   5.910 -0.7962 -0.8252 -0.5566
18411TIP3    H276725   0.600   0.387   5.838 -0.5329 -1.0625 -0.2916
18412TIP3   OH276726   3.191   4.492  11.309 -0.0348 -0.1481  0.8662
18412TIP3    H176727   3.219   4.541  11.232 -0.7679 -0.0497  0.6504
18412TIP3    H276728   3.211   4.550  11.383 -0.3355  0.2302  0.6592
18413TIP3   OH276729   0.193   3.353  12.982 -0.7234  0.2683  0.0541
18413TIP3    H176730   0.119   3.403  12.947 -1.1413 -1.3478 -1.5193
18413TIP3    H276731   0.153   3.293  13.046 -0.6340  0.0826 -0.0638
18414TIP3   OH276732   1.274   1.525  15.548 -0.2136 -0.1376 -0.3920
18414TIP3    H176733   1.273   1.611  15.507  0.3970  0.4285  0.7247
18414TIP3    H276734   1.366   1.501  15.553 -0.2008  0.1412  1.2697
18415TIP3   OH276735   6.461   4.574   5.039 -0.1118  0.0533 -0.7118
18415TIP3    H176736   6.510   4.496   5.013  1.1887  0.0277  1.5062
18415TIP3    H276737   6.369   4.546   5.037  0.1680 -0.8677 -1.9475
18416TIP3   OH276738   2.803   1.223   1.094 -0.1813  0.1927 -0.4813
18416TIP3    H176739   2.864   1.159   1.131  0.8635  1.3474 -0.1516
18416TIP3    H276740   2.719   1.203   1.136  0.5802  0.3028  1.1693
18417TIP3   OH276741   1.990   0.141   0.010 -0.0622  0.1768  0.3534
18417TIP3    H176742   1.976   0.098  -0.075 -0.3530  1.3072 -0.1887
18417TIP3    H276743   1.949   0.082   0.073 -1.3388  0.1360 -0.4757
18418TIP3   OH276744   1.493   5.503   3.362 -0.7134 -0.1749  0.1189
18418TIP3    H176745   1.492   5.426   3.418 -0.6474  0.7194  1.4009
18418TIP3    H276746   1.444   5.477   3.284 -1.5469 -1.1955  0.9539
18419TIP3   OH276747   1.329   4.201  14.451  0.1185  0.8047 -0.0477
18419TIP3    H176748   1.287   4.120  14.422 -1.3882  2.0742 -1.5540
18419TIP3    H276749   1.333   4.192  14.547  1.8025 -1.8503 -0.2527
18420TIP3   OH276750   3.112   6.186   1.849  0.3913  0.1468  0.4307
18420TIP3    H176751   3.083   6.239   1.923  1.5532 -0.6903  1.5352
18420TIP3    H276752   3.205   6.171   1.866  1.0962  1.2308 -2.0184
18421TIP3   OH276753   3.607   6.169  13.694 -0.2244 -0.2592  0.0776
18421TIP3    H176754   3.522   6.162  13.652  0.1358  1.8441 -1.1443
18421TIP3    H276755   3.587   6.193  13.785 -0.9401 -0.6284  0.0233
18422TIP3   OH276756   0.108   2.299   0.012  0.1322  0.0995  0.5715
18422TIP3    H176757   0.086   2.243  -0.063  2.0932  0.4749 -0.3432
18422TIP3    H276758   0.069   2.255   0.087 -0.2399 -1.3264 -0.4188
18423TIP3   OH276759   3.091   2.688   4.830  0.1268  0.0392 -0.1840
18423TIP3    H176760   3.114   2.707   4.921  0.1841  1.0411 -0.3924
18423TIP3    H276761   3.002   2.722   4.821  0.0336 -0.2759 -0.4393
18424TIP3   OH276762   3.003   0.005   5.705 -0.1288  0.5288  0.5167
18424TIP3    H176763   3.009  -0.067   5.643  0.4414  1.5068 -0.5964
18424TIP3    H276764   2.918  -0.008   5.748 -1.1665  0.5431 -1.4030
18425TIP3   OH276765   1.932   2.697   2.169 -0.3890 -0.4857 -0.0608
18425TIP3    H176766   2.015   2.737   2.195  0.1298 -0.8153 -1.1519
18425TIP3    H276767   1.954   2.642   2.093 -1.5147 -0.9602 -0.0700
18426TIP3   OH276768   3.601   6.599  13.405  0.2539 -0.2160  1.2261
18426TIP3    H176769   3.510   6.605  13.435 -0.9337 -0.9379 -1.9334
18426TIP3    H276770   3.629   6.511  13.431 -0.0779 -0.1702  1.7768
18427TIP3   OH276771   6.336   6.637  13.959  0.2979 -0.2533 -0.3016
18427TIP3    H176772   6.326   6.583  13.881  0.4895 -0.3658 -0.2480
18427TIP3    H276773   6.297   6.585  14.029 -0.0766 -0.0560 -0.3638
18428TIP3   OH276774   6.744   5.944   3.887 -0.2194 -0.2857 -0.6538
18428TIP3    H176775   6.666   5.926   3.835 -0.8038 -2.2434  0.8020
18428TIP3    H276776   6.732   5.895   3.968  2.0429  0.2104  0.0708
18429TIP3   OH276777   2.321   4.813   6.069 -0.0210  0.3606  0.5021
18429TIP3    H176778   2.259   4.740   6.066  1.0200 -0.5181 -0.3678
18429TIP3    H276779   2.267   4.889   6.093 -1.6927 -0.1431 -1.3462
18430TIP3   OH276780   4.034   3.669  12.905  0.1035 -0.0885 -0.2303
18430TIP3    H176781   3.995   3.672  12.993 -0.9434  1.2861 -0.7043
18430TIP3    H276782   4.128   3.661  12.921 -0.2316 -2.4259  0.9600
18431TIP3   OH276783   4.506   4.399   3.179 -0.6668 -0.7180 -0.9542
18431TIP3    H176784   4.447   4.466   3.147 -0.9878 -0.1319  0.7708
18431TIP3    H276785   4.553   4.440   3.252  0.5110 -1.7627 -1.0802
18432TIP3   OH276786   6.060   3.381  15.990 -0.6147 -0.0891 -0.0266
18432TIP3    H176787   6.087   3.321  15.921  3.5316  0.6689  0.6794
18432TIP3    H276788   5.965   3.392  15.976 -0.5413 -2.2888 -3.6386
18433TIP3   OH276789   5.716   4.653   3.121  0.2484  0.7361  0.0199
18433TIP3    H176790   5.722   4.611   3.035  0.4268 -0.7597  0.7409
18433TIP3    H276791   5.624   4.647   3.144  0.5480 -1.0497  0.9500
18434TIP3   OH276792   2.626   1.649  16.824  0.1057 -0.4425 -0.3335
18434TIP3    H176793   2.581   1.578  16.779  0.5362  0.4431 -2.2410
18434TIP3    H276794   2.556   1.696  16.870 -0.3019 -1.5341  0.1974
18435TIP3   OH276795   6.581   5.941   2.719 -0.6207 -0.3430  0.1366
18435TIP3    H176796   6.593   5.863   2.773  1.0055  0.5316  1.1083
18435TIP3    H276797   6.552   6.009   2.781  1.7707  0.8138  0.1105
18436TIP3   OH276798   1.746   6.555   3.836 -0.0245 -0.5056 -0.6066
18436TIP3    H176799   1.826   6.526   3.881  0.3911 -0.0543 -1.0339
18436TIP3    H276800   1.691   6.477   3.832 -0.7090 -0.2100  2.0007
18437TIP3   OH276801   4.928   3.743   0.322  0.0190 -0.9139  0.2362
18437TIP3    H176802   4.958   3.806   0.386 -0.1921 -0.5168 -0.0524
18437TIP3    H276803   4.910   3.795   0.244  0.3248 -1.3975 -0.1627
18438TIP3   OH276804   0.432   1.734   1.041 -0.1276 -0.2493  0.0083
18438TIP3    H176805   0.348   1.698   1.011  1.1818 -2.6892 -1.0372
18438TIP3    H276806   0.446   1.693   1.126  0.6689 -1.0376 -0.4914
18439TIP3   OH276807   2.841   3.355   1.722 -0.0644  0.0562  0.1439
18439TIP3    H176808   2.920   3.394   1.758  0.1524 -0.8817  0.7001
18439TIP3    H276809   2.872   3.281   1.670 -0.5406  0.0053 -0.0756
18440TIP3   OH276810   5.705   3.442  13.360  0.0581 -0.1865  0.6118
18440TIP3    H176811   5.711   3.531  13.396  0.6382  0.5267 -1.1515
18440TIP3    H276812   5.783   3.397  13.393  0.0153  0.0986  1.1178
18441TIP3   OH276813   4.537   3.311   2.181  0.1540 -0.0438  0.1300
18441TIP3    H176814   4.581   3.371   2.121  2.8951 -2.0892 -0.0912
18441TIP3    H276815   4.524   3.362   2.261  1.2056  1.2099 -0.4646
18442TIP3   OH276816   3.651   3.719   0.766  0.1386  0.2294  0.3456
18442TIP3    H176817   3.707   3.763   0.829  0.4278  0.7118 -0.2361
18442TIP3    H276818   3.576   3.778   0.754 -0.2377 -0.1595  0.7104
18443TIP3   OH276819   2.588   5.851   4.126  0.1046  0.0632 -0.4392
18443TIP3    H176820   2.514   5.817   4.176  0.5352  0.2765  0.3507
18443TIP3    H276821   2.644   5.775   4.112 -0.4236 -0.1765 -1.3545
18444TIP3   OH276822   4.761   6.054   5.940  0.3822  0.2203 -0.3392
18444TIP3    H176823   4.787   5.964   5.919  2.2158  0.9001 -1.1777
18444TIP3    H276824   4.685   6.044   5.997  0.4021 -1.8558 -0.5994
18445TIP3   OH276825   1.708   6.053  12.950 -0.5232 -0.1279 -0.6498
18445TIP3    H176826   1.639   6.060  12.884 -0.4325  0.2559 -0.7015
18445TIP3    H276827   1.660   6.041  13.033 -0.6341 -1.5802 -0.8830
18446TIP3   OH276828   5.141   5.535   1.500  0.7973  0.1737 -0.3133
18446TIP3    H176829   5.174   5.543   1.589  0.7282  1.7049 -0.3911
18446TIP3    H276830   5.103   5.621   1.481  1.6641  0.1926 -2.1512
18447TIP3   OH276831   3.642   2.168  12.441 -0.0908 -0.6038  0.2233
18447TIP3    H176832   3.663   2.085  12.398 -0.8755 -0.9593  0.5262
18447TIP3    H276833   3.707   2.229  12.406  0.6315 -1.3876  0.1603
18448TIP3   OH276834   5.372   3.292  16.517 -0.1237  0.0590  0.2106
18448TIP3    H176835   5.285   3.261  16.492  0.1818  0.0627 -0.8996
18448TIP3    H276836   5.432   3.225  16.486  0.5430  1.6106 -2.1270
18449TIP3   OH276837   3.734   2.537  15.563 -0.0927  0.1607  0.2309
18449TIP3    H176838   3.812   2.590  15.577  0.0875  0.2569 -1.0468
18449TIP3    H276839   3.721   2.537  15.468 -0.1145 -2.0580  0.1833
18450TIP3   OH276840   0.224   2.837  13.602 -0.0486 -0.3078 -0.0121
18450TIP3    H176841   0.309   2.867  13.569 -0.2210  0.6090  0.3428
18450TIP3    H276842   0.165   2.848  13.527 -0.3021  1.1516  0.3698
18451TIP3   OH276843   4.319   5.238   4.468  0.2907  0.7746  0.4286
18451TIP3    H176844   4.315   5.147   4.439  1.4608  1.1925 -1.2068
18451TIP3    H276845   4.267   5.286   4.403  2.1208  1.6110 -0.4949
18452TIP3   OH276846   5.927   2.538   6.578 -0.2658  0.1249 -0.6555
18452TIP3    H176847   5.876   2.512   6.501 -0.9689  1.6718 -0.7531
18452TIP3    H276848   5.940   2.632   6.567  0.1183  0.2647  0.8446
18453TIP3   OH276849   5.369   3.345   3.211  0.0168 -0.0254 -0.4115
18453TIP3    H176850   5.369   3.306   3.123  1.5847 -1.6384  0.2300
18453TIP3    H276851   5.310   3.289   3.262  0.6040 -0.2772  0.0030
18454TIP3   OH276852   6.424   2.699  12.071  0.2435  0.5635 -0.1280
18454TIP3    H176853   6.455   2.778  12.027  0.4672  0.2306 -0.5766
18454TIP3    H276854   6.329   2.701  12.060  0.2332  0.8569  0.0098
18455TIP3   OH276855   1.825   6.243  15.282  0.2382 -0.2840 -0.3221
18455TIP3    H176856   1.914   6.255  15.250  0.5841  0.7508  0.9695
18455TIP3    H276857   1.835   6.214  15.372 -0.7035  1.4652  0.3889
18456TIP3   OH276858   6.224   6.660  11.415  0.1684  0.6127 -0.5147
18456TIP3    H176859   6.265   6.747  11.409  1.7138 -0.1446 -1.9004
18456TIP3    H276860   6.138   6.671  11.376 -0.0628  1.7499  0.2839
18457TIP3   OH276861   6.697   2.601   0.270 -0.5831 -0.4862 -0.4260
18457TIP3    H176862   6.623   2.625   0.215 -0.5215 -0.2277 -0.3983
18457TIP3    H276863   6.657   2.573   0.353 -0.6214  0.7322  0.0003
18458TIP3   OH276864   1.262   2.796  12.426  0.5998 -0.0077 -0.3099
18458TIP3    H176865   1.239   2.788  12.333 -0.3662 -1.9628  0.0662
18458TIP3    H276866   1.270   2.891  12.440  3.3141  0.2952 -2.9498
18459TIP3   OH276867   0.842   2.267   1.419 -0.0968  0.1080 -0.4171
18459TIP3    H176868   0.898   2.236   1.490 -0.6515 -0.6959 -0.3057
18459TIP3    H276869   0.808   2.351   1.450 -1.2486 -0.7565  0.8261
18460TIP3   OH276870   0.418   5.499  16.476  0.4683  0.4214 -0.0752
18460TIP3    H176871   0.337   5.488  16.426  1.1372 -0.4277 -1.0364
18460TIP3    H276872   0.448   5.587  16.454 -0.9168  1.3303  1.4573
18461TIP3   OH276873   2.635   3.136  13.913  0.3875  0.2350  0.0127
18461TIP3    H176874   2.672   3.057  13.874  0.7014 -0.0741  0.9171
18461TIP3    H276875   2.678   3.208  13.868  2.0129 -0.1142  0.9363
18462TIP3   OH276876   5.423   4.688  16.559 -0.0651  0.3818 -0.2736
18462TIP3    H176877   5.476   4.638  16.621 -0.5381  0.8593  0.5252
18462TIP3    H276878   5.472   4.769  16.544  0.4252 -0.0594 -1.1342
18463TIP3   OH276879   5.636   2.843   2.224  0.2785  0.4191  0.2204
18463TIP3    H176880   5.601   2.799   2.301  1.3766 -1.1726 -0.1235
18463TIP3    H276881   5.708   2.786   2.195 -0.5424  0.5650 -2.3963
18464TIP3   OH276882   0.961   6.431   3.122  0.0984  0.1107  0.2821
18464TIP3    H176883   0.891   6.497   3.121  0.9190  1.0016  0.1278
18464TIP3    H276884   0.974   6.409   3.030  0.3193  0.2734  0.2741
18465TIP3   OH276885   4.314   1.299  15.204  0.5169  0.4727 -0.9560
18465TIP3    H176886   4.384   1.309  15.140  1.0029  0.2788 -0.4662
18465TIP3    H276887   4.343   1.350  15.280  2.4863 -3.3605  1.1502
18466TIP3   OH276888   4.703   1.799  14.609 -0.3641  0.0673  0.1461
18466TIP3    H176889   4.749   1.754  14.538  0.0212  0.7416 -0.0371
18466TIP3    H276890   4.614   1.812  14.574 -0.0390  0.8339 -0.4078
18467TIP3   OH276891   4.878   2.832  13.037 -0.8320  0.2698  0.1272
18467TIP3    H176892   4.914   2.889  13.105  2.5552 -0.7667 -0.6423
18467TIP3    H276893   4.855   2.892  12.966 -0.3521  0.9638  0.5480
18468TIP3   OH276894   6.660   5.312   4.913  0.0352  0.3293  0.4375
18468TIP3    H176895   6.622   5.253   4.978 -0.5822 -0.3596 -0.5101
18468TIP3    H276896   6.585   5.345   4.864  0.4579  1.1262  0.3185
18469TIP3   OH276897   5.619   0.129   1.106  0.0348 -0.2837 -0.4891
18469TIP3    H176898   5.590   0.220   1.112  2.0842  0.4272 -0.6358
18469TIP3    H276899   5.604   0.105   1.015 -1.4776 -0.4726 -0.2164
18470TIP3   OH276900   3.698   0.570   3.864 -0.0638 -0.0287 -0.2409
18470TIP3    H176901   3.723   0.487   3.903 -1.6554 -0.5405 -0.2177
18470TIP3    H276902   3.625   0.601   3.917 -0.8376  0.3464 -1.4695
18471TIP3   OH276903   0.761   5.236   4.753 -0.3874 -0.3813  0.5853
18471TIP3    H176904   0.796   5.146   4.750 -0.9325 -0.6035 -2.4782
18471TIP3    H276905   0.818   5.282   4.814  0.5925 -2.5361  1.3923
18472TIP3   OH276906   0.003   4.868  14.648  0.0503  0.1704 -0.0585
18472TIP3    H176907  -0.079   4.821  14.631  0.6366 -1.4040  1.2159
18472TIP3    H276908  -0.006   4.949  14.599 -1.8009 -0.4544 -0.8609
18473TIP3   OH276909   1.023   4.596   5.505 -0.5932 -0.3266 -0.2038
18473TIP3    H176910   1.084   4.554   5.566 -0.3226 -0.2250 -0.3996
18473TIP3    H276911   0.990   4.673   5.552 -0.6942 -0.4727 -0.0364
18474TIP3   OH276912   4.261   5.574  16.005 -0.1456  0.6679  0.1091
18474TIP3    H176913   4.255   5.478  16.006  0.1115  0.6107  2.4553
18474TIP3    H276914   4.176   5.603  15.971  0.3256 -0.3452 -2.1317
18475TIP3   OH276915   4.776   3.104  13.291 -0.6154 -0.4828 -0.4101
18475TIP3    H176916   4.702   3.148  13.249  1.0817  1.2702 -1.7761
18475TIP3    H276917   4.787   3.150  13.374 -1.7602 -1.5522  0.3575
18476TIP3   OH276918   3.109   4.267   4.072  0.2145 -0.4108 -0.0735
18476TIP3    H176919   3.146   4.267   4.160  1.2581  4.1498 -0.2517
18476TIP3    H276920   3.181   4.240   4.015  0.9918  1.0247  0.1879
18477TIP3   OH276921   0.580   2.082   2.698 -0.2893 -0.2442  0.2320
18477TIP3    H176922   0.567   2.176   2.682  2.4650  0.5361  1.8779
18477TIP3    H276923   0.492   2.046   2.703 -1.4237  2.1720 -0.8935
18478TIP3   OH276924   6.753   6.071   4.583 -0.1448  0.0750 -0.0314
18478TIP3    H176925   6.737   6.006   4.651  0.5436  0.2842  0.3402
18478TIP3    H276926   6.721   6.031   4.503  1.3330 -1.2004 -0.0176
18479TIP3   OH276927   4.406   1.885  13.021  0.5865 -0.7334 -0.0744
18479TIP3    H176928   4.389   1.929  12.938 -0.1314 -1.1502 -0.1594
18479TIP3    H276929   4.438   1.954  13.079 -1.6246  0.1674  0.1499
18480TIP3   OH276930   5.022   6.623  12.039  0.1592 -0.1755  0.3341
18480TIP3    H176931   5.027   6.703  11.987 -3.6437 -0.6113 -1.0299
18480TIP3    H276932   5.082   6.563  11.996 -0.1916  0.6323 -1.3884
18481TIP3   OH276933   5.761   4.435   2.236  0.3141  0.0894  0.3327
18481TIP3    H176934   5.841   4.477   2.205 -0.6795  2.0216  0.2564
18481TIP3    H276935   5.768   4.438   2.332  0.2394  0.4732  0.3283
18482TIP3   OH276936   3.488   0.030  13.981 -0.2566 -0.7669  0.3364
18482TIP3    H176937   3.431   0.105  13.996  0.0186 -0.6055  0.5573
18482TIP3    H276938   3.472  -0.028  14.055 -0.9965 -1.2549 -0.1907
18483TIP3   OH276939   4.322   5.245   0.842  0.1790  0.1753 -0.2681
18483TIP3    H176940   4.388   5.286   0.898  1.9676  0.3310 -2.3591
18483TIP3    H276941   4.372   5.208   0.769 -1.8933 -1.2980 -1.0434
18484TIP3   OH276942   4.251   1.122   0.718 -0.7047 -0.0917 -0.1718
18484TIP3    H176943   4.193   1.169   0.777  0.5153  0.4166  0.6600
18484TIP3    H276944   4.330   1.175   0.714 -0.7893 -0.0352 -2.3996
18485TIP3   OH276945   4.624   5.096  13.605  0.2969  0.2286  0.6145
18485TIP3    H176946   4.566   5.101  13.528 -2.1305  0.4917  2.3474
18485TIP3    H276947   4.708   5.129  13.574 -1.0059  1.7390 -1.5575
18486TIP3   OH276948   4.324   5.680   1.458 -0.3720 -0.3407 -0.0140
18486TIP3    H176949   4.366   5.743   1.517  0.3518 -1.1481  0.3587
18486TIP3    H276950   4.258   5.637   1.512 -1.3094  0.5163 -0.4410
18487TIP3   OH276951   4.550   0.974  13.140  0.1714  0.1071 -0.2311
18487TIP3    H176952   4.563   0.962  13.234 -0.3190  0.0701 -0.1669
18487TIP3    H276953   4.547   0.885  13.105  0.7670  0.1272 -0.3404
18488TIP3   OH276954   6.211   1.486  15.059  0.5817  0.2139 -0.2854
18488TIP3    H176955   6.187   1.576  15.080 -0.3002  0.5236 -2.3282
18488TIP3    H276956   6.300   1.493  15.023  0.6904  0.2093 -0.0153
18489TIP3   OH276957   4.015   3.465   3.919  0.0433 -0.0843  0.0414
18489TIP3    H176958   4.109   3.455   3.934  0.5204  1.2502 -1.7278
18489TIP3    H276959   4.001   3.559   3.914 -1.3388 -0.2736 -0.1148
18490TIP3   OH276960   2.841   3.445   4.033  0.2291 -0.0287  0.1655
18490TIP3    H176961   2.790   3.376   4.076  2.2454 -0.8266  1.4607
18490TIP3    H276962   2.854   3.510   4.102 -0.8892  1.2460 -0.7939
18491TIP3   OH276963   1.651   4.075  16.145  0.3367 -0.1249  0.2394
18491TIP3    H176964   1.601   4.154  16.165 -0.6701 -0.4942 -0.7256
18491TIP3    H276965   1.585   4.007  16.130  1.0834 -0.5832 -1.2344
18492TIP3   OH276966   6.752   6.674   0.363 -0.0182 -0.0750  0.0355
18492TIP3    H176967   6.817   6.744   0.376  1.2535 -1.1840 -0.1410
18492TIP3    H276968   6.712   6.663   0.450  0.1272  0.5007  0.1863
18493TIP3   OH276969   1.023   2.278   5.458 -0.4245 -0.3668  0.4877
18493TIP3    H176970   0.929   2.261   5.471  0.0414 -2.7069  1.2580
18493TIP3    H276971   1.034   2.279   5.363 -0.8156 -3.0109  0.3560
18494TIP3   OH276972   3.352   3.290   6.511 -0.3917 -0.9001  0.4408
18494TIP3    H176973   3.327   3.359   6.572 -0.4135 -2.4747  2.3180
18494TIP3    H276974   3.422   3.242   6.556 -0.4905 -2.2036 -0.7112
18495TIP3   OH276975   3.228   5.691  14.097 -1.0960 -0.6730  0.3076
18495TIP3    H176976   3.166   5.761  14.074 -2.9144 -1.8392  1.3959
18495TIP3    H276977   3.284   5.682  14.020 -0.3361  2.4101  0.3945
18496TIP3   OH276978   1.076   1.742  14.148 -0.0090 -0.1766  0.0644
18496TIP3    H176979   1.052   1.794  14.224 -0.0166 -0.6237  0.3748
18496TIP3    H276980   1.000   1.748  14.090  0.2959  0.7794 -0.2515
18497TIP3   OH276981   2.643   4.357  11.127  0.5107 -0.0791 -0.4761
18497TIP3    H176982   2.689   4.310  11.196  1.7138 -1.0172 -1.8455
18497TIP3    H276983   2.698   4.344  11.049 -0.5305  1.3548 -1.4954
18498TIP3   OH276984   5.688   0.929   1.146 -0.5268  0.2853  0.1128
18498TIP3    H176985   5.757   0.922   1.212  0.8906  0.6412 -1.2712
18498TIP3    H276986   5.695   1.018   1.113 -0.3238 -0.2653 -1.4149
18499TIP3   OH276987   5.820   2.013  13.744 -0.3083  0.1755 -0.7109
18499TIP3    H176988   5.734   2.007  13.786 -0.7893 -0.0257 -1.7052
18499TIP3    H276989   5.812   2.086  13.683  0.2457  0.1869 -0.7767
18500TIP3   OH276990   1.469   5.031   3.285 -0.1605 -0.0218 -0.3137
18500TIP3    H176991   1.546   5.064   3.239  0.2058  1.9185  1.5151
18500TIP3    H276992   1.402   5.098   3.270 -1.2728 -1.2594 -1.1457
18501TIP3   OH276993   3.438   2.999   4.893  0.0378  0.3176  0.2893
18501TIP3    H176994   3.501   2.990   4.821 -2.8635  0.0231 -2.4609
18501TIP3    H276995   3.454   2.924   4.949  0.3788 -1.3435 -1.8798
18502TIP3   OH276996   2.925   0.662   6.240  0.2890  0.2394  0.0114
18502TIP3    H176997   3.017   0.682   6.254  0.1854  1.1297 -0.4763
18502TIP3    H276998   2.881   0.692   6.320  0.3022  0.7464 -0.1693
18503TIP3   OH276999   0.771   0.645  16.573 -0.0485  0.7952  0.5513
18503TIP3    H177000   0.686   0.665  16.613 -0.3017  0.4486  0.2004
18503TIP3    H277001   0.835   0.690  16.628 -0.3208 -0.2996  1.8259
18504TIP3   OH277002   3.651   0.949   0.931 -0.5557  0.0536  0.2157
18504TIP3    H177003   3.558   0.930   0.944 -0.4194  0.0705  1.3093
18504TIP3    H277004   3.693   0.918   1.011  0.4724 -0.5538 -0.5442
18505TIP3   OH277005   6.827   1.926   4.958 -0.1728  0.0022  0.1625
18505TIP3    H177006   6.908   1.884   4.987  0.6002 -0.5315 -2.5143
18505TIP3    H277007   6.844   1.950   4.868 -2.4764  1.3519  0.0275
18506TIP3   OH277008   2.013   0.942   4.700  0.2321  0.3687 -0.3237
18506TIP3    H177009   1.932   0.947   4.650 -1.2413  1.6650  2.0167
18506TIP3    H277010   2.028   0.848   4.712 -0.6415  0.1002 -1.1971
18507TIP3   OH277011   2.316   4.779  12.100  0.1314 -0.1478 -0.2973
18507TIP3    H177012   2.328   4.829  12.020  2.7515  1.1280  0.7827
18507TIP3    H277013   2.370   4.701  12.089  0.4329 -0.0110  0.1594
18508TIP3   OH277014   6.752   6.563   4.118 -0.1996 -0.2269  0.7072
18508TIP3    H177015   6.778   6.652   4.141 -1.1003 -0.3040  2.1212
18508TIP3    H277016   6.821   6.508   4.156 -0.8941 -0.2587  1.9676
18509TIP3   OH277017   5.389   4.373   5.679 -0.4633  0.3041 -0.0363
18509TIP3    H177018   5.453   4.440   5.653 -0.6988  0.8986  0.8474
18509TIP3    H277019   5.339   4.415   5.750  0.4803 -1.3674  1.7288
18510TIP3   OH277020   2.391   2.892  13.836 -0.3122 -0.3611  0.3716
18510TIP3    H177021   2.384   2.977  13.792  1.1505 -1.5098 -2.3206
18510TIP3    H277022   2.304   2.879  13.875 -2.1695  0.4356 -3.0487
18511TIP3   OH277023   6.841   3.298   2.467  0.9182  0.2914 -0.2939
18511TIP3    H177024   6.839   3.233   2.397  1.3463  0.4281 -0.4377
18511TIP3    H277025   6.792   3.372   2.432 -0.7987 -0.4660  0.4061
18512TIP3   OH277026   4.796   0.628   3.746 -0.6205  0.3281  0.2711
18512TIP3    H177027   4.834   0.694   3.804  0.9899 -0.9526  0.7395
18512TIP3    H277028   4.841   0.641   3.662 -1.5094  0.8818 -0.1349
18513TIP3   OH277029   1.260   0.463  13.518 -0.6194  0.2472  0.3859
18513TIP3    H177030   1.244   0.369  13.523 -1.5014  0.2487 -1.5553
18513TIP3    H277031   1.321   0.473  13.445 -1.6536  1.2738 -0.3583
18514TIP3   OH277032   1.993   1.412  10.876  0.5733  0.4672  0.0192
18514TIP3    H177033   1.933   1.459  10.818  0.7407  0.2337 -0.3500
18514TIP3    H277034   2.035   1.347  10.819  0.6721  0.1728  0.4244
18515TIP3   OH277035   2.594   1.549   6.328  0.3196  0.1089  0.1000
18515TIP3    H177036   2.544   1.481   6.284 -1.6733 -0.0381  2.4184
18515TIP3    H277037   2.537   1.626   6.325  1.2760  0.8382  0.1382
18516TIP3   OH277038   4.665   0.807   4.558  0.1079  1.0629 -0.2803
18516TIP3    H177039   4.731   0.786   4.624  1.7112  1.2731 -1.7355
18516TIP3    H277040   4.658   0.728   4.505 -3.2329 -0.1203  1.6936
18517TIP3   OH277041   2.531   1.625  13.751 -0.3231  0.4186  0.0812
18517TIP3    H177042   2.616   1.609  13.708 -0.9152 -1.4579 -0.4624
18517TIP3    H277043   2.552   1.626  13.844  0.1380 -1.3313  0.0242
18518TIP3   OH277044   6.379   0.410   6.131  0.4224 -0.5815 -0.0765
18518TIP3    H177045   6.459   0.425   6.183  1.5056 -3.4726 -0.6763
18518TIP3    H277046   6.406   0.424   6.041 -0.8429  2.1430 -0.1124
18519TIP3   OH277047   0.924   2.851  12.632  0.2812  0.8944 -0.0226
18519TIP3    H177048   0.900   2.761  12.609  0.2533  0.8571  0.1508
18519TIP3    H277049   0.891   2.904  12.559  1.1220  0.6638 -0.5914
18520TIP3   OH277050   0.863   3.871  14.554 -0.0017  0.1097  0.0864
18520TIP3    H177051   0.903   3.790  14.583  0.9199  0.5910  0.1934
18520TIP3    H277052   0.833   3.853  14.465  1.9705  0.2162 -0.6509
18521TIP3   OH277053   2.735   4.586  14.732  0.1503 -0.0343  0.3304
18521TIP3    H177054   2.686   4.505  14.739  1.5464 -0.9721 -0.3856
18521TIP3    H277055   2.764   4.605  14.821  0.0677 -0.4682  0.4490
18522TIP3   OH277056   4.084   2.967   5.529 -0.2436 -0.0531  0.7299
18522TIP3    H177057   4.152   2.950   5.594  0.7961 -0.4970 -0.4203
18522TIP3    H277058   4.128   3.018   5.461 -1.8892  2.4724  1.4104
18523TIP3   OH277059   1.590   2.071   2.367  0.2331 -0.1225  0.3739
18523TIP3    H177060   1.681   2.074   2.335  1.5533  1.3927  3.7853
18523TIP3    H277061   1.563   1.980   2.355  2.1065 -0.5562 -0.9633
18524TIP3   OH277062   5.370   1.920   5.230 -0.3582  0.4857 -0.4085
18524TIP3    H177063   5.414   1.923   5.315  0.3202  1.1763 -0.7720
18524TIP3    H277064   5.440   1.899   5.168 -1.2402 -2.6750 -0.5409
18525TIP3   OH277065   1.255   0.230   3.087  0.0727 -0.2204 -0.8845
18525TIP3    H177066   1.286   0.305   3.036 -1.6232  0.5945 -0.7678
18525TIP3    H277067   1.328   0.168   3.084  0.4645  0.2460 -3.3692
18526TIP3   OH277068   2.589   5.344  14.270 -0.5660  0.8692  0.4480
18526TIP3    H177069   2.528   5.279  14.306 -1.2228  2.2782  2.0114
18526TIP3    H277070   2.676   5.307  14.287 -0.8912 -1.1202 -1.7171
18527TIP3   OH277071   1.265   0.640   4.978  0.6559  0.4047  0.3054
18527TIP3    H177072   1.251   0.714   5.037  0.4115  1.4793 -1.0515
18527TIP3    H277073   1.189   0.640   4.921  0.1516 -1.5455  0.9037
18528TIP3   OH277074   2.715   6.853  11.444 -0.2765  0.5838  0.4762
18528TIP3    H177075   2.639   6.897  11.406 -1.2470  0.5961  2.3396
18528TIP3    H277076   2.788   6.882  11.389 -1.7358 -0.6425 -2.3245
18529TIP3   OH277077   3.705   0.755   2.137  0.4758  0.5642 -0.0390
18529TIP3    H177078   3.747   0.684   2.187  1.3608  1.7569  0.9811
18529TIP3    H277079   3.615   0.755   2.167  0.3098 -0.4836 -0.4786
18530TIP3   OH277080   3.987   5.693  12.453  0.5518 -0.0970  0.0812
18530TIP3    H177081   3.980   5.753  12.378  0.8002  0.7091  0.6930
18530TIP3    H277082   4.081   5.686  12.469  0.4509  1.9018  1.9982
18531TIP3   OH277083   2.452   0.327  11.152  0.1604 -0.1514 -0.4839
18531TIP3    H177084   2.535   0.283  11.134  1.5731  1.5289  1.5216
18531TIP3    H277085   2.410   0.274  11.219  1.6543  1.1541  1.6019
18532TIP3   OH277086   6.226   6.805  14.860  0.0600 -0.4136 -0.3690
18532TIP3    H177087   6.142   6.792  14.903  0.7794 -0.3386  1.1330
18532TIP3    H277088   6.207   6.861  14.785 -1.5252 -2.0375 -1.2558
18533TIP3   OH277089   4.321   2.986  13.680 -0.6948  0.0468  1.1059
18533TIP3    H177090   4.359   2.943  13.603 -0.0615  0.6145  1.0921
18533TIP3    H277091   4.345   3.078  13.669 -2.1515  0.4319  1.0649
18534TIP3   OH277092   2.434   2.308   3.388  0.4301 -0.3672 -0.1555
18534TIP3    H177093   2.486   2.388   3.375  0.6279 -0.3731  0.5615
18534TIP3    H277094   2.405   2.284   3.300 -0.3513  0.9643 -0.2895
18535TIP3   OH277095   4.234   5.598   5.652 -0.1550  0.0313  0.0929
18535TIP3    H177096   4.193   5.683   5.665 -1.7406 -0.1255 -2.9887
18535TIP3    H277097   4.316   5.617   5.606 -0.8192 -0.0867 -1.1813
18536TIP3   OH277098   2.803   4.085   2.078  0.1065 -0.2238  0.6096
18536TIP3    H177099   2.877   4.099   2.137  0.5242  0.1587  0.0053
18536TIP3    H277100   2.826   4.134   1.999 -0.7983 -0.0900  0.4206
18537TIP3   OH277101   4.249   6.317   1.092  0.1031  0.2701 -0.0115
18537TIP3    H177102   4.301   6.397   1.081  0.2798 -0.1691 -3.2654
18537TIP3    H277103   4.304   6.248   1.055 -1.5227 -0.7346 -0.6216
18538TIP3   OH277104   1.752   4.400   0.871 -0.4895 -0.2070 -0.0610
18538TIP3    H177105   1.681   4.410   0.934 -0.4450 -1.0313  0.1295
18538TIP3    H277106   1.779   4.489   0.851  0.1824  0.0529  1.8749
18539TIP3   OH277107   5.090   1.975   5.086 -0.6003 -0.3776 -0.1970
18539TIP3    H177108   5.183   1.970   5.110 -0.5516  1.3410  0.1397
18539TIP3    H277109   5.043   1.967   5.169 -0.8082 -2.0193 -0.4555
18540TIP3   OH277110   2.792   4.278   4.833  0.9800  0.0141  0.3165
18540TIP3    H177111   2.714   4.298   4.782  0.7242  1.6302  1.2715
18540TIP3    H277112   2.777   4.190   4.867 -0.8919  0.6418  1.2553
18541TIP3   OH277113   2.208   2.570   0.682  0.0091  0.5692 -0.3164
18541TIP3    H177114   2.187   2.549   0.773 -0.3044 -0.8770 -0.7032
18541TIP3    H277115   2.138   2.529   0.632  0.2520  1.2529 -1.2309
18542TIP3   OH277116   4.392   5.562  13.206  0.1355 -0.1263  0.4072
18542TIP3    H177117   4.325   5.581  13.272  0.2624 -0.1707  0.5523
18542TIP3    H277118   4.451   5.637  13.210 -0.4542  0.3951 -0.4310
18543TIP3   OH277119   3.505   3.553  17.081  0.1528 -0.6334 -0.3505
18543TIP3    H177120   3.594   3.566  17.111 -0.7863 -0.6473  2.7848
18543TIP3    H277121   3.498   3.459  17.065 -0.1190 -1.2218  2.7071
18544TIP3   OH277122   6.119   1.267   5.498 -0.4988  0.0237 -0.8618
18544TIP3    H177123   6.069   1.313   5.429  0.0698 -0.0588 -1.3325
18544TIP3    H277124   6.067   1.189   5.516 -0.7517  0.1428 -1.0553
18545TIP3   OH277125   2.744   5.109  16.134 -0.6291 -0.2281  0.0275
18545TIP3    H177126   2.691   5.151  16.202 -0.9816  0.1141 -0.4479
18545TIP3    H277127   2.727   5.161  16.055 -0.5006 -0.8272 -0.4020
18546TIP3   OH277128   6.120   1.692  16.822  0.4485  0.1009  0.2847
18546TIP3    H177129   6.086   1.634  16.890  2.1103 -0.9651  0.2557
18546TIP3    H277130   6.045   1.708  16.764  0.2951 -3.3784 -0.6586
18547TIP3   OH277131   5.884   6.138   0.340 -0.0263 -0.0574  0.1085
18547TIP3    H177132   5.796   6.124   0.373  0.0744 -0.1034  0.3597
18547TIP3    H277133   5.934   6.168   0.416  0.5242 -1.4359  0.3195
18548TIP3   OH277134   0.407   3.936   1.027 -0.6550  0.5204 -0.3767
18548TIP3    H177135   0.406   3.963   1.119 -0.7101  2.3552 -0.8735
18548TIP3    H277136   0.335   3.986   0.987  1.0443  1.8683 -1.9369
18549TIP3   OH277137   6.759   2.225  14.981 -0.1121 -0.4077  0.3223
18549TIP3    H177138   6.775   2.279  15.059 -0.4149  0.3267 -0.1117
18549TIP3    H277139   6.831   2.161  14.981 -1.2144 -1.7432  2.3071
18550TIP3   OH277140   2.073   0.442   3.475 -0.1494 -0.2204 -0.3086
18550TIP3    H177141   1.999   0.382   3.473 -0.2043 -0.1666  0.0311
18550TIP3    H277142   2.145   0.390   3.511 -0.7024  0.4476  1.9353
18551TIP3   OH277143   3.452   0.601  14.302  0.2030  0.4224  0.0851
18551TIP3    H177144   3.380   0.614  14.364  0.3238 -2.6276  1.0017
18551TIP3    H277145   3.526   0.647  14.342  0.3578 -1.6838  2.5156
18552TIP3   OH277146   0.214   4.679  14.111 -0.4966 -0.2334 -0.2614
18552TIP3    H177147   0.209   4.585  14.131 -0.2415 -0.2467 -0.2577
18552TIP3    H277148   0.280   4.685  14.043 -0.8309 -0.1035 -0.5745
18553TIP3   OH277149   5.525   0.587  12.284 -0.3596  0.1846  1.0345
18553TIP3    H177150   5.483   0.669  12.309  1.0393  1.0424  0.6717
18553TIP3    H277151   5.544   0.598  12.191 -0.9880 -0.9400  0.7568
18554TIP3   OH277152   5.302   2.943   2.385 -0.2851 -0.1185 -0.6460
18554TIP3    H177153   5.209   2.925   2.377 -0.3379  0.3996 -1.2973
18554TIP3    H277154   5.319   2.945   2.480 -1.3287  1.6971 -0.4459
18555TIP3   OH277155   4.423   1.619  12.162  0.1884  0.7022  0.7997
18555TIP3    H177156   4.488   1.550  12.151 -1.3219 -0.3715 -4.4659
18555TIP3    H277157   4.344   1.574  12.191  0.0712  0.7887  0.6197
18556TIP3   OH277158   2.856   0.733   4.488  0.1054 -0.0460 -0.0867
18556TIP3    H177159   2.942   0.691   4.486 -0.1166 -0.5719  0.7711
18556TIP3    H277160   2.869   0.813   4.538  0.4476  0.7531 -1.4055
18557TIP3   OH277161   4.732   2.442   4.460 -0.5046 -0.1780 -0.3494
18557TIP3    H177162   4.798   2.376   4.438  0.6448  0.4974  0.9009
18557TIP3    H277163   4.782   2.513   4.501 -1.7063  1.4498 -1.5674
18558TIP3   OH277164   0.267   4.495   0.847 -0.4435 -0.1379  0.0390
18558TIP3    H177165   0.357   4.474   0.822 -0.6096 -2.0023  0.8695
18558TIP3    H277166   0.224   4.517   0.764  0.6864  0.5509 -0.3987
18559TIP3   OH277167   0.551   1.917   1.268 -0.9197  0.9768 -0.1166
18559TIP3    H177168   0.633   1.954   1.301 -1.1988  1.8062 -0.3096
18559TIP3    H277169   0.508   1.991   1.224 -0.3700 -0.1258 -2.7279
18560TIP3   OH277170   4.101   1.630  10.814  0.1670  0.6119  0.6740
18560TIP3    H177171   4.066   1.541  10.819  0.2627  0.5804  0.8012
18560TIP3    H277172   4.069   1.664  10.731 -0.0425  0.5300  0.7199
18561TIP3   OH277173   6.621   3.039  11.561  0.1400 -0.1358  0.2658
18561TIP3    H177174   6.587   3.096  11.492  0.1530  0.6135  0.8670
18561TIP3    H277175   6.652   3.099  11.629  1.8679 -0.7962  0.1299
18562TIP3   OH277176   0.908   6.613   1.838  0.5329  0.2915 -0.5738
18562TIP3    H177177   0.891   6.706   1.852  0.3547  0.1422  0.2288
18562TIP3    H277178   0.861   6.593   1.756 -4.2916 -0.2865  1.9269
18563TIP3   OH277179   6.475   5.418  14.012  0.4351 -0.6261 -0.2867
18563TIP3    H177180   6.410   5.424  14.082  0.4256 -1.1140 -0.2513
18563TIP3    H277181   6.472   5.503  13.970 -0.9043 -0.9438 -0.8950
18564TIP3   OH277182   2.421   2.018  13.842  0.2210 -0.5009 -0.5671
18564TIP3    H177183   2.482   2.080  13.801 -0.8463  0.1377 -1.2208
18564TIP3    H277184   2.413   1.946  13.778  0.3809 -0.6460 -0.4253
18565TIP3   OH277185   4.979   3.104  14.962  0.2970  0.2983  0.5200
18565TIP3    H177186   5.072   3.118  14.944 -0.1257  1.9121 -0.6421
18565TIP3    H277187   4.955   3.029  14.908  0.2802  1.7509 -1.5787
18566TIP3   OH277188   1.136   4.412  14.187  0.7756  0.5100 -0.3510
18566TIP3    H177189   1.108   4.395  14.277  1.2476  0.2147 -0.2564
18566TIP3    H277190   1.090   4.346  14.135  1.0869  0.1969 -0.2310
18567TIP3   OH277191   3.754   5.520  11.083 -0.2111 -0.0274 -0.4893
18567TIP3    H177192   3.746   5.548  10.992 -1.6669  1.4364  0.0334
18567TIP3    H277193   3.844   5.541  11.107 -0.7906  2.9996 -0.5980
18568TIP3   OH277194   2.091   0.841   2.543 -0.5351 -0.3020  0.2675
18568TIP3    H177195   2.171   0.839   2.491  0.5619  3.1977  1.5192
18568TIP3    H277196   2.063   0.750   2.548  2.7517 -1.5366 -1.1161
18569TIP3   OH277197   5.674   5.328  13.794 -0.3479 -0.1048 -0.8394
18569TIP3    H177198   5.581   5.310  13.778 -1.2566  0.3356  3.0516
18569TIP3    H277199   5.675   5.413  13.836  1.8314 -0.2414 -0.5254
18570TIP3   OH277200   5.652   3.957  13.976  0.4043 -0.3654  0.0513
18570TIP3    H177201   5.581   4.019  13.992  0.0493 -0.8513  0.4067
18570TIP3    H277202   5.676   3.970  13.884 -0.3895 -0.4395 -0.1714
18571TIP3   OH277203   4.708   1.416   3.772 -0.0772 -0.1783 -0.1752
18571TIP3    H177204   4.689   1.498   3.817  0.4140  0.6024 -1.3453
18571TIP3    H277205   4.655   1.351   3.817  0.1786  0.6127  1.3394
18572TIP3   OH277206   4.072   2.142   3.894  0.4499  0.1127 -0.2487
18572TIP3    H177207   4.010   2.208   3.866  1.5908  1.6010  0.5969
18572TIP3    H277208   4.109   2.176   3.975 -0.5409 -2.6183  1.5063
18573TIP3   OH277209   5.136   4.598   5.207  0.0367 -0.7239  0.4293
18573TIP3    H177210   5.181   4.604   5.291  0.8418  3.3009 -0.0572
18573TIP3    H277211   5.048   4.632   5.225  0.8356  2.1796 -0.5420
18574TIP3   OH277212   6.348   2.065  12.675 -0.1512  0.0267 -0.2995
18574TIP3    H177213   6.289   1.993  12.697 -0.2557 -0.2392 -1.3952
18574TIP3    H277214   6.304   2.112  12.603  1.8578 -1.4350 -2.6411
18575TIP3   OH277215   4.689   6.234   0.798 -0.1046 -0.6262  0.4471
18575TIP3    H177216   4.702   6.304   0.862  0.0346  1.5962 -1.8282
18575TIP3    H277217   4.596   6.239   0.775 -0.0868 -1.1763  0.2352
18576TIP3   OH277218   5.972   1.228  11.795 -0.3634  0.0320 -0.0217
18576TIP3    H177219   5.969   1.168  11.869 -1.1981  0.5520  0.3780
18576TIP3    H277220   5.962   1.315  11.834 -2.4513  0.2228 -0.8670
18577TIP3   OH277221   6.667   3.264   2.839 -0.4273  0.5138 -0.3223
18577TIP3    H177222   6.643   3.341   2.890 -1.8618 -0.3324  0.3377
18577TIP3    H277223   6.600   3.199   2.860  0.2850 -0.6522 -1.4849
18578TIP3   OH277224   5.338   5.513   6.403  0.2759 -0.2261  0.7341
18578TIP3    H177225   5.243   5.511   6.387  0.1083 -1.6395  1.6940
18578TIP3    H277226   5.358   5.605   6.417 -0.4624  0.4781 -2.1452
18579TIP3   OH277227   4.739   5.120   0.005 -0.0450 -0.3012 -0.2111
18579TIP3    H177228   4.675   5.141   0.073  0.9992 -0.5641  0.8845
18579TIP3    H277229   4.805   5.188   0.013 -1.2037  1.2590 -2.7936
18580TIP3   OH277230   3.921   4.586  11.506  0.4790 -0.0049 -0.2616
18580TIP3    H177231   3.958   4.673  11.488 -1.4131  0.6602 -1.1899
18580TIP3    H277232   3.834   4.604  11.542  0.1284 -1.5176 -0.2941
18581TIP3   OH277233   0.554   2.305   2.304  0.1042 -0.1708 -0.6358
18581TIP3    H177234   0.643   2.271   2.306  0.3048  0.3254 -0.8087
18581TIP3    H277235   0.500   2.235   2.340  0.9241  0.6337  2.4101
18582TIP3   OH277236   0.713   2.448  15.626 -0.0881 -0.3025 -0.0475
18582TIP3    H177237   0.799   2.422  15.593 -0.1024 -1.7647  0.9549
18582TIP3    H277238   0.731   2.482  15.714 -0.5309 -0.5215  0.1285
18583TIP3   OH277239   1.968   3.934  17.088 -0.0426 -0.0271 -0.0817
18583TIP3    H177240   1.906   3.882  17.139 -1.1179 -0.1857 -1.4976
18583TIP3    H277241   2.026   3.869  17.049  1.0718  0.1198  1.2335
18584TIP3   OH277242   2.374   5.668   5.830 -0.1845  0.1032  0.3172
18584TIP3    H177243   2.427   5.608   5.777 -1.7353 -0.2830 -0.8538
18584TIP3    H277244   2.426   5.681   5.910  2.3502  0.8565 -1.3027
18585TIP3   OH277245   4.240   3.574   1.039 -0.2576 -0.5795 -0.2882
18585TIP3    H177246   4.268   3.539   1.124 -0.1027  1.7708  0.7094
18585TIP3    H277247   4.292   3.653   1.028  0.4131 -1.3071 -3.0954
18586TIP3   OH277248   5.127   4.471  15.994  0.5125 -0.1664  0.0966
18586TIP3    H177249   5.052   4.466  15.934 -0.0063 -2.3066  0.8415
18586TIP3    H277250   5.165   4.384  15.992  2.9479  0.8237 -0.1406
18587TIP3   OH277251   2.175   6.691   5.433 -0.2622 -0.5242  0.4877
18587TIP3    H177252   2.238   6.656   5.497  2.1504  0.4667 -1.1688
18587TIP3    H277253   2.117   6.746   5.484  1.8011  0.5120  1.8562
18588TIP3   OH277254   5.999   6.545  13.139  0.6500 -0.0829 -0.1327
18588TIP3    H177255   6.037   6.633  13.135  0.1125  0.1661  0.0415
18588TIP3    H277256   5.985   6.529  13.232 -0.3617  0.1488 -0.2290
18589TIP3   OH277257   1.925   0.783  15.370 -0.6668  0.0602 -0.4231
18589TIP3    H177258   1.867   0.798  15.296 -1.2507 -0.0915  0.0012
18589TIP3    H277259   2.013   0.789  15.333 -0.8923  2.0213 -0.7576
18590TIP3   OH277260   6.302   3.871  14.302 -0.0682 -0.1437  0.1581
18590TIP3    H177261   6.258   3.801  14.351 -0.4561 -0.4179 -0.5605
18590TIP3    H277262   6.268   3.952  14.341 -1.2283 -0.3520 -0.3815
18591TIP3   OH277263   6.762   3.575   5.833  0.2310  0.0681  1.1012
18591TIP3    H177264   6.822   3.504   5.810 -0.6623 -0.1575 -0.7618
18591TIP3    H277265   6.806   3.622   5.904  1.8394 -1.0411  0.9012
18592TIP3   OH277266   4.050   4.830  16.930  0.2262 -0.1013 -0.2337
18592TIP3    H177267   3.980   4.887  16.899 -0.4894 -0.5939  0.4565
18592TIP3    H277268   4.066   4.859  17.020 -0.9628 -1.7310  0.5435
18593TIP3   OH277269   2.865   6.618   5.518  0.1938  0.0819  0.0658
18593TIP3    H177270   2.851   6.631   5.611  1.4986 -0.7617  0.4067
18593TIP3    H277271   2.839   6.528   5.501  1.9784 -0.4948  0.1026
18594TIP3   OH277272   0.410   4.849  12.341 -0.1072  0.5103  0.0694
18594TIP3    H177273   0.424   4.900  12.420 -0.0678  0.8877 -0.1770
18594TIP3    H277274   0.358   4.906  12.285  0.9221  0.7539 -0.6754
18595TIP3   OH277275   3.799   6.548   4.556  0.0760 -0.0092 -0.5376
18595TIP3    H177276   3.755   6.503   4.628  2.0975 -0.6871  0.3527
18595TIP3    H277277   3.769   6.639   4.562  0.6911  0.1004  1.5899
18596TIP3   OH277278   2.620   0.920  16.609  0.5394 -0.3350  0.1189
18596TIP3    H177279   2.553   0.984  16.583  0.3863 -1.0373 -1.2912
18596TIP3    H277280   2.601   0.843  16.556  1.9677 -0.8367  0.3170
18597TIP3   OH277281   0.644   0.929  11.291  0.5100 -0.4921 -0.1683
18597TIP3    H177282   0.669   0.953  11.202  0.2721  1.2354  0.1928
18597TIP3    H277283   0.549   0.944  11.294  0.7193  0.8637  0.7375
18598TIP3   OH277284   2.271   1.871   0.238  1.1898  0.5683  0.3713
18598TIP3    H177285   2.208   1.812   0.278 -0.7544  2.8801  0.9505
18598TIP3    H277286   2.353   1.821   0.237 -0.3242 -2.1202  0.7015
18599TIP3   OH277287   2.996   6.135   3.852 -0.7226 -0.6222  0.6219
18599TIP3    H177288   3.079   6.152   3.896 -0.7821  1.5174  0.0147
18599TIP3    H277289   3.018   6.075   3.781 -0.0410 -1.4723  1.5257
18600TIP3   OH277290   5.608   4.323   0.905  0.2729  0.2150 -0.5800
18600TIP3    H177291   5.632   4.400   0.956  1.2179  0.1697 -0.9310
18600TIP3    H277292   5.571   4.262   0.968  1.0454  0.3190 -0.0104
18601TIP3   OH277293   1.859   4.128   3.511 -0.0783  0.0079  1.2628
18601TIP3    H177294   1.877   4.046   3.465  0.4743 -0.0886  1.6405
18601TIP3    H277295   1.794   4.105   3.578 -0.4823  0.0389  0.8850
18602TIP3   OH277296   1.153   0.073  14.329 -0.5408  0.4628 -0.6003
18602TIP3    H177297   1.172   0.006  14.395 -0.3581 -0.3005 -1.4147
18602TIP3    H277298   1.236   0.087  14.285 -0.3363  1.9643  0.2057
18603TIP3   OH277299   4.521   4.116   1.762  0.3786  0.1467 -0.2283
18603TIP3    H177300   4.544   4.023   1.765  2.0702  0.4676 -1.2868
18603TIP3    H277301   4.517   4.143   1.853 -1.0031 -1.1440  0.1182
18604TIP3   OH277302   3.587   3.948   5.700  0.0488  0.5329 -0.1750
18604TIP3    H177303   3.594   3.964   5.606 -0.6372 -1.5231 -0.6163
18604TIP3    H277304   3.495   3.966   5.720  0.5586  2.6733  0.5054
18605TIP3   OH277305   0.104   3.663  12.194 -0.1345  0.3429 -0.2508
18605TIP3    H177306   0.122   3.734  12.132  0.8283  1.8649  1.6575
18605TIP3    H277307   0.067   3.708  12.271  0.3060 -1.2496  0.9413
18606TIP3   OH277308   5.955   0.579   2.486  0.3734  0.1950  0.7598
18606TIP3    H177309   5.968   0.617   2.399  0.8338 -1.9035 -0.1572
18606TIP3    H277310   5.913   0.649   2.537 -2.2622  0.6832 -1.8289
18607TIP3   OH277311   3.157   3.128  16.009 -0.4639  0.1945 -0.2518
18607TIP3    H177312   3.219   3.192  15.974 -1.4013  0.8718 -0.7228
18607TIP3    H277313   3.142   3.155  16.099 -0.4239  0.3072 -0.2786
18608TIP3   OH277314   2.707   2.124   5.115 -0.0613  0.1353 -0.6931
18608TIP3    H177315   2.698   2.149   5.206 -0.5685 -3.0629  0.2720
18608TIP3    H277316   2.617   2.104   5.087  0.3055 -0.9514 -1.1702
18609TIP3   OH277317   0.770   0.884   2.562 -0.3990  0.7843 -0.0434
18609TIP3    H177318   0.823   0.815   2.603  0.6933  2.0256  0.7219
18609TIP3    H277319   0.753   0.852   2.473  0.2793 -0.3556  0.2188
18610TIP3   OH277320   0.028   1.912   0.153  0.0004 -0.8762  0.4607
18610TIP3    H177321   0.057   1.821   0.157 -2.0915 -1.5688  0.8932
18610TIP3    H277322   0.012   1.928   0.060  1.8464 -0.3942  0.1720
18611TIP3   OH277323   2.770   6.212  10.735 -0.1446  0.1568 -0.1753
18611TIP3    H177324   2.838   6.163  10.689 -0.7932 -0.6742 -0.2719
18611TIP3    H277325   2.695   6.152  10.738 -0.2422  0.3064  1.6531
18612TIP3   OH277326   3.097   4.460  15.159 -0.0705  0.1118  0.6645
18612TIP3    H177327   3.190   4.459  15.140 -0.2445  0.9959 -0.3469
18612TIP3    H277328   3.084   4.540  15.211 -0.5149  0.9527 -0.7009
18613TIP3   OH277329   6.649   2.267   1.341 -0.2191 -0.3734 -0.2501
18613TIP3    H177330   6.738   2.287   1.370 -0.1059 -0.5273 -0.4864
18613TIP3    H277331   6.661   2.201   1.273 -0.4399  0.3152 -0.9744
18614TIP3   OH277332   1.050   5.735  15.383 -0.5518  0.4977 -0.0463
18614TIP3    H177333   1.102   5.752  15.305  0.6941  1.5681  0.9775
18614TIP3    H277334   0.962   5.765  15.359  0.2159  2.6210 -0.4467
18615TIP3   OH277335   3.320   5.632  14.364 -0.6393 -0.0911  0.1451
18615TIP3    H177336   3.248   5.666  14.417 -2.2570 -0.1487 -1.8761
18615TIP3    H277337   3.305   5.669  14.277  1.3184 -0.7830 -0.5429
18616TIP3   OH277338   4.921   4.697  14.146 -0.1639  0.2569 -0.3256
18616TIP3    H177339   4.941   4.737  14.061 -2.6440  1.0833 -0.5900
18616TIP3    H277340   4.969   4.614  14.145  0.6945  0.7233 -2.0813
18617TIP3   OH277341   0.495   0.553   2.313 -0.5970 -0.0274  0.2940
18617TIP3    H177342   0.478   0.533   2.220 -0.5245 -0.6373  0.4093
18617TIP3    H277343   0.494   0.467   2.356  1.9427 -0.0239  0.4598
18618TIP3   OH277344   2.766   3.429   2.706  0.4508 -0.5011 -0.5807
18618TIP3    H177345   2.753   3.344   2.666 -0.9373 -1.0870  0.9915
18618TIP3    H277346   2.851   3.422   2.749  0.1233 -1.2934 -0.0340
18619TIP3   OH277347   5.670   6.227  16.399 -0.2137 -0.7835 -0.3031
18619TIP3    H177348   5.590   6.278  16.410 -0.5519 -1.4615  0.5580
18619TIP3    H277349   5.671   6.168  16.475  0.5456 -1.5275 -0.8710
18620TIP3   OH277350   3.135   2.260   3.659  0.1156 -0.0192 -0.4065
18620TIP3    H177351   3.059   2.308   3.694 -1.1354 -1.9148 -0.4158
18620TIP3    H277352   3.185   2.236   3.737  0.7693  1.2728 -0.4017
18621TIP3   OH277353   0.657   5.217  14.783  0.5921  0.7937  0.3540
18621TIP3    H177354   0.593   5.178  14.844  1.9612  0.9519  1.9537
18621TIP3    H277355   0.707   5.142  14.751 -0.2708  0.6840 -0.8163
18622TIP3   OH277356   4.324   6.473  11.755 -0.5414  0.2052  0.0187
18622TIP3    H177357   4.256   6.476  11.688 -1.1804  0.0387  0.6496
18622TIP3    H277358   4.381   6.548  11.735  0.3251 -0.8665 -1.7657
18623TIP3   OH277359   3.859   6.014  11.170  0.2376  0.1797  0.0276
18623TIP3    H177360   3.818   6.078  11.228  1.1875 -0.5478  1.5419
18623TIP3    H277361   3.912   5.960  11.227  2.1191  0.1249 -1.6741
18624TIP3   OH277362   2.795   2.155  12.523 -0.4839  0.1541 -0.1627
18624TIP3    H177363   2.800   2.157  12.427 -2.5199 -1.5366 -0.3623
18624TIP3    H277364   2.733   2.085  12.543 -0.6906  0.9503  2.3856
18625TIP3   OH277365   1.996   1.842  14.478  0.8182  0.3497 -0.8361
18625TIP3    H177366   1.936   1.903  14.436 -1.3751 -0.6486  0.6788
18625TIP3    H277367   1.963   1.755  14.454  1.1646 -0.2253  0.6488
18626TIP3   OH277368   3.735   6.381  14.750  0.6916 -0.4129  0.1003
18626TIP3    H177369   3.692   6.379  14.836  2.5545 -3.9453  1.1227
18626TIP3    H277370   3.822   6.416  14.768  1.9149 -3.2854  0.2422
18627TIP3   OH277371   1.367   6.205   4.150  0.7793  0.2971  0.7784
18627TIP3    H177372   1.410   6.158   4.221  0.5517 -0.4044  0.4631
18627TIP3    H277373   1.315   6.272   4.193  0.5948 -0.1649  1.2787
18628TIP3   OH277374   5.630   5.133   3.579  0.3248 -0.3164  0.4221
18628TIP3    H177375   5.620   5.223   3.547 -0.9923 -1.2277 -1.9729
18628TIP3    H277376   5.720   5.109   3.556  0.1198 -0.1719 -0.5715
18629TIP3   OH277377   3.755   3.807   3.670  0.0237 -0.0006  0.2046
18629TIP3    H177378   3.815   3.732   3.671 -0.3385 -0.2982  0.9468
18629TIP3    H277379   3.670   3.769   3.651 -0.5743 -0.1474  2.8045
18630TIP3   OH277380   0.247   3.415   2.498  1.0433 -0.0607 -0.7549
18630TIP3    H177381   0.216   3.472   2.428  0.3702  1.2098  0.5225
18630TIP3    H277382   0.168   3.372   2.531  0.9325  1.2102  0.7872
18631TIP3   OH277383   5.191   1.251  16.152  0.6384 -0.1669  0.6966
18631TIP3    H177384   5.277   1.224  16.119  0.6806 -0.3702  0.9707
18631TIP3    H277385   5.203   1.344  16.175  0.4279  0.1617 -0.4553
18632TIP3   OH277386   5.353   2.528  14.955  0.1928  0.5057  0.0016
18632TIP3    H177387   5.417   2.467  14.918  1.0076  2.0820 -1.3058
18632TIP3    H277388   5.380   2.539  15.046  1.3169  0.5211 -0.3220
18633TIP3   OH277389   6.173   6.296   5.267 -0.3241  0.7832 -0.4032
18633TIP3    H177390   6.133   6.313   5.352 -1.5251 -0.2712 -0.7287
18633TIP3    H277391   6.124   6.352   5.206  0.4435  1.4363 -0.4483
18634TIP3   OH277392   1.179   1.064   5.203 -0.1356  0.1786 -0.4257
18634TIP3    H177393   1.246   1.113   5.156 -0.2692  0.5921 -0.1941
18634TIP3    H277394   1.170   0.982   5.156  1.8116 -0.6446  0.5459
18635TIP3   OH277395   0.341   6.730  15.536 -0.6739 -0.2984 -0.3095
18635TIP3    H177396   0.299   6.666  15.478 -0.2424 -0.1385 -0.8142
18635TIP3    H277397   0.429   6.693  15.551 -1.3143 -1.1742  1.6027
18636TIP3   OH277398   2.414   0.670  12.997 -0.3593  0.0211  0.1692
18636TIP3    H177399   2.326   0.673  13.034 -0.3045 -1.2722  0.4832
18636TIP3    H277400   2.418   0.585  12.952  0.7206  0.0664  0.1457
18637TIP3   OH277401   0.935   3.334   3.208  0.4776 -0.4912  0.1778
18637TIP3    H177402   0.924   3.240   3.200 -0.6818 -0.2563 -1.8885
18637TIP3    H277403   0.846   3.369   3.207  0.7987  0.5808  2.7096
18638TIP3   OH277404   1.933   5.179  13.500 -0.0730  0.0081  0.3758
18638TIP3    H177405   1.977   5.252  13.543 -2.6895  1.4614  0.7574
18638TIP3    H277406   1.927   5.111  13.568 -0.2368  0.5918  0.9564
18639TIP3   OH277407   5.751   0.605   4.324  0.7810  0.0863  0.4518
18639TIP3    H177408   5.843   0.615   4.299  0.2014  0.1638 -1.9033
18639TIP3    H277409   5.711   0.690   4.305 -0.1307 -0.5012 -0.3779
18640TIP3   OH277410   3.234   4.863   0.536  0.1717 -0.3484 -0.5282
18640TIP3    H177411   3.242   4.817   0.620 -1.2401 -0.4637 -0.4292
18640TIP3    H277412   3.227   4.792   0.472  0.8627 -0.2607 -0.6996
18641TIP3   OH277413   0.511   4.968  15.922  0.0206  0.4272  0.4013
18641TIP3    H177414   0.585   4.995  15.977  0.6634 -2.0021  0.8317
18641TIP3    H277415   0.504   4.874  15.935 -1.0089  0.0372 -2.2750
18642TIP3   OH277416   4.987   0.684   5.701  0.5095  0.2926 -0.2428
18642TIP3    H177417   5.024   0.608   5.746  0.6793  0.2105 -0.5199
18642TIP3    H277418   5.039   0.758   5.732  1.0557  0.1483 -0.7977
18643TIP3   OH277419   3.978   1.970   5.034 -0.2242  0.1548 -0.3645
18643TIP3    H177420   4.067   1.971   5.071  1.1007 -1.2729 -3.2215
18643TIP3    H277421   3.948   2.060   5.043  3.6932  2.1684 -3.9018
18644TIP3   OH277422   1.917   4.987   1.363  0.3991 -0.3715  0.2231
18644TIP3    H177423   1.889   5.065   1.411  0.8805  0.7920 -1.2934
18644TIP3    H277424   2.009   4.975   1.387  0.5198 -0.0433 -0.0637
18645TIP3   OH277425   2.916   0.820  11.116 -0.1418  0.0056 -0.0227
18645TIP3    H177426   3.006   0.851  11.125  0.2789 -0.7668 -1.3108
18645TIP3    H277427   2.896   0.830  11.022 -0.9565 -1.0002  0.0246
18646TIP3   OH277428   1.008   5.975   2.774  0.2021  0.2920  0.3504
18646TIP3    H177429   1.072   5.906   2.756  2.2346  1.9909  0.5250
18646TIP3    H277430   1.035   6.010   2.860 -1.1124  0.9331  0.5217
18647TIP3   OH277431   3.673   5.851  12.880 -0.2746  0.0774  0.3586
18647TIP3    H177432   3.699   5.921  12.940 -0.0563  1.2217 -1.0165
18647TIP3    H277433   3.695   5.885  12.793 -2.3796 -0.7209 -0.5312
18648TIP3   OH277434   1.032   2.426   1.142  0.0732  0.5391 -0.2057
18648TIP3    H177435   0.979   2.408   1.064  0.0651 -0.9122  0.1137
18648TIP3    H277436   0.983   2.494   1.188 -0.3344  0.8409 -1.0558
18649TIP3   OH277437   3.228   6.273   2.806  0.8987  0.0074 -0.7189
18649TIP3    H177438   3.190   6.188   2.784  2.5995 -0.7243 -0.9415
18649TIP3    H277439   3.186   6.335   2.746 -1.2477 -0.4151  0.2357
18650TIP3   OH277440   1.415   0.852  16.374 -0.1566  0.3746  0.0593
18650TIP3    H177441   1.370   0.875  16.293  0.2872  0.8866 -0.0524
18650TIP3    H277442   1.370   0.903  16.442  0.3302  1.0041 -0.0757
18651TIP3   OH277443   2.931   3.317  16.732  0.0759 -0.1641  0.3523
18651TIP3    H177444   2.948   3.334  16.639 -1.0260 -0.9149 -0.0034
18651TIP3    H277445   3.012   3.344  16.776  0.3755  0.8463 -0.7412
18652TIP3   OH277446   1.352   2.489   5.953 -0.6490 -0.4502  0.6794
18652TIP3    H177447   1.410   2.562   5.930  0.4929 -1.2272  0.9669
18652TIP3    H277448   1.376   2.468   6.043 -1.6497 -0.5653  0.9249
18653TIP3   OH277449   5.457   4.558  13.691 -0.5718  0.5095  0.0535
18653TIP3    H177450   5.397   4.487  13.665  0.9614 -0.4992 -0.8822
18653TIP3    H277451   5.407   4.638  13.675 -1.1550 -0.2300 -2.2397
18654TIP3   OH277452   3.119   4.677   1.801  0.3446  0.7696  0.5607
18654TIP3    H177453   3.200   4.711   1.838  0.1312 -0.2191  1.9909
18654TIP3    H277454   3.052   4.740   1.830  0.5707  1.6683 -0.7431
18655TIP3   OH277455   4.874   3.552   1.898  0.4288 -0.3026 -0.6380
18655TIP3    H177456   4.945   3.504   1.854  1.1804 -2.0936  2.2488
18655TIP3    H277457   4.809   3.484   1.919 -0.2753  0.6098  0.2305
18656TIP3   OH277458   2.523   1.677  12.041  0.3842 -0.2716 -0.0220
18656TIP3    H177459   2.429   1.678  12.023  0.8695 -0.0116 -3.2712
18656TIP3    H277460   2.551   1.587  12.022  0.7485 -0.4655  1.3576
18657TIP3   OH277461   3.933   0.568   2.687  0.0846  0.2091 -0.0381
18657TIP3    H177462   3.947   0.657   2.653 -0.2814  1.0004  1.7349
18657TIP3    H277463   3.943   0.578   2.782  0.5913 -1.7738  0.1498
18658TIP3   OH277464   5.316   3.129   3.930  0.3667 -0.2221 -0.3531
18658TIP3    H177465   5.290   3.138   4.022 -3.4243  2.2974 -1.4625
18658TIP3    H277466   5.409   3.152   3.930  0.4543 -0.0991  2.7855
18659TIP3   OH277467   2.029   0.809   0.754  0.5584 -0.3398 -0.0748
18659TIP3    H177468   1.988   0.786   0.671  0.6724 -2.3705  0.3890
18659TIP3    H277469   2.101   0.746   0.764  1.1330  0.4676  1.1326
18660TIP3   OH277470   1.666   3.050  12.591 -0.0838 -0.7946  0.1340
18660TIP3    H177471   1.704   3.037  12.504 -0.3487  2.2007 -0.5276
18660TIP3    H277472   1.573   3.029  12.580 -0.7926  2.4894 -1.2478
18661TIP3   OH277473   2.995   2.145   3.875  0.7717 -0.0064  0.3746
18661TIP3    H177474   2.933   2.173   3.808  1.3353  0.9925  0.2547
18661TIP3    H277475   2.955   2.174   3.957  0.8821  0.2699  0.3311
18662TIP3   OH277476   5.604   5.251   0.313  0.5151 -0.1753 -0.5364
18662TIP3    H177477   5.575   5.166   0.346 -2.2277 -0.1903 -2.6255
18662TIP3    H277478   5.559   5.314   0.368  2.0435 -0.0152  0.5945
18663TIP3   OH277479   1.828   4.912  13.592 -0.0289  0.2145  0.0766
18663TIP3    H177480   1.803   4.977  13.658  0.0248 -0.7166  1.0349
18663TIP3    H277481   1.755   4.912  13.530 -1.0408 -0.3389  1.2312
18664TIP3   OH277482   2.988   2.150  11.364  0.1231 -0.3634 -1.1556
18664TIP3    H177483   2.918   2.150  11.430  0.1987  1.7760 -1.0073
18664TIP3    H277484   3.055   2.092  11.400  0.1440  0.7182  0.6812
18665TIP3   OH277485   5.433   2.732  14.509  0.0179  0.6184 -0.0485
18665TIP3    H177486   5.496   2.784  14.458  2.1534 -0.1302  1.6503
18665TIP3    H277487   5.471   2.644  14.511 -2.3453 -0.5109 -0.9016
18666TIP3   OH277488   3.341   6.374   0.696 -0.0383  0.0463 -0.3062
18666TIP3    H177489   3.402   6.382   0.770 -0.8808  3.9816  0.1889
18666TIP3    H277490   3.396   6.387   0.619  0.1323  1.2616 -0.0011
18667TIP3   OH277491   0.794   3.841   3.952  0.0319  0.0132 -0.0557
18667TIP3    H177492   0.880   3.869   3.984 -0.7071  1.5461  0.7395
18667TIP3    H277493   0.750   3.804   4.029  0.6005 -2.5448 -0.8659
18668TIP3   OH277494   3.343   1.414   0.826 -0.2143  0.5540  0.0408
18668TIP3    H177495   3.305   1.420   0.913  1.1313  2.5501  0.5657
18668TIP3    H277496   3.418   1.355   0.837 -0.2878  0.4816  0.1475
18669TIP3   OH277497   0.485   6.095  15.931  0.1691 -0.3427 -0.0885
18669TIP3    H177498   0.460   6.051  15.850 -0.9207  0.5538 -0.2545
18669TIP3    H277499   0.407   6.089  15.987  0.0760  1.1519 -0.0302
18670TIP3   OH277500   1.819   1.949  15.126  0.4062  0.0706 -0.5864
18670TIP3    H177501   1.880   1.882  15.155  0.5776  0.1740 -0.7088
18670TIP3    H277502   1.869   2.002  15.064 -0.2657 -0.7931 -1.9232
18671TIP3   OH277503   6.209   4.851  14.454  0.5309 -0.3637  0.3480
18671TIP3    H177504   6.146   4.899  14.507  1.3517  2.1491 -0.8118
18671TIP3    H277505   6.294   4.878  14.487  1.0298 -0.2849 -0.9259
18672TIP3   OH277506   2.430   5.157  13.839  0.2326  0.2512  0.3037
18672TIP3    H177507   2.507   5.170  13.894  0.6783 -0.3090 -0.1757
18672TIP3    H277508   2.368   5.224  13.868  0.4645 -0.0180  1.4679
18673TIP3   OH277509   6.710   5.847   1.495 -0.1514 -0.4992  0.4695
18673TIP3    H177510   6.708   5.843   1.590 -1.1188  1.5259  0.5849
18673TIP3    H277511   6.728   5.939   1.474  1.1607 -1.0942 -1.3291
18674TIP3   OH277512   6.395   2.372  14.015 -0.0733 -0.1253 -0.1513
18674TIP3    H177513   6.384   2.339  14.104 -0.9563 -0.4342 -0.3682
18674TIP3    H277514   6.369   2.464  14.019  3.0666  0.8587  0.6088
18675TIP3   OH277515   4.876   0.412  11.494 -0.2515 -0.4439 -0.1641
18675TIP3    H177516   4.868   0.327  11.452 -0.1882 -0.0941 -0.9006
18675TIP3    H277517   4.786   0.438  11.513 -0.3584 -0.1175 -1.0877
18676TIP3   OH277518   1.768   4.122  10.712  0.6095  0.1769 -0.2298
18676TIP3    H177519   1.843   4.067  10.734  0.2395  0.4410  1.8383
18676TIP3    H277520   1.714   4.123  10.791 -0.9492  1.0311 -1.2417
18677TIP3   OH277521   4.183   1.366  12.744 -0.3295 -0.1223 -0.4022
18677TIP3    H177522   4.091   1.370  12.770 -0.9907 -4.0999 -1.3975
18677TIP3    H277523   4.231   1.393  12.822 -2.3296  0.0852  0.8379
18678TIP3   OH277524   4.451   5.409  16.763  0.7297 -0.3336 -0.0162
18678TIP3    H177525   4.491   5.415  16.675  2.6338 -1.4719  0.6962
18678TIP3    H277526   4.501   5.340  16.806 -0.4244 -0.0468  1.8560
18679TIP3   OH277527   0.794   1.501  12.815  0.3036 -0.5460  0.1817
18679TIP3    H177528   0.790   1.532  12.725 -0.6384 -0.2428  0.3146
18679TIP3    H277529   0.777   1.407  12.809 -0.1198 -0.4644  0.0699
18680TIP3   OH277530   4.428   2.765   1.318 -0.0014  0.1120 -0.1326
18680TIP3    H177531   4.491   2.707   1.360 -0.5132 -1.0787 -0.9243
18680TIP3    H277532   4.382   2.807   1.390  0.7799 -0.0324  0.4611
18681TIP3   OH277533   2.492   4.231   5.446 -0.3516 -0.0415  0.1471
18681TIP3    H177534   2.454   4.310   5.486 -0.1065 -1.0369  2.5465
18681TIP3    H277535   2.583   4.254   5.429 -0.9158  1.0126 -1.7239
18682TIP3   OH277536   1.995   0.196  11.501 -0.0102 -0.4584 -0.1790
18682TIP3    H177537   2.079   0.172  11.541  0.5415  1.6566  0.0541
18682TIP3    H277538   1.934   0.128  11.530  1.5703 -1.9692 -0.2353
18683TIP3   OH277539   1.257   6.194  16.248 -0.2606 -0.7384  0.2279
18683TIP3    H177540   1.242   6.118  16.191  2.1621 -0.6071 -0.7463
18683TIP3    H277541   1.313   6.252  16.195  0.6837  0.1831  2.1368
18684TIP3   OH277542   1.092   2.818  14.150  0.8368  0.4625  1.4312
18684TIP3    H177543   1.094   2.908  14.119  0.0361  0.8256  2.4059
18684TIP3    H277544   1.103   2.765  14.071 -1.5271  1.3556  0.4448
18685TIP3   OH277545   4.248   3.960  11.687 -0.0572  0.0430  0.1216
18685TIP3    H177546   4.189   3.906  11.740 -2.2978  2.7029  0.5664
18685TIP3    H277547   4.311   3.995  11.749  0.4832 -0.8328  0.0857
18686TIP3   OH277548   0.376   0.016  12.158  0.1948 -0.9985  0.3716
18686TIP3    H177549   0.455   0.034  12.107  0.2577 -0.9022  0.5017
18686TIP3    H277550   0.321  -0.036  12.100 -0.4617  0.5109 -0.4239
18687TIP3   OH277551   4.878   0.766  13.176  0.7837  0.5657  0.3608
18687TIP3    H177552   4.913   0.817  13.103 -0.7418  1.1321 -0.0087
18687TIP3    H277553   4.829   0.694  13.135  0.3662  0.5718  0.8312
18688TIP3   OH277554   5.890   6.251   2.515  0.3028 -0.1376  0.3181
18688TIP3    H177555   5.928   6.215   2.595  0.3993 -1.3306 -0.2452
18688TIP3    H277556   5.959   6.306   2.479  0.5961 -0.3199  0.5897
18689TIP3   OH277557   5.544   3.664   1.980  0.2412 -0.4000  0.1979
18689TIP3    H177558   5.554   3.685   2.072 -0.7852  0.0575  0.2218
18689TIP3    H277559   5.463   3.614   1.975 -0.2081  0.3612 -0.5570
18690TIP3   OH277560   3.027   5.223  12.489  0.6909 -0.8421  0.6959
18690TIP3    H177561   3.073   5.140  12.476 -0.6554 -1.4767 -0.3009
18690TIP3    H277562   2.935   5.202  12.471  0.5764  1.3925 -2.0489
18691TIP3   OH277563   1.279   1.995   5.939  0.0474  0.3174 -0.0629
18691TIP3    H177564   1.357   1.941   5.926 -0.3197 -0.7059  1.6295
18691TIP3    H277565   1.232   1.952   6.010 -0.9541  2.1651  0.4564
18692TIP3   OH277566   0.055   6.831  14.293  0.3719  0.0665 -0.4411
18692TIP3    H177567   0.015   6.801  14.374 -2.0424  0.0530 -1.5637
18692TIP3    H277568   0.070   6.752  14.242 -2.0405  0.2897 -1.6512
18693TIP3   OH277569   5.948   2.211  12.994 -0.2323  0.0432 -0.4326
18693TIP3    H177570   5.961   2.134  13.050 -2.0428  0.4401  0.6255
18693TIP3    H277571   5.898   2.178  12.919  0.5945 -0.1325 -0.9230
18694TIP3   OH277572   1.739   1.266  15.766  0.1244  0.1328  0.1116
18694TIP3    H177573   1.763   1.348  15.723  1.0410 -0.7981 -1.2399
18694TIP3    H277574   1.777   1.273  15.854  2.2588  0.2412 -0.7453
18695TIP3   OH277575   4.167   5.175   2.009  0.2132  0.6029  0.3057
18695TIP3    H177576   4.120   5.181   1.925 -1.0933  1.2988  1.0459
18695TIP3    H277577   4.229   5.248   2.007 -0.3048  1.0455  0.2283
18696TIP3   OH277578   6.702   4.694   2.618 -0.2842  0.2504 -0.0530
18696TIP3    H177579   6.770   4.640   2.579  1.3794 -0.5336  3.5357
18696TIP3    H277580   6.647   4.633   2.667 -0.7296  1.3820  0.9163
18697TIP3   OH277581   5.618   3.961   4.765 -0.4280 -0.1650 -0.0507
18697TIP3    H177582   5.693   3.920   4.721 -2.3773 -2.9216 -1.1372
18697TIP3    H277583   5.548   3.959   4.699 -2.2110 -0.2611  1.7494
18698TIP3   OH277584   6.789   2.696   5.255  0.6109  0.5182  0.1745
18698TIP3    H177585   6.709   2.747   5.262  0.1207 -0.3176  0.7245
18698TIP3    H277586   6.769   2.612   5.297  0.9099 -0.7223 -2.0239
18699TIP3   OH277587   1.056   3.495  11.297 -0.1217 -0.7907 -0.3381
18699TIP3    H177588   1.090   3.444  11.370  0.0743 -0.7043 -0.3685
18699TIP3    H277589   0.977   3.448  11.270 -1.4428  0.3794  1.3268
18700TIP3   OH277590   4.875   2.196  12.710  0.6143  0.3620 -0.0964
18700TIP3    H177591   4.882   2.289  12.692 -3.4044  0.8473 -0.1172
18700TIP3    H277592   4.791   2.170  12.672  0.1261 -2.5469  2.5191
18701TIP3   OH277593   6.164   6.305  10.188 -0.3260  0.0408  0.0111
18701TIP3    H177594   6.235   6.334  10.246 -0.2579  0.2935 -0.1985
18701TIP3    H277595   6.088   6.356  10.215 -1.0392 -1.7722  1.7323
18702TIP3   OH277596   5.477   0.640   3.498 -0.2936  0.5507  0.7081
18702TIP3    H177597   5.406   0.697   3.468 -0.2976  0.6116  0.8356
18702TIP3    H277598   5.537   0.635   3.423 -2.0435 -2.1834 -0.7091
18703TIP3   OH277599   3.627   1.545   5.672 -0.4196  0.5333 -0.0817
18703TIP3    H177600   3.595   1.483   5.607  1.9641 -0.3567 -0.4979
18703TIP3    H277601   3.614   1.502   5.756  0.5828 -0.2637 -0.3208
18704TIP3   OH277602   6.058   6.726  16.077 -0.3406  0.1518 -0.1006
18704TIP3    H177603   6.028   6.699  16.165 -0.2202  0.1713 -0.0550
18704TIP3    H277604   5.996   6.683  16.018 -1.2789  1.2507  0.0383
18705TIP3   OH277605   2.892   1.295   1.479 -0.2242 -0.1705  0.1930
18705TIP3    H177606   2.886   1.247   1.562 -1.4434 -1.8654 -0.8161
18705TIP3    H277607   2.974   1.264   1.440 -0.8346 -1.2364 -0.2946
18706TIP3   OH277608   1.946   3.124  15.338 -0.4354  0.9125 -0.5047
18706TIP3    H177609   1.861   3.108  15.298  0.4855 -1.4928 -1.7611
18706TIP3    H277610   2.008   3.083  15.277  1.3848  0.3869  1.5881
18707TIP3   OH277611   4.111   6.524   0.249 -0.0726  0.3561  0.2019
18707TIP3    H177612   4.118   6.569   0.334  2.2772 -1.3863  1.0562
18707TIP3    H277613   4.184   6.560   0.198 -0.5108  0.2387 -0.5148
18708TIP3   OH277614   1.274   6.690   6.052 -0.5456 -0.1744  0.2441
18708TIP3    H177615   1.265   6.610   6.104  1.1736 -0.4484  0.1785
18708TIP3    H277616   1.348   6.736   6.092  0.4758 -0.1320 -1.5999
18709TIP3   OH277617   4.904   2.290  13.013 -0.0469  0.0583  0.3131
18709TIP3    H177618   4.995   2.261  13.016 -0.2148 -0.8057 -1.5447
18709TIP3    H277619   4.901   2.366  13.070  1.7166 -0.2274  0.8301
18710TIP3   OH277620   6.315   2.937  11.651 -0.0869 -0.0507 -0.0509
18710TIP3    H177621   6.350   2.965  11.736  0.8129  0.9406 -0.7244
18710TIP3    H277622   6.378   2.871  11.621 -1.6283 -2.1365  1.0471
18711TIP3   OH277623   4.674   4.409  15.779 -0.4643  0.0432 -0.0154
18711TIP3    H177624   4.604   4.465  15.746 -1.5848 -1.0332  0.4787
18711TIP3    H277625   4.633   4.323  15.790  1.0377 -0.7150 -0.0963
18712TIP3   OH277626   0.171   5.425  14.324 -0.0457  0.8030  0.9358
18712TIP3    H177627   0.196   5.338  14.355  0.5723  1.0608  1.1736
18712TIP3    H277628   0.076   5.429  14.339 -0.2395 -0.1783  0.0310
18713TIP3   OH277629   4.305   0.547  15.867 -0.2862  0.0512 -0.3596
18713TIP3    H177630   4.246   0.611  15.906  0.0577 -0.4766  1.0669
18713TIP3    H277631   4.387   0.595  15.855 -0.3767  0.2012 -0.3819
18714TIP3   OH277632   2.020   0.572   4.009  0.2122 -0.2806 -0.2365
18714TIP3    H177633   2.023   0.480   4.036  1.0320  0.3931  2.2494
18714TIP3    H277634   2.108   0.590   3.976  0.5646 -0.0019  0.8183
18715TIP3   OH277635   1.142   0.301  12.860  0.2319 -0.2170  0.3168
18715TIP3    H177636   1.051   0.329  12.871  0.7345  1.6365  0.0586
18715TIP3    H277637   1.149   0.221  12.913 -1.5895 -0.5172  0.1650
18716TIP3   OH277638   3.278   6.402   0.178  0.4322 -0.5518 -0.2402
18716TIP3    H177639   3.315   6.365   0.099  0.3839  1.2077 -1.1278
18716TIP3    H277640   3.230   6.329   0.218  1.1151 -1.6719 -1.3870
18717TIP3   OH277641   3.447   6.818   5.888 -0.0525 -0.1066  0.0467
18717TIP3    H177642   3.513   6.770   5.838 -0.1946 -1.1449  0.8219
18717TIP3    H277643   3.469   6.802   5.980 -0.5399  0.7294  0.3221
18718TIP3   OH277644   1.095   5.010   4.455  0.2129 -0.2659 -0.2822
18718TIP3    H177645   1.110   5.037   4.545  0.3271  0.2085 -0.4418
18718TIP3    H277646   1.140   4.926   4.447  0.5005 -0.1405  0.0043
18719TIP3   OH277647   5.131   1.021   5.616 -0.6290 -0.3169  0.3336
18719TIP3    H177648   5.048   0.985   5.585  0.0629 -1.9264  0.2532
18719TIP3    H277649   5.142   0.985   5.704  0.5090 -1.0772 -0.0983
18720TIP3   OH277650   2.911   2.297  14.402  0.1027 -0.1594 -0.8568
18720TIP3    H177651   2.863   2.329  14.325  0.6088  0.1273 -1.0534
18720TIP3    H277652   2.988   2.353  14.408  0.5978 -0.8321 -0.7470
18721TIP3   OH277653   2.596   2.677   3.978  0.0161 -0.5361 -0.3126
18721TIP3    H177654   2.649   2.752   4.005  0.1040  0.0631 -2.0119
18721TIP3    H277655   2.660   2.607   3.965  0.0822 -0.5524  0.0816
18722TIP3   OH277656   6.193   5.062  12.333 -0.2297  0.4455 -0.0133
18722TIP3    H177657   6.277   5.039  12.293 -0.2378 -1.2615  0.8552
18722TIP3    H277658   6.150   5.118  12.269  1.1798  0.5589 -0.8844
18723TIP3   OH277659   5.858   1.712   2.444 -0.2614 -0.3757 -0.7999
18723TIP3    H177660   5.878   1.789   2.390 -0.5773 -0.2846 -0.7855
18723TIP3    H277661   5.941   1.664   2.447 -0.7176 -1.4505 -3.0557
18724TIP3   OH277662   3.935   1.011   4.668  0.3192  0.4003 -0.4927
18724TIP3    H177663   3.934   0.958   4.748 -2.0419 -0.2994 -0.9161
18724TIP3    H277664   3.927   1.101   4.698  0.2646  0.2066  0.0880
18725TIP3   OH277665   0.144   3.354  12.644  0.4694  0.1167 -0.3088
18725TIP3    H177666   0.104   3.392  12.722  2.8144  0.1103  1.0027
18725TIP3    H277667   0.075   3.300  12.605 -0.7992  0.1720  1.7253
18726TIP3   OH277668   2.801   0.320   2.679 -0.3107  0.8353 -0.0368
18726TIP3    H177669   2.852   0.400   2.689  0.0353  0.4584  1.6620
18726TIP3    H277670   2.719   0.339   2.725 -0.3568  0.3446  0.0903
18727TIP3   OH277671   1.296   2.138  14.401  0.1368 -0.6511 -0.1993
18727TIP3    H177672   1.343   2.066  14.442 -3.3425 -2.6539  0.6728
18727TIP3    H277673   1.299   2.209  14.466  2.3129 -0.4700 -0.4355
18728TIP3   OH277674   1.312   0.185   3.774 -0.1042 -0.5433  0.2561
18728TIP3    H177675   1.221   0.156   3.777  0.3097 -1.9088  0.3343
18728TIP3    H277676   1.308   0.274   3.740 -1.4668 -0.5597  0.3215
18729TIP3   OH277677   6.298   0.293  13.538 -0.3839  0.7184  0.0941
18729TIP3    H177678   6.285   0.325  13.627  0.7568 -0.1228  0.5930
18729TIP3    H277679   6.216   0.312  13.493 -1.3768  0.2112  1.6156
18730TIP3   OH277680   6.389   5.131  16.755  0.1315 -0.2198 -0.1865
18730TIP3    H177681   6.296   5.135  16.731  0.4274  0.0119 -1.3231
18730TIP3    H277682   6.427   5.067  16.695  0.3143 -2.0361  1.7148
18731TIP3   OH277683   1.805   6.421   2.805 -0.1822 -0.4563  0.1581
18731TIP3    H177684   1.829   6.480   2.876  2.0673  0.4445 -1.2399
18731TIP3    H277685   1.888   6.397   2.765 -1.2828 -2.0476 -1.3174
18732TIP3   OH277686   1.407   4.858   4.153 -0.4832  1.3429 -0.5457
18732TIP3    H177687   1.319   4.848   4.189 -0.3117 -1.3315 -0.6465
18732TIP3    H277688   1.393   4.893   4.065 -1.7391 -1.2629 -1.4867
18733TIP3   OH277689   5.675   3.433   2.431  0.0014  0.2768  0.3257
18733TIP3    H177690   5.755   3.438   2.484  0.5142  0.1970 -0.4281
18733TIP3    H277691   5.635   3.349   2.455 -0.1619  0.5687  1.1167
18734TIP3   OH277692   1.276   6.631  12.355  0.3458 -0.2171  1.3799
18734TIP3    H177693   1.257   6.723  12.336 -2.0181 -0.7371  1.0212
18734TIP3    H277694   1.289   6.628  12.450  1.0399  0.5466  1.3266
18735TIP3   OH277695   2.267   3.775   4.061 -0.0960  0.8863  0.6500
18735TIP3    H177696   2.260   3.809   3.972  1.1713  1.3830  0.7221
18735TIP3    H277697   2.312   3.691   4.052 -0.6393  0.5747  0.7610
18736TIP3   OH277698   1.626   0.528  16.227  0.3818 -0.0465  0.4856
18736TIP3    H177699   1.547   0.474  16.225  1.3323 -1.4754 -0.7940
18736TIP3    H277700   1.686   0.481  16.285  1.3650 -0.6696 -0.9562
18737TIP3   OH277701   3.549   2.186   5.082 -0.3668  0.2112  0.1450
18737TIP3    H177702   3.466   2.224   5.053 -1.6081 -1.6025  1.1553
18737TIP3    H277703   3.592   2.157   5.001 -0.9889  0.6312 -0.3463
18738TIP3   OH277704   1.503   3.841  11.583  0.0560  0.3397 -0.2834
18738TIP3    H177705   1.492   3.935  11.567  0.6081  0.9280  2.2948
18738TIP3    H277706   1.596   3.830  11.600 -0.4487  0.0197  2.7739
18739TIP3   OH277707   1.184   4.004   6.540 -0.2365  0.2736 -0.5038
18739TIP3    H177708   1.247   3.989   6.469 -0.5819  1.3492 -1.0454
18739TIP3    H277709   1.165   3.916   6.573  0.1148 -0.2237 -1.5787
18740TIP3   OH277710   2.008   4.577   5.606  0.2764  0.1418  0.1156
18740TIP3    H177711   2.083   4.622   5.646  1.8185 -2.3655  0.2463
18740TIP3    H277712   1.971   4.524   5.677 -0.7982  0.2833 -0.3070
18741TIP3   OH277713   5.839   6.129  15.339  0.2975 -0.0824 -0.4528
18741TIP3    H177714   5.814   6.078  15.416  0.7135  1.8311  1.0053
18741TIP3    H277715   5.934   6.137  15.344  0.2845  0.4670 -0.8962
18742TIP3   OH277716   2.545   5.890   2.615 -0.3477 -0.1606 -0.1525
18742TIP3    H177717   2.521   5.800   2.634 -0.5933 -0.0669 -0.0136
18742TIP3    H277718   2.465   5.928   2.577 -0.4376  0.1690  0.3609
18743TIP3   OH277719   0.196   1.245   5.056 -0.3908  0.0583 -0.9617
18743TIP3    H177720   0.279   1.289   5.038 -0.1118 -0.8983 -2.2122
18743TIP3    H277721   0.129   1.312   5.041  0.1555  1.1918  1.2565
18744TIP3   OH277722   3.516   6.853  10.216  0.4026 -0.2639  0.9351
18744TIP3    H177723   3.507   6.773  10.267  0.3017 -0.3558  0.7735
18744TIP3    H277724   3.608   6.855  10.190 -0.3146 -2.3676 -2.3777
18745TIP3   OH277725   0.613   5.686  16.439  0.0852 -0.3459  0.5916
18745TIP3    H177726   0.679   5.753  16.428 -0.4572  0.1356  0.2152
18745TIP3    H277727   0.570   5.708  16.522 -0.1984 -0.1335  0.3888
18746TIP3   OH277728   2.549   4.772   4.937  0.2359  0.1734 -0.3369
18746TIP3    H177729   2.478   4.714   4.909  0.2925  1.1982 -2.8290
18746TIP3    H277730   2.628   4.719   4.927  0.1103  0.0595 -0.7439
18747TIP3   OH277731   3.190   3.774  13.911 -0.3977  0.3894 -0.5571
18747TIP3    H177732   3.251   3.800  13.841 -1.3345  0.3131 -1.4221
18747TIP3    H277733   3.123   3.842  13.912 -1.0084 -0.1977 -0.5204
18748TIP3   OH277734   4.436   4.011  13.468  0.0771 -0.1980  1.1624
18748TIP3    H177735   4.342   4.016  13.452  0.1059  1.0244  1.2598
18748TIP3    H277736   4.447   4.039  13.559  0.4733 -1.1023  1.4048
18749TIP3   OH277737   5.276   1.997   5.822 -0.3886 -0.0439 -0.4673
18749TIP3    H177738   5.259   2.073   5.766  0.7653  0.6044  0.0142
18749TIP3    H277739   5.219   1.929   5.788 -2.8340  1.5368  0.2101
18750TIP3   OH277740   5.881   0.481  16.916  0.4431  0.1124  0.5632
18750TIP3    H177741   5.829   0.556  16.890 -0.6387 -0.9137 -0.3408
18750TIP3    H277742   5.919   0.505  17.000  0.7348  1.9507 -0.0616
18751TIP3   OH277743   3.464   1.631  14.359  0.2907 -0.6061  0.4842
18751TIP3    H177744   3.372   1.658  14.357 -0.2590 -2.3581  0.6573
18751TIP3    H277745   3.506   1.695  14.416 -1.0282 -0.3486  1.2175
18752TIP3   OH277746   3.544   1.026  12.382  0.6377  0.9507  0.0740
18752TIP3    H177747   3.594   1.101  12.415  2.3576  0.0770 -0.4016
18752TIP3    H277748   3.592   0.997  12.305 -0.8410  0.2563 -0.6260
18753TIP3   OH277749   0.633   5.465  16.248  0.6594  0.2540  0.4558
18753TIP3    H177750   0.566   5.397  16.238  1.0606 -0.0556 -0.2853
18753TIP3    H277751   0.597   5.526  16.311  0.1440 -0.4839  0.8927
18754TIP3   OH277752   4.889   1.912   4.415 -0.0477 -0.2693 -0.6896
18754TIP3    H177753   4.903   1.825   4.452 -0.0787  0.6942  1.7895
18754TIP3    H277754   4.825   1.953   4.473 -1.3921  0.8388 -2.8164
18755TIP3   OH277755   2.851   0.748   0.309 -0.6299  0.4535 -0.3363
18755TIP3    H177756   2.871   0.825   0.362  0.7494 -0.5859  0.7292
18755TIP3    H277757   2.842   0.782   0.220  2.7217  1.5620 -0.3867
18756TIP3   OH277758   2.755   3.184  16.033 -0.5248 -0.3583  0.3369
18756TIP3    H177759   2.692   3.119  16.065  0.8159 -1.5569  0.6469
18756TIP3    H277760   2.805   3.138  15.966  0.3753  0.3848  0.4823
18757TIP3   OH277761   6.368   5.119   5.666 -0.2439 -0.1994  0.0721
18757TIP3    H177762   6.277   5.144   5.654 -0.2618  0.6919  1.7801
18757TIP3    H277763   6.413   5.157   5.590 -0.9304  1.4660  0.4522
18758TIP3   OH277764   3.353   1.894  15.087  0.6010 -0.3562  0.4195
18758TIP3    H177765   3.357   1.980  15.043  0.9147 -0.0217  1.0799
18758TIP3    H277766   3.317   1.913  15.173  1.8736 -0.6723  1.0533
18759TIP3   OH277767   4.572   2.104   0.394 -0.0917  0.0657  0.2747
18759TIP3    H177768   4.584   2.012   0.371 -1.0623  0.0996 -0.4211
18759TIP3    H277769   4.541   2.145   0.313 -0.0723  0.9249  0.6929
18760TIP3   OH277770   0.095   5.588   0.618 -0.3757 -0.4100  0.1129
18760TIP3    H177771   0.060   5.585   0.707 -0.9648 -1.0843 -0.1302
18760TIP3    H277772   0.102   5.496   0.592 -1.3855 -0.2001 -0.9877
18761TIP3   OH277773   5.146   0.772  10.187 -0.1730  0.3896  0.0811
18761TIP3    H177774   5.239   0.781  10.207 -0.0671 -0.8158  0.1974
18761TIP3    H277775   5.136   0.682  10.156 -1.0632  0.9334 -1.3119
18762TIP3   OH277776   6.202   2.848  16.824 -0.1886  0.1748 -0.0341
18762TIP3    H177777   6.189   2.883  16.736 -0.1119  0.4037  0.0456
18762TIP3    H277778   6.256   2.914  16.868 -1.0216  0.5268  0.4864
18763TIP3   OH277779   1.508   0.043   0.155 -0.4785 -0.0770 -0.4224
18763TIP3    H177780   1.561  -0.033   0.132 -1.1625 -0.8474  0.5218
18763TIP3    H277781   1.423   0.027   0.115 -1.6485 -1.3742  2.3695
18764TIP3   OH277782   4.129   1.923  12.430 -0.1120  0.0345 -0.2226
18764TIP3    H177783   4.158   2.009  12.461 -0.5865  0.0030  0.3162
18764TIP3    H277784   4.168   1.915  12.343  1.5227 -0.0153  0.4792
18765TIP3   OH277785   2.710   1.794  13.913 -0.0222  0.0200 -0.1571
18765TIP3    H177786   2.625   1.804  13.955  1.0482 -0.0939  2.1631
18765TIP3    H277787   2.773   1.827  13.977  1.9128 -2.3245 -0.7204
18766TIP3   OH277788   2.971   0.097   6.179 -0.0232 -0.2421  0.1708
18766TIP3    H177789   2.898   0.035   6.183 -2.6217  2.1999 -3.0149
18766TIP3    H277790   3.029   0.062   6.112 -1.1184  0.2748 -1.1089
18767TIP3   OH277791   3.625   5.121   3.704 -0.7801  0.6238 -0.2381
18767TIP3    H177792   3.702   5.131   3.648 -0.9876 -2.1072 -1.1521
18767TIP3    H277793   3.556   5.169   3.658 -0.1551  1.2425 -0.5437
18768TIP3   OH277794   6.194   2.598   4.488  0.0164 -0.3524 -0.1761
18768TIP3    H177795   6.170   2.675   4.539  1.0480  1.1716 -1.8510
18768TIP3    H277796   6.257   2.551   4.542  0.7477  0.9736  0.1596
18769TIP3   OH277797   2.525   6.634   4.230  0.3124 -0.1898 -0.1898
18769TIP3    H177798   2.470   6.672   4.299  0.5530 -1.4435  0.7252
18769TIP3    H277799   2.608   6.612   4.274  1.9195  2.3733 -1.6995
18770TIP3   OH277800   2.140   3.065  10.268  0.0563  1.0772 -0.1473
18770TIP3    H177801   2.159   3.147  10.314 -1.4602  0.3305  1.9731
18770TIP3    H277802   2.045   3.062  10.263  0.1173 -0.2111 -0.8388
18771TIP3   OH277803   2.729   6.503  12.339  0.3252 -0.2295 -0.2779
18771TIP3    H177804   2.723   6.592  12.305  0.4321  0.0155  0.3490
18771TIP3    H277805   2.686   6.506  12.424  2.4912 -0.1874  0.8801
18772TIP3   OH277806   2.290   3.487   0.526 -0.3451 -0.6068 -0.4567
18772TIP3    H177807   2.215   3.542   0.549  0.7354  1.4477 -1.4599
18772TIP3    H277808   2.297   3.495   0.431 -0.6121 -3.2480 -0.7714
18773TIP3   OH277809   4.081   6.807   1.024 -0.0467  0.1805  0.3391
18773TIP3    H177810   4.031   6.803   1.106  1.4738  1.1320  1.3651
18773TIP3    H277811   4.024   6.766   0.959 -1.6850  0.2381  1.6770
18774TIP3   OH277812   0.763   0.523   5.931 -0.0209  0.0809  0.1578
18774TIP3    H177813   0.839   0.468   5.948 -0.6685 -0.9453 -0.1874
18774TIP3    H277814   0.788   0.574   5.854  1.1586  1.4144  1.3623
18775TIP3   OH277815   3.761   4.923   1.852  0.1334 -0.1077  0.4053
18775TIP3    H177816   3.823   4.960   1.789  0.4853 -1.3673 -0.0177
18775TIP3    H277817   3.815   4.904   1.929 -0.5326  2.7062  1.6995
18776TIP3   OH277818   1.725   0.853   5.181  0.2079 -0.0850 -0.3849
18776TIP3    H177819   1.779   0.801   5.241  0.5595  1.7627  1.0201
18776TIP3    H277820   1.749   0.822   5.094 -0.1781 -2.7454  0.3645
18777TIP3   OH277821   1.143   2.640   0.168  0.5393 -0.5645  0.2083
18777TIP3    H177822   1.086   2.680   0.234  0.2366 -1.1272  0.2947
18777TIP3    H277823   1.227   2.630   0.212  0.4581 -0.5459  0.3688
18778TIP3   OH277824   1.809   4.369   4.123  0.3977  0.2846 -0.4709
18778TIP3    H177825   1.902   4.364   4.102  0.5991  0.5728  0.2958
18778TIP3    H277826   1.788   4.282   4.158  0.5280  0.3941 -0.1075
18779TIP3   OH277827   5.733   2.622   6.797 -0.9063 -0.1017  0.5907
18779TIP3    H177828   5.789   2.582   6.730 -0.5699  1.5363 -0.1482
18779TIP3    H277829   5.794   2.661   6.860 -1.1939  1.3047  0.0238
18780TIP3   OH277830   5.342   0.642   2.026  0.0206  0.6920  0.1113
18780TIP3    H177831   5.413   0.659   1.964 -0.4228  1.0921 -0.2942
18780TIP3    H277832   5.376   0.572   2.082  0.5445  0.5327 -0.3884
18781TIP3   OH277833   6.237   1.664  11.455 -0.3360  0.4939 -0.5543
18781TIP3    H177834   6.332   1.664  11.443 -0.4517  1.0361 -1.5001
18781TIP3    H277835   6.202   1.702  11.375 -1.3636  0.2068 -0.2578
18782TIP3   OH277836   1.708   0.274   5.497 -0.4709 -0.1087 -0.3672
18782TIP3    H177837   1.760   0.201   5.464 -0.8105  0.0123 -1.1787
18782TIP3    H277838   1.647   0.295   5.426 -0.2345  1.1042 -0.2349
18783TIP3   OH277839   3.437   0.254   2.712 -0.4992 -0.0102  0.1328
18783TIP3    H177840   3.436   0.182   2.649  1.8728  2.0440 -2.5147
18783TIP3    H277841   3.516   0.241   2.763  0.0618  0.7931 -0.5114
18784TIP3   OH277842   2.395   4.523  16.799 -0.2208  0.2341 -0.1406
18784TIP3    H177843   2.312   4.501  16.756 -1.4115 -0.2788  2.2530
18784TIP3    H277844   2.408   4.616  16.778 -1.8515  0.5489  0.1095
18785TIP3   OH277845   0.649   2.210   4.143  0.0181  0.2651  0.5533
18785TIP3    H177846   0.558   2.241   4.141 -0.3511 -0.7419  0.6525
18785TIP3    H277847   0.662   2.183   4.234  1.0041  1.9893  0.9670
18786TIP3   OH277848   6.576   3.585   0.857  0.2856 -0.1364  0.0794
18786TIP3    H177849   6.490   3.612   0.826  0.3389 -0.8350 -0.6889
18786TIP3    H277850   6.558   3.526   0.930  0.0225 -1.9198 -1.3532
18787TIP3   OH277851   1.374   0.083  15.809  0.5271 -0.1907  0.1770
18787TIP3    H177852   1.336   0.057  15.893  1.6133  2.5679  1.6632
18787TIP3    H277853   1.422   0.006  15.779  0.9705 -0.9656  2.6200
18788TIP3   OH277854   5.511   1.176  10.046  0.6174  0.4390  0.6241
18788TIP3    H177855   5.437   1.212  10.095 -0.8351 -0.1679 -0.9982
18788TIP3    H277856   5.476   1.097  10.005  1.9185  0.5888 -0.8575
18789TIP3   OH277857   4.231   3.310   0.466  0.2824  0.3786 -0.9918
18789TIP3    H177858   4.311   3.361   0.456 -0.3920  1.6070 -0.3527
18789TIP3    H277859   4.165   3.373   0.494 -0.7339 -0.7410 -0.7474
18790TIP3   OH277860   5.985   2.583  11.703  0.1319 -0.2371  0.3071
18790TIP3    H177861   5.950   2.539  11.625  0.0670 -2.0660  1.3302
18790TIP3    H277862   6.080   2.576  11.694  0.2078  1.2579 -0.5081
18791TIP3   OH277863   2.854   2.935   5.809  0.0509  0.1707  0.1134
18791TIP3    H177864   2.894   2.885   5.880 -0.3707  1.6298  1.4464
18791TIP3    H277865   2.782   2.982   5.851 -0.7360  0.4475 -1.4729
18792TIP3   OH277866   3.356   3.444  16.015 -0.2725 -0.3671 -0.1293
18792TIP3    H177867   3.411   3.437  15.937 -0.0139 -0.0387  0.0161
18792TIP3    H277868   3.417   3.431  16.088  0.0227  1.9181  0.1146
18793TIP3   OH277869   3.139   1.213   4.082  0.2009 -0.3958  0.1817
18793TIP3    H177870   3.199   1.204   4.009  0.7062 -1.6180  0.7351
18793TIP3    H277871   3.195   1.232   4.157 -0.3195  0.9439  0.2575
18794TIP3   OH277872   3.579   1.767  16.787 -0.0483  0.0386  0.1065
18794TIP3    H177873   3.534   1.731  16.864 -0.3147  0.3830  0.1160
18794TIP3    H277874   3.645   1.701  16.765 -1.0980 -0.8533 -0.4078
18795TIP3   OH277875   1.318   6.118   2.650  0.1197  0.0728 -0.2028
18795TIP3    H177876   1.224   6.105   2.636  0.2740 -0.5295 -0.7180
18795TIP3    H277877   1.325   6.145   2.742 -0.5545  0.0814 -0.1513
18796TIP3   OH277878   3.787   0.134  15.613  0.7414 -0.3689  0.2404
18796TIP3    H177879   3.816   0.225  15.615 -0.4547  0.0356  1.8021
18796TIP3    H277880   3.795   0.105  15.704  2.6320 -2.3724 -0.4911
18797TIP3   OH277881   3.005   6.097  15.058  0.1150  0.2366 -0.3286
18797TIP3    H177882   2.939   6.029  15.069  0.9538 -0.4557  0.6184
18797TIP3    H277883   2.956   6.177  15.041 -0.8944 -0.8835 -3.3626
18798TIP3   OH277884   1.207   4.186   5.618  0.2718 -0.4034 -0.4167
18798TIP3    H177885   1.184   4.138   5.698  0.0041  1.3294  0.5927
18798TIP3    H277886   1.293   4.223   5.637 -0.4922  1.3964 -0.2169
18799TIP3   OH277887   1.899   4.608  15.474  0.3783 -0.3999  0.2184
18799TIP3    H177888   1.914   4.526  15.428 -0.4318 -0.4051 -0.0577
18799TIP3    H277889   1.904   4.586  15.567  1.4269 -0.5054  0.1442
18800TIP3   OH277890   4.085   3.087   3.721 -0.2860 -0.7695  0.0943
18800TIP3    H177891   4.003   3.078   3.672 -0.7750  1.0780  0.5072
18800TIP3    H277892   4.147   3.125   3.659 -0.4209 -0.0005  0.4235
18801TIP3   OH277893   1.488   6.384  14.751 -0.4873  0.0085 -0.0274
18801TIP3    H177894   1.532   6.413  14.832 -1.9252 -0.0649  0.8145
18801TIP3    H277895   1.527   6.438  14.682  0.7029  0.1492  0.7204
18802TIP3   OH277896   5.434   4.516   0.746 -0.2455 -0.2789  0.1375
18802TIP3    H177897   5.529   4.528   0.743 -0.2238 -0.1391  1.1851
18802TIP3    H277898   5.398   4.604   0.742 -0.2535 -0.1726  1.7777
18803TIP3   OH277899   1.467   6.238  10.461  0.4435  0.0261 -0.3635
18803TIP3    H177900   1.518   6.275  10.533 -0.7594 -0.2983  0.7009
18803TIP3    H277901   1.379   6.229  10.497  0.2993 -2.2219 -1.1676
18804TIP3   OH277902   0.159   1.160  12.382 -0.1511 -0.3149 -0.5239
18804TIP3    H177903   0.227   1.211  12.337 -2.2045  0.9999 -2.3186
18804TIP3    H277904   0.161   1.192  12.472  0.0207  1.4900 -1.1229
18805TIP3   OH277905   0.904   4.815   0.151 -0.3511  0.0760  0.1435
18805TIP3    H177906   0.828   4.799   0.096  0.5343 -2.3849 -0.4950
18805TIP3    H277907   0.907   4.740   0.211  1.2351  0.3853  0.5102
18806TIP3   OH277908   0.946   4.164  12.122  0.0372 -0.2858 -0.1857
18806TIP3    H177909   0.853   4.179  12.105  0.4524  2.8621 -0.3500
18806TIP3    H277910   0.968   4.227  12.190  2.7870  1.9282 -2.8380
18807TIP3   OH277911   3.112   0.678  13.226 -0.0123  0.3894 -0.6106
18807TIP3    H177912   3.059   0.682  13.305 -0.7870 -1.1582 -1.0190
18807TIP3    H277913   3.202   0.669  13.258 -0.0111  2.3186  0.0786
18808TIP3   OH277914   1.664   3.672   4.981 -0.3790 -0.2085 -0.1034
18808TIP3    H177915   1.647   3.736   4.911  1.1196  0.0227 -0.2825
18808TIP3    H277916   1.697   3.724   5.054  0.3000 -0.7059 -0.0477
18809TIP3   OH277917   5.933   1.723   4.234 -0.3396  0.2021 -0.3453
18809TIP3    H177918   5.966   1.634   4.223  1.3076  0.3134  2.6955
18809TIP3    H277919   6.001   1.778   4.194 -0.3532  0.1824 -0.3964
18810TIP3   OH277920   4.084   5.819   3.517  0.3438  0.0919 -0.1977
18810TIP3    H177921   4.044   5.732   3.511 -0.0668  0.1931  0.8129
18810TIP3    H277922   4.141   5.815   3.594 -0.4352  0.9897  0.4596
18811TIP3   OH277923   2.431   5.113  16.969  0.2609  0.3457 -0.9611
18811TIP3    H177924   2.369   5.168  17.017 -1.0232 -0.7723 -1.2680
18811TIP3    H277925   2.463   5.051  17.034  0.1454  0.1789 -1.0616
18812TIP3   OH277926   4.275   4.187  10.644  0.1572 -0.4805 -0.0706
18812TIP3    H177927   4.207   4.196  10.578  2.0351  0.4695 -2.0076
18812TIP3    H277928   4.309   4.099  10.632 -0.1317 -0.6413  0.2839
18813TIP3   OH277929   4.909   5.906   4.274 -0.2588 -0.8369 -0.1114
18813TIP3    H177930   4.954   5.828   4.307  0.1106 -0.3961  0.4450
18813TIP3    H277931   4.978   5.973   4.270 -0.7643 -0.2790  0.3077
18814TIP3   OH277932   3.581   1.519   2.902 -0.1938 -0.2186  0.5864
18814TIP3    H177933   3.599   1.434   2.942 -0.6446 -1.0028 -0.7927
18814TIP3    H277934   3.544   1.572   2.973  0.6931 -0.9468  1.6254
18815TIP3   OH277935   6.477   2.592  12.321  0.0283  0.0936  0.5140
18815TIP3    H177936   6.387   2.567  12.341  0.1322 -0.5731  0.1709
18815TIP3    H277937   6.471   2.643  12.241 -0.0810  0.3546  0.6880
18816TIP3   OH277938   0.319   5.257   0.759  0.0108  0.2977  0.3494
18816TIP3    H177939   0.412   5.238   0.768  0.1266 -0.3233 -1.6574
18816TIP3    H277940   0.288   5.272   0.849  1.6996 -1.0279  1.2018
18817TIP3   OH277941   0.156   6.042  13.799  0.7258  0.9835  0.0312
18817TIP3    H177942   0.164   5.948  13.785 -1.0380  0.7569  0.3483
18817TIP3    H277943   0.238   6.067  13.842  0.4963 -0.7367  1.5880
18818TIP3   OH277944   6.034   6.609  13.641  0.6560  0.4005 -0.4318
18818TIP3    H177945   5.938   6.609  13.639  0.6551  1.2229 -1.6304
18818TIP3    H277946   6.057   6.702  13.640  1.4778  0.2506  1.3336
18819TIP3   OH277947   2.206   2.182  11.367 -0.8454 -0.1467 -0.6799
18819TIP3    H177948   2.240   2.153  11.282  2.3170  0.3998  0.2635
18819TIP3    H277949   2.229   2.110  11.427 -2.4480 -0.2412 -0.1511
18820TIP3   OH277950   4.897   5.345   3.348 -0.1802  0.5091 -0.1831
18820TIP3    H177951   4.984   5.382   3.358 -0.2536  0.2095  1.9654
18820TIP3    H277952   4.891   5.323   3.255  2.6297 -0.9496 -0.1263
18821TIP3   OH277953   6.153   0.005   3.026  0.1761  0.2384  0.6690
18821TIP3    H177954   6.088   0.062   3.067 -0.9513 -0.7630  0.3681
18821TIP3    H277955   6.124  -0.084   3.050 -0.3595 -0.3889 -1.9524
18822TIP3   OH277956   0.527   3.704   0.943 -0.0972 -0.3420  0.1294
18822TIP3    H177957   0.484   3.787   0.964 -0.7698 -0.6264 -0.0876
18822TIP3    H277958   0.616   3.713   0.977 -0.7105 -0.2495  1.7843
18823TIP3   OH277959   5.174   3.393  15.711  0.2475  0.5844 -0.5318
18823TIP3    H177960   5.226   3.399  15.631  0.0557 -1.2067 -0.8249
18823TIP3    H277961   5.123   3.474  15.712  0.5398  0.8218 -2.0227
18824TIP3   OH277962   0.187   0.660  12.565  0.5473 -0.2130  0.0258
18824TIP3    H177963   0.188   0.739  12.512 -1.1840 -1.1252 -1.5097
18824TIP3    H277964   0.249   0.601  12.522  0.0718 -0.5128 -0.2580
18825TIP3   OH277965   2.383   4.771   1.347  0.2574  0.1739  0.1464
18825TIP3    H177966   2.475   4.746   1.358 -0.1146 -0.8334  1.1062
18825TIP3    H277967   2.350   4.714   1.278  0.6040  1.2709 -0.9680
18826TIP3   OH277968   5.651   2.703  12.231  0.2265 -0.0402 -0.7942
18826TIP3    H177969   5.705   2.711  12.310  0.5136 -1.2869 -0.8410
18826TIP3    H277970   5.706   2.739  12.161  0.3351  0.2371 -0.5660
18827TIP3   OH277971   4.162   5.347   5.357 -0.0950  0.0339  0.2057
18827TIP3    H177972   4.134   5.264   5.319 -1.3248 -0.0924  1.2943
18827TIP3    H277973   4.084   5.403   5.352  1.2976  1.9630 -2.5506
18828TIP3   OH277974   3.844   2.238   1.006  0.6247 -0.1370 -0.0404
18828TIP3    H177975   3.766   2.264   1.054 -0.1453 -0.4325 -1.0959
18828TIP3    H277976   3.906   2.310   1.020  0.6874 -0.5204  1.9191
18829TIP3   OH277977   3.226   6.645  14.874  1.3476 -0.0150  0.1575
18829TIP3    H177978   3.226   6.555  14.840 -0.6735  0.0925 -0.2260
18829TIP3    H277979   3.240   6.634  14.969  0.9502 -0.7542  0.1418
18830TIP3   OH277980   0.887   6.195   1.694 -0.0149  0.3728  0.4631
18830TIP3    H177981   0.935   6.234   1.767 -0.0889 -0.1672  0.8050
18830TIP3    H277982   0.863   6.269   1.639  1.0769  0.6730  0.3632
18831TIP3   OH277983   3.697   0.951  12.154  0.1379  0.7120 -0.1662
18831TIP3    H177984   3.625   0.987  12.102 -0.9861 -1.1755 -0.0003
18831TIP3    H277985   3.761   0.923  12.089 -0.2828  0.3506 -0.4298
18832TIP3   OH277986   2.752   0.340   5.485 -0.0075  0.2220  0.0569
18832TIP3    H177987   2.827   0.322   5.542 -0.6140  0.4163  0.9449
18832TIP3    H277988   2.751   0.436   5.478  2.0325  0.1829 -3.0397
18833TIP3   OH277989   3.590   2.268  16.487 -0.5568  0.1627 -0.3414
18833TIP3    H177990   3.545   2.283  16.569  0.0143 -0.0707  0.0237
18833TIP3    H277991   3.679   2.299  16.502 -0.1152 -0.9669 -0.4728
18834TIP3   OH277992   3.025   3.720  12.305  0.2533  0.2999  0.1025
18834TIP3    H177993   3.008   3.792  12.243  1.4008 -0.0616 -0.6714
18834TIP3    H277994   3.064   3.763  12.381 -0.9258  0.7198  0.4853
18835TIP3   OH277995   0.644   2.082  16.516  0.3674 -0.4544 -0.3683
18835TIP3    H177996   0.650   2.020  16.443  1.4646 -2.8710  1.6324
18835TIP3    H277997   0.716   2.143  16.502  1.9024 -2.1470 -0.3087
18836TIP3   OH277998   5.465   3.070  15.957  0.9217  0.3866 -0.2045
18836TIP3    H177999   5.403   3.141  15.976  0.4978  0.0487 -0.2996
18836TIP3    H278000   5.411   3.003  15.915  1.8161  1.0831 -2.5874
18837TIP3   OH278001   0.136   0.325   4.049 -0.0002 -0.3449 -0.5430
18837TIP3    H178002   0.062   0.362   4.097  0.7621  0.7311 -0.1702
18837TIP3    H278003   0.096   0.273   3.979 -1.1318 -1.6081  0.9699
18838TIP3   OH278004   0.501   2.164  16.169  0.4328 -0.7221  0.2228
18838TIP3    H178005   0.555   2.087  16.187  0.4331 -0.5663  0.9101
18838TIP3    H278006   0.534   2.197  16.085  1.0325 -0.9529  0.3606
18839TIP3   OH278007   2.883   1.351   4.297 -0.5465 -0.0404 -0.2724
18839TIP3    H178008   2.954   1.322   4.355  0.8834  1.3353 -1.2443
18839TIP3    H278009   2.812   1.375   4.356  0.3081 -0.1154  0.8211
18840TIP3   OH278010   3.963   5.354   1.860  0.4335  0.2991 -0.1107
18840TIP3    H178011   3.923   5.289   1.918 -0.3556 -0.0428 -1.0110
18840TIP3    H278012   3.927   5.438   1.888 -0.9577  0.0005 -0.8926
18841TIP3   OH278013   1.337   1.679   0.201  0.3803 -0.3589 -0.1091
18841TIP3    H178014   1.283   1.741   0.250  3.6416  1.6226  1.3661
18841TIP3    H278015   1.313   1.692   0.110  0.2369  2.5014  0.2381
18842TIP3   OH278016   5.876   6.745  12.342 -0.4191  0.3532 -0.4453
18842TIP3    H178017   5.949   6.684  12.339 -0.2975  0.3922  1.0351
18842TIP3    H278018   5.907   6.822  12.293 -0.4564 -0.6006 -2.0410
18843TIP3   OH278019   1.134   3.938  16.863 -0.0792  0.1249  0.1857
18843TIP3    H178020   1.094   3.860  16.823  0.1702  0.2700 -0.3664
18843TIP3    H278021   1.169   3.908  16.946  2.2760 -0.9878 -1.1271
18844TIP3   OH278022   2.989   2.498   4.560  0.2326 -0.1402 -0.0219
18844TIP3    H178023   2.903   2.532   4.533  0.0701 -0.4742  0.0590
18844TIP3    H278024   2.981   2.403   4.548  0.1979 -0.2877  1.0655
18845TIP3   OH278025   1.270   0.525  10.234  0.0950  0.7863 -0.0402
18845TIP3    H178026   1.258   0.465  10.307 -3.8285 -1.1172 -1.9351
18845TIP3    H278027   1.300   0.469  10.162 -0.5470  1.7108 -1.0483
18846TIP3   OH278028   1.016   5.582   2.292 -0.3750  0.5484  0.4037
18846TIP3    H178029   0.987   5.666   2.328  1.2388  0.8292  1.1252
18846TIP3    H278030   0.959   5.569   2.216  0.8173  3.5125 -1.1952
18847TIP3   OH278031   3.706   0.294   1.051  0.3475  0.3884 -0.1217
18847TIP3    H178032   3.674   0.259   1.134 -1.0728  0.2454 -0.7011
18847TIP3    H278033   3.775   0.234   1.024  0.1157 -0.1456  0.4611
18848TIP3   OH278034   3.757   3.722  15.707 -0.1338 -0.2479 -0.0271
18848TIP3    H178035   3.840   3.694  15.669 -0.0626  0.1628 -0.1849
18848TIP3    H278036   3.690   3.679  15.654 -0.0400  0.4516 -0.7388
18849TIP3   OH278037   2.457   5.703  14.984  0.2207  0.0863  0.1397
18849TIP3    H178038   2.519   5.641  15.023  2.6816  3.0461  1.3056
18849TIP3    H278039   2.477   5.699  14.890  1.7498  0.4795  0.4212
18850TIP3   OH278040   3.877   3.198   2.914  0.1956  0.3519 -0.3349
18850TIP3    H178041   3.943   3.257   2.952  1.9623 -2.0667  0.6133
18850TIP3    H278042   3.928   3.129   2.873 -1.7833 -0.7634 -1.0069
18851TIP3   OH278043   6.566   1.402  12.666  0.0864  0.4388  0.3240
18851TIP3    H178044   6.556   1.312  12.636  0.9061 -0.1164  1.6315
18851TIP3    H278045   6.541   1.399  12.758  0.9830  1.3626  0.6107
18852TIP3   OH278046   1.512   0.040   0.917  0.0418 -0.1488 -0.3404
18852TIP3    H178047   1.552  -0.033   0.964  1.0306  0.4651 -0.2166
18852TIP3    H278048   1.529   0.117   0.971  0.9868  0.5349 -1.5464
18853TIP3   OH278049   1.988   5.478  16.640  0.2764  0.2098 -0.1935
18853TIP3    H178050   1.898   5.480  16.672  0.1948 -0.1719 -0.3982
18853TIP3    H278051   2.006   5.568  16.613 -0.0458  0.2860 -0.1553
18854TIP3   OH278052   5.798   4.725  11.014  0.5431 -0.1734  0.0576
18854TIP3    H178053   5.798   4.702  10.921  0.3585 -0.6667  0.1739
18854TIP3    H278054   5.711   4.764  11.029  1.3408  1.9179 -0.4381
18855TIP3   OH278055   2.957   1.159  13.488 -0.6066  0.3276 -0.0550
18855TIP3    H178056   2.926   1.244  13.518 -1.9121  0.1365 -0.7945
18855TIP3    H278057   3.026   1.179  13.425 -0.2324  0.7996  0.4988
18856TIP3   OH278058   2.586   4.248   2.848 -0.8162  0.3286 -0.2296
18856TIP3    H178059   2.641   4.228   2.772  0.5459  1.3767  0.4402
18856TIP3    H278060   2.618   4.332   2.880 -1.3872 -0.0602  1.4884
18857TIP3   OH278061   0.012   3.273  10.720 -0.2684  0.4763 -0.4146
18857TIP3    H178062  -0.012   3.333  10.791 -0.4546  0.0318 -0.1003
18857TIP3    H278063  -0.050   3.293  10.650 -1.5053 -0.5632  0.3337
18858TIP3   OH278064   2.463   2.245  13.659 -0.4988 -0.3219  0.3450
18858TIP3    H178065   2.528   2.239  13.589 -0.2236  1.7853  0.3464
18858TIP3    H278066   2.386   2.201  13.625 -0.1287  0.0253 -0.9986
18859TIP3   OH278067   2.032   1.796  14.112 -0.1734 -0.3752  0.2027
18859TIP3    H178068   1.964   1.791  14.179  0.2566  1.7236  0.8768
18859TIP3    H278069   2.112   1.814  14.161  0.2263  0.7293 -0.8149
18860TIP3   OH278070   5.472   4.895  12.336  0.2321  0.1467 -0.2466
18860TIP3    H178071   5.565   4.892  12.314  0.1005  1.7588 -1.1645
18860TIP3    H278072   5.429   4.915  12.253 -0.9977 -1.0504  0.0742
18861TIP3   OH278073   2.303   5.476  11.719 -0.0957 -0.1319  0.1661
18861TIP3    H178074   2.214   5.443  11.710  0.2988 -1.9899  2.3008
18861TIP3    H278075   2.356   5.421  11.662 -0.2980  1.1172 -1.2753
18862TIP3   OH278076   2.310   5.960   5.141 -0.7131 -0.2843  0.5966
18862TIP3    H178077   2.260   6.003   5.071  2.1543  3.8085  0.7104
18862TIP3    H278078   2.264   5.982   5.221 -0.3176  1.0967  0.4743
18863TIP3   OH278079   0.525   1.683  11.195  0.2863  0.0881  0.0592
18863TIP3    H178080   0.581   1.655  11.267  0.7741  0.0520 -0.3218
18863TIP3    H278081   0.569   1.760  11.158 -0.1763  0.3590  0.0609
18864TIP3   OH278082   1.189   6.606   4.038 -0.0942 -0.8473 -0.0818
18864TIP3    H178083   1.265   6.575   3.988  1.4266  0.4738  1.2972
18864TIP3    H278084   1.153   6.677   3.985  1.4183  0.4450  0.5428
18865TIP3   OH278085   0.639   5.866   2.381  0.0287 -0.3267  0.1289
18865TIP3    H178086   0.608   5.777   2.365 -3.1085  0.8446 -0.9671
18865TIP3    H278087   0.601   5.890   2.465 -2.1458  1.0929 -1.1660
18866TIP3   OH278088   1.062   1.377  15.469 -0.0385  0.3735 -0.1193
18866TIP3    H178089   1.056   1.390  15.375  0.6281  0.7058 -0.1186
18866TIP3    H278090   1.144   1.419  15.494 -0.8893  1.5364  0.8289
18867TIP3   OH278091   0.769   1.598  10.624 -0.5304  0.2733 -0.1874
18867TIP3    H178092   0.747   1.645  10.705 -0.2605  0.9355 -0.4957
18867TIP3    H278093   0.854   1.632  10.598 -0.5406 -0.0540 -0.6693
18868TIP3   OH278094   0.549   6.753  13.078 -0.3733 -0.1771 -0.2579
18868TIP3    H178095   0.566   6.787  12.990 -0.7911  1.4319  0.2421
18868TIP3    H278096   0.513   6.828  13.126  1.4953 -0.4742  1.8003
18869TIP3   OH278097   2.298   1.401  15.981  0.5752 -0.2618 -0.1905
18869TIP3    H178098   2.389   1.371  15.993  0.8258  0.4721 -0.1797
18869TIP3    H278099   2.293   1.482  16.032  0.3180  0.4407 -1.3048
18870TIP3   OH278100   0.140   5.436  13.280 -0.4095 -0.0841 -0.1025
18870TIP3    H178101   0.123   5.384  13.202  0.1172  0.6146 -0.6937
18870TIP3    H278102   0.235   5.449  13.281 -0.3202 -0.6789  1.0421
18871TIP3   OH278103   6.283   6.543   5.137  0.0625 -0.2512 -0.2696
18871TIP3    H178104   6.342   6.619   5.140 -0.8461  0.4534  0.6378
18871TIP3    H278105   6.214   6.568   5.076  1.6010 -1.8078 -2.7848
18872TIP3   OH278106   4.236   6.544  10.888 -0.9093  0.3819 -0.4023
18872TIP3    H178107   4.170   6.578  10.827 -0.0149  2.3526 -0.3248
18872TIP3    H278108   4.292   6.619  10.908  1.8083 -1.3633 -0.9967
18873TIP3   OH278109   5.131   1.033  10.259  0.1092  0.1868 -0.1912
18873TIP3    H178110   5.083   1.050  10.341  1.8767  0.3148  0.8809
18873TIP3    H278111   5.123   0.939  10.246  0.5887  0.0068  0.6799
18874TIP3   OH278112   4.068   0.885   4.914 -0.0304 -0.4333 -0.8138
18874TIP3    H178113   4.148   0.934   4.933  0.1282 -0.9760 -0.0472
18874TIP3    H278114   4.021   0.882   4.997  0.4629 -2.4663 -0.5506
18875TIP3   OH278115   0.379   6.206   0.768 -0.1782 -0.0454  0.1207
18875TIP3    H178116   0.316   6.251   0.824 -0.4999 -3.4380  2.8072
18875TIP3    H278117   0.325   6.147   0.716  0.5620 -1.0102  0.4315
18876TIP3   OH278118   5.976   4.186   5.034 -0.4947  0.0679  0.3791
18876TIP3    H178119   5.978   4.107   5.088 -0.7858 -0.2661 -0.0924
18876TIP3    H278120   6.064   4.194   4.999 -0.7326 -0.6399 -0.4095
18877TIP3   OH278121   6.723   3.803   0.728  0.5778 -0.3689 -0.1230
18877TIP3    H178122   6.703   3.712   0.750 -0.5380 -0.4165 -1.2158
18877TIP3    H278123   6.777   3.797   0.649 -1.3003 -0.0735 -1.4896
18878TIP3   OH278124   5.231   0.939   3.134  0.5118 -0.2727 -0.5374
18878TIP3    H178125   5.256   0.900   3.050 -0.7803 -1.8876 -0.2283
18878TIP3    H278126   5.158   0.997   3.112  0.0850 -0.7967 -0.5418
18879TIP3   OH278127   4.391   1.565  15.313  0.2893 -0.1566 -0.1677
18879TIP3    H178128   4.381   1.629  15.382 -0.4244  1.2146 -1.4772
18879TIP3    H278129   4.481   1.535  15.319  0.8255  1.4628  0.0856
18880TIP3   OH278130   1.218   5.648  15.862 -0.4580  0.3839  0.4198
18880TIP3    H178131   1.188   5.557  15.862 -0.8915  0.5204 -0.3700
18880TIP3    H278132   1.142   5.699  15.890 -0.6653  0.6275 -0.5349
18881TIP3   OH278133   1.680   3.047   2.298 -0.1023 -0.7393  0.1436
18881TIP3    H178134   1.633   3.010   2.373 -0.7079  0.3803  0.3378
18881TIP3    H278135   1.772   3.040   2.321 -0.2619 -0.9381  0.7395
18882TIP3   OH278136   6.493   4.437  15.163  0.0010 -0.6638 -0.0887
18882TIP3    H178137   6.409   4.481  15.176  0.3067  0.5093 -1.7466
18882TIP3    H278138   6.481   4.388  15.082  1.4353  0.9540 -1.3355
18883TIP3   OH278139   5.193   6.312   0.550 -0.1976  0.0054  0.2457
18883TIP3    H178140   5.238   6.353   0.624 -1.0191  0.9728  0.2184
18883TIP3    H278141   5.106   6.350   0.551 -0.8125 -1.3280 -0.1266
18884TIP3   OH278142   2.468   0.835   6.396 -0.5305  0.2295 -0.4084
18884TIP3    H178143   2.510   0.879   6.470 -1.0764 -0.5215  0.3669
18884TIP3    H278144   2.446   0.905   6.335 -1.7451  1.0837  0.9776
18885TIP3   OH278145   3.597   2.628  13.874  0.1019  0.0856 -0.3332
18885TIP3    H178146   3.665   2.685  13.908 -3.0918  3.6336  0.7669
18885TIP3    H278147   3.552   2.594  13.951 -1.0409  0.0219 -0.9995
18886TIP3   OH278148   5.436   4.362  11.607 -0.4090 -0.6300  0.1396
18886TIP3    H178149   5.393   4.344  11.524  1.5917 -2.4206 -0.5949
18886TIP3    H278150   5.390   4.308  11.671 -1.3900  0.0912  0.0699
18887TIP3   OH278151   4.145   4.827  11.130  0.1630  0.2768  0.2452
18887TIP3    H178152   4.130   4.733  11.133 -1.5586  0.4666 -1.1993
18887TIP3    H278153   4.147   4.853  11.222  2.4216 -1.3654  0.7564
18888TIP3   OH278154   2.159   2.887   5.125  0.3631 -0.6616 -0.1035
18888TIP3    H178155   2.170   2.973   5.166  0.0053  0.2478 -1.8173
18888TIP3    H278156   2.082   2.850   5.166  0.2480  0.0385  0.3256
18889TIP3   OH278157   4.285   5.662  11.273 -0.4857  0.2608  0.2073
18889TIP3    H178158   4.343   5.618  11.335 -1.1162  0.7493  1.1495
18889TIP3    H278159   4.334   5.660  11.190  1.4568  1.7865  1.2214
18890TIP3   OH278160   2.637   5.324  11.436 -0.2085  0.5273  1.0450
18890TIP3    H178161   2.542   5.312  11.437  0.0068 -1.5102  1.2703
18890TIP3    H278162   2.663   5.300  11.347  0.1172  0.9372  1.0292
18891TIP3   OH278163   5.515   0.616   3.177 -0.4399  0.3811  0.2243
18891TIP3    H178164   5.495   0.534   3.132  1.7248 -0.3629  0.4870
18891TIP3    H278165   5.537   0.677   3.107  1.9800 -0.5005  0.1083
18892TIP3   OH278166   6.504   4.085   1.272  0.1014 -0.4812 -0.2363
18892TIP3    H178167   6.513   4.180   1.276  1.3796 -0.6230  2.4291
18892TIP3    H278168   6.409   4.070   1.274 -0.1077  0.7526  0.6352
18893TIP3   OH278169   5.790   3.765  16.121  0.2759  0.4699 -0.6977
18893TIP3    H178170   5.831   3.759  16.207 -0.5293  0.1446 -0.3258
18893TIP3    H278171   5.703   3.726  16.132 -0.4330  1.7927 -1.2734
18894TIP3   OH278172   2.371   3.824  10.606  0.2256 -0.7550  0.0873
18894TIP3    H178173   2.417   3.801  10.526  0.7092 -0.9442  0.4112
18894TIP3    H278174   2.278   3.824  10.582  0.3623 -0.8982 -0.4462
18895TIP3   OH278175   5.946   4.341   0.128  0.0010  0.5129 -0.1619
18895TIP3    H178176   5.902   4.274   0.180  1.4644  0.0549  0.5362
18895TIP3    H278177   5.945   4.306   0.038  0.9660 -0.6085  0.2311
18896TIP3   OH278178   5.606   5.827   0.265 -0.1550 -0.1548 -0.7779
18896TIP3    H178179   5.615   5.887   0.339 -2.3452  1.0149 -1.3603
18896TIP3    H278180   5.646   5.874   0.191 -0.6836  0.0234 -0.9554
18897TIP3   OH278181   5.410   0.646   4.428  0.1214 -0.4135 -0.0985
18897TIP3    H178182   5.469   0.587   4.474  0.0896 -0.5329 -0.2106
18897TIP3    H278183   5.468   0.712   4.389  0.3899 -1.6411 -1.8869
18898TIP3   OH278184   4.290   2.074   5.519  0.0897  0.4960 -0.0050
18898TIP3    H178185   4.353   2.098   5.451  1.5243 -0.9244  0.7411
18898TIP3    H278186   4.312   2.132   5.592 -1.6993  2.2875 -0.7972
18899TIP3   OH278187   4.754   4.858   4.353 -0.1930  0.2819  0.2485
18899TIP3    H178188   4.764   4.894   4.265 -2.0480  1.0460  0.2985
18899TIP3    H278189   4.722   4.931   4.405  1.4105  0.0012  1.7362
18900TIP3   OH278190   3.186   4.021   1.064  0.4227  0.1274 -0.3783
18900TIP3    H178191   3.183   3.952   1.131  0.4760  0.7373  0.2706
18900TIP3    H278192   3.174   4.103   1.113  0.4464  0.5893 -1.1215
18901TIP3   OH278193   6.539   3.960  11.178 -0.4818  0.2105  0.2515
18901TIP3    H178194   6.516   3.958  11.085  2.6017 -1.3327 -0.6180
18901TIP3    H278195   6.463   3.923  11.222 -0.7945 -2.2489 -2.0698
18902TIP3   OH278196   2.802   0.728  13.720  0.0784  0.1788 -0.6671
18902TIP3    H178197   2.845   0.808  13.690 -0.8205  1.1473  0.5015
18902TIP3    H278198   2.840   0.711  13.806  0.0184 -0.4736 -0.7646
18903TIP3   OH278199   1.909   5.549  11.065 -0.6963  0.1653 -0.0586
18903TIP3    H178200   1.942   5.523  11.151 -1.1158 -0.6060 -0.1185
18903TIP3    H278201   1.816   5.524  11.067 -0.1645 -2.2745 -1.6426
18904TIP3   OH278202   0.582   3.952  15.356 -0.1391  0.0525 -0.7170
18904TIP3    H178203   0.670   3.978  15.383 -0.3230  0.7922 -0.8136
18904TIP3    H278204   0.593   3.919  15.267  0.1188 -0.3434 -0.5431
18905TIP3   OH278205   3.113   0.502  16.575 -0.4797 -0.2710 -0.0589
18905TIP3    H178206   3.189   0.478  16.521 -1.4125 -1.7120 -0.7993
18905TIP3    H278207   3.104   0.431  16.638 -0.6685  0.3609  0.6471
18906TIP3   OH278208   2.659   5.969  14.122  0.2511 -0.0719  0.2452
18906TIP3    H178209   2.700   5.942  14.040  1.2022 -0.9949  1.0011
18906TIP3    H278210   2.582   5.913  14.130 -0.1954  0.4561 -0.3205
18907TIP3   OH278211   3.038   5.618  14.592  0.0258  0.1384 -0.4105
18907TIP3    H178212   3.013   5.659  14.509 -2.1595 -0.8995 -0.3154
18907TIP3    H278213   2.991   5.668  14.659 -1.1988 -1.3110 -0.1452
18908TIP3   OH278214   1.560   5.084   0.657  0.2197  0.1058 -0.2834
18908TIP3    H178215   1.470   5.080   0.625 -0.1015 -0.5420  0.6645
18908TIP3    H278216   1.553   5.131   0.740  0.7996  0.2872 -0.3370
18909TIP3   OH278217   5.858   0.091  15.534 -0.0948  1.2044 -0.0550
18909TIP3    H178218   5.808   0.108  15.613 -0.6920  1.7241 -0.5320
18909TIP3    H278219   5.795   0.101  15.463  0.2247 -0.1039 -0.5617
18910TIP3   OH278220   6.455   6.721   2.635  0.5113 -0.0457 -0.6902
18910TIP3    H178221   6.523   6.739   2.700 -0.5511  0.1915  0.3872
18910TIP3    H278222   6.373   6.731   2.682 -0.4838  3.4295 -2.7510
18911TIP3   OH278223   0.941   0.686   4.799 -0.0484 -0.2954  0.1042
18911TIP3    H178224   0.873   0.753   4.794 -0.9043 -1.1513 -0.2430
18911TIP3    H278225   0.950   0.654   4.710  1.2697  0.2186  0.0373
18912TIP3   OH278226   0.933   4.576  11.933 -0.2812  0.3719  0.7653
18912TIP3    H178227   0.983   4.501  11.966 -0.4962 -0.1414 -0.0577
18912TIP3    H278228   0.990   4.652  11.951  2.1234 -0.4248 -2.5420
18913TIP3   OH278229   1.385   1.362  15.896  0.2039 -0.0222 -0.1536
18913TIP3    H178230   1.469   1.401  15.871 -0.4393  0.8711 -1.0262
18913TIP3    H278231   1.376   1.380  15.989  1.1101 -0.4052  0.0193
18914TIP3   OH278232   1.970   0.832   0.330  0.4396  0.1624 -0.2084
18914TIP3    H178233   1.886   0.861   0.295  0.7912  1.8074  0.2215
18914TIP3    H278234   1.947   0.776   0.404 -0.2786  0.1319 -0.4443
18915TIP3   OH278235   4.615   2.817  13.213 -0.1685  0.3352  0.6352
18915TIP3    H178236   4.651   2.906  13.220  0.6394  0.0025  0.9325
18915TIP3    H278237   4.692   2.760  13.223 -0.6135 -0.3890  0.0096
18916TIP3   OH278238   4.801   0.214  14.846  0.0165  0.0460  0.5388
18916TIP3    H178239   4.724   0.158  14.836 -1.4909  2.3751 -2.4387
18916TIP3    H278240   4.779   0.272  14.918 -1.0634  0.6641 -0.2595
18917TIP3   OH278241   6.624   5.717   3.752  0.4548  0.1756 -0.1070
18917TIP3    H178242   6.600   5.642   3.806  0.0423 -0.2972 -0.9272
18917TIP3    H278243   6.552   5.778   3.761  0.9583  0.6568  0.8564
18918TIP3   OH278244   1.363   6.125   2.925  0.4934  0.1503 -0.3749
18918TIP3    H178245   1.314   6.071   2.987 -1.4767 -0.8347 -2.6395
18918TIP3    H278246   1.455   6.106   2.946 -0.0788 -3.2067 -0.2355
18919TIP3   OH278247   4.962   5.497   3.072 -0.2442 -0.2812 -0.4913
18919TIP3    H178248   4.947   5.403   3.070 -1.2412 -0.1230 -2.2004
18919TIP3    H278249   5.003   5.517   2.988  0.3672  0.7587  0.0261
18920TIP3   OH278250   4.673   1.569   5.540 -0.2908  0.1508  0.3833
18920TIP3    H178251   4.653   1.497   5.480 -2.7017  2.1415 -1.4261
18920TIP3    H278252   4.635   1.542   5.624  0.2910 -1.3268  0.2052
18921TIP3   OH278253   1.508   4.213  13.205 -0.1906 -1.1197 -0.7103
18921TIP3    H178254   1.524   4.209  13.111 -1.4849  1.5624 -1.1563
18921TIP3    H278255   1.531   4.302  13.230  0.9016 -1.9944  1.7253
18922TIP3   OH278256   6.168   3.337  16.681  0.7133  0.5031  0.2068
18922TIP3    H178257   6.089   3.335  16.628  0.1663 -0.1962  1.0268
18922TIP3    H278258   6.192   3.429  16.686 -0.6612  0.8362  0.8572
18923TIP3   OH278259   4.078   3.454   0.682  0.1451 -0.2188  0.1995
18923TIP3    H178260   4.155   3.408   0.715  0.7081  0.0740 -0.6699
18923TIP3    H278261   4.054   3.514   0.753  1.2543  0.3160  0.1409
18924TIP3   OH278262   3.828   4.486  10.959 -0.1432 -0.0628 -0.0748
18924TIP3    H178263   3.803   4.461  10.870  0.9535  0.0901 -0.4326
18924TIP3    H278264   3.885   4.562  10.948 -0.2561  0.1618  0.7830
18925TIP3   OH278265   5.426   0.869  13.531  0.2010  0.3309  0.1005
18925TIP3    H178266   5.417   0.861  13.626  0.4808  1.3994  0.2303
18925TIP3    H278267   5.358   0.811  13.496  0.5299 -0.5960  0.9322
18926TIP3   OH278268   4.881   5.528   0.027 -0.1247  0.4911  0.0749
18926TIP3    H178269   4.934   5.473   0.085 -0.7537 -0.8344 -0.5389
18926TIP3    H278270   4.796   5.484   0.024  0.1556 -0.0710 -2.5783
18927TIP3   OH278271   4.472   6.480   1.650  0.0269 -0.1796  0.4617
18927TIP3    H178272   4.408   6.410   1.661 -0.5261  0.4587  1.4668
18927TIP3    H278273   4.470   6.527   1.733  2.1589 -0.4309  0.7274
18928TIP3   OH278274   4.569   4.027   3.703  0.0459 -0.3130  0.2490
18928TIP3    H178275   4.655   4.019   3.661  0.2078  1.5352  0.1320
18928TIP3    H278276   4.522   3.947   3.679  1.6680 -1.2930  0.1911
18929TIP3   OH278277   6.028   5.158  15.953 -0.3598 -0.0649  0.1244
18929TIP3    H178278   5.949   5.107  15.972 -0.0419 -0.2916  0.8672
18929TIP3    H278279   6.085   5.096  15.907 -0.3938 -0.0628  0.0785
18930TIP3   OH278280   4.875   6.294  10.833 -0.4841 -0.2622  0.0502
18930TIP3    H178281   4.840   6.347  10.761 -0.4996  0.0243  0.2674
18930TIP3    H278282   4.916   6.219  10.790  0.2127  0.3145 -0.3022
18931TIP3   OH278283   3.767   0.457  15.506 -0.4764  0.2785  0.2889
18931TIP3    H178284   3.837   0.410  15.461  0.2915  1.2273  0.4649
18931TIP3    H278285   3.712   0.490  15.435 -0.5505 -0.1530  0.1399
18932TIP3   OH278286   3.728   0.819  15.805  0.1104 -0.7283 -0.1242
18932TIP3    H178287   3.655   0.757  15.803  0.2882 -0.9819  0.7271
18932TIP3    H278288   3.804   0.768  15.779 -0.0992 -0.3174 -1.6119
18933TIP3   OH278289   1.169   5.482  16.367 -0.6311 -0.4758  0.0299
18933TIP3    H178290   1.211   5.526  16.441 -1.6742  0.0795  0.3095
18933TIP3    H278291   1.228   5.409  16.346  1.7173  1.5619 -1.1106
18934TIP3   OH278292   1.823   6.209  11.976  0.0174 -0.1013  0.1542
18934TIP3    H178293   1.776   6.194  11.894 -1.7100  2.0902  0.6487
18934TIP3    H278294   1.756   6.243  12.036  1.7349  0.6683  1.7236
18935TIP3   OH278295   6.349   0.456  16.458  0.6964  0.1904  0.5059
18935TIP3    H178296   6.397   0.373  16.452 -1.0222 -0.7764 -0.9976
18935TIP3    H278297   6.285   0.441  16.529 -0.1768 -0.1254 -0.3231
18936TIP3   OH278298   0.790   0.007   1.248  0.5313  0.1182  1.0973
18936TIP3    H178299   0.852   0.051   1.189 -0.3010  1.1102  0.9385
18936TIP3    H278300   0.791   0.060   1.328  1.0494 -0.7627  1.6944
18937TIP3   OH278301   1.036   3.721  13.025 -0.1818  0.1279 -0.4679
18937TIP3    H178302   1.061   3.739  13.116  0.5147  0.9740 -0.8114
18937TIP3    H278303   0.958   3.666  13.032 -0.4906  0.6683  0.6404
18938TIP3   OH278304   2.768   2.046   4.560  0.8526 -0.4913 -0.0947
18938TIP3    H178305   2.748   2.058   4.653  0.3628 -0.3725 -0.2102
18938TIP3    H278306   2.723   2.119   4.517  0.7808 -0.7510 -0.4591
18939TIP3   OH278307   5.075   0.760  12.438  0.3379  0.3601  0.0455
18939TIP3    H178308   5.146   0.695  12.438 -2.0530 -2.6179 -2.7495
18939TIP3    H278309   5.052   0.771  12.346 -3.8127 -0.1544  0.8155
18940TIP3   OH278310   0.453   6.582   5.109  0.0449 -0.0596  0.2826
18940TIP3    H178311   0.445   6.574   5.014 -0.2400 -4.2191  0.4877
18940TIP3    H278312   0.534   6.632   5.121  1.1055 -0.9833 -2.1985
18941TIP3   OH278313   4.913   2.666  15.389  0.2528  0.1129 -0.0304
18941TIP3    H178314   4.895   2.656  15.482  0.6865 -1.2374 -0.0671
18941TIP3    H278315   4.968   2.745  15.383  1.0712 -0.3610  0.9716
18942TIP3   OH278316   1.418   5.622  13.539  0.0415 -0.0150  0.3022
18942TIP3    H178317   1.508   5.608  13.567  0.7857  0.7436 -1.5098
18942TIP3    H278318   1.368   5.631  13.620  1.1478 -2.7492  1.3894
18943TIP3   OH278319   6.237   1.526   0.615  0.2049 -0.0629  0.0967
18943TIP3    H178320   6.245   1.459   0.547  2.0352 -0.3564  0.5394
18943TIP3    H278321   6.235   1.609   0.566 -2.2959 -0.3756 -0.4611
18944TIP3   OH278322   4.558   5.443  13.941  0.4608 -0.1791 -0.2500
18944TIP3    H178323   4.583   5.494  14.017  0.1959  0.4259 -0.5620
18944TIP3    H278324   4.468   5.470  13.923 -0.2840 -1.9611  0.5668
18945TIP3   OH278325   1.068   3.330  14.862 -0.2978 -0.4730  0.2638
18945TIP3    H178326   1.081   3.310  14.769  1.4037 -1.6236  0.7110
18945TIP3    H278327   1.106   3.255  14.908  0.6600  0.9541  1.9091
18946TIP3   OH278328   4.188   2.549   0.317  1.1392 -0.4348 -0.2202
18946TIP3    H178329   4.165   2.486   0.249  0.3657  0.1004 -0.4610
18946TIP3    H278330   4.283   2.541   0.325  0.9147 -2.7150  0.8381
18947TIP3   OH278331   4.229   5.076   5.769  0.4178 -0.0419  0.5711
18947TIP3    H178332   4.320   5.050   5.783  0.6694 -0.0215 -0.8696
18947TIP3    H278333   4.235   5.163   5.730 -0.2764  0.5181  1.6900
18948TIP3   OH278334   1.453   0.364  14.151  0.2209  0.4120  0.4516
18948TIP3    H178335   1.372   0.346  14.104 -0.0656  1.2534  0.5986
18948TIP3    H278336   1.491   0.278  14.168 -0.2417  0.0496 -0.3127
18949TIP3   OH278337   6.461   5.486   5.558 -0.3098 -0.2990  0.6179
18949TIP3    H178338   6.551   5.514   5.573 -0.4052  0.5384 -0.3562
18949TIP3    H278339   6.426   5.472   5.646  1.0670 -1.6500  1.0004
18950TIP3   OH278340   2.374   0.835  10.724  0.5264  0.7479  0.5493
18950TIP3    H178341   2.449   0.800  10.675 -0.5405 -0.7589 -0.1000
18950TIP3    H278342   2.336   0.758  10.766 -0.3517  1.5731  1.2882
18951TIP3   OH278343   2.133   4.218  16.572 -0.3814  0.6204 -0.2645
18951TIP3    H178344   2.054   4.165  16.572 -0.4121  0.6075  1.3662
18951TIP3    H278345   2.118   4.284  16.640  2.1556 -1.2518  2.3771
18952TIP3   OH278346   6.628   1.110   3.338  0.3412 -0.0374 -0.0503
18952TIP3    H178347   6.634   1.044   3.407 -1.6236 -0.1942  0.0127
18952TIP3    H278348   6.542   1.151   3.350  0.8331  1.4053 -1.1003
18953TIP3   OH278349   5.168   4.123   0.504 -0.2313  0.4557 -0.3471
18953TIP3    H178350   5.124   4.205   0.528  1.5224  1.3700 -0.1078
18953TIP3    H278351   5.232   4.109   0.574  0.3997 -0.4168 -1.0774
18954TIP3   OH278352   1.545   1.359   4.813 -0.0956  0.6459 -0.0201
18954TIP3    H178353   1.617   1.363   4.750  0.9881  1.9770  1.2501
18954TIP3    H278354   1.552   1.271   4.851 -0.1003  0.2245 -0.9481
18955TIP3   OH278355   5.291   1.200   4.944 -0.2801 -0.1890 -0.5262
18955TIP3    H178356   5.345   1.215   5.021 -0.8512  0.0766 -0.1691
18955TIP3    H278357   5.353   1.178   4.875  0.1045 -2.7326  0.5188
18956TIP3   OH278358   3.177   3.364   1.963 -0.6031  0.2242 -0.8168
18956TIP3    H178359   3.210   3.433   1.905  1.3604  0.6311  0.6812
18956TIP3    H278360   3.097   3.401   2.001 -1.1905  0.4656 -2.2374
18957TIP3   OH278361   1.231   6.792   3.555  0.1068  0.1801 -0.2732
18957TIP3    H178362   1.243   6.856   3.484 -1.8710  1.5523  0.5656
18957TIP3    H278363   1.149   6.747   3.534 -0.0483 -0.0085  0.6823
18958TIP3   OH278364   3.554   5.119   3.244 -0.7825  0.6162  0.1741
18958TIP3    H178365   3.566   5.059   3.170  0.6465  1.0252  0.0482
18958TIP3    H278366   3.548   5.205   3.203  3.0901  1.2503  0.5801
18959TIP3   OH278367   3.427   2.677  13.186  0.3562 -0.0777  0.2415
18959TIP3    H178368   3.475   2.614  13.240  0.0890  0.1846  0.7842
18959TIP3    H278369   3.360   2.624  13.142 -0.1130 -0.1120  0.9870
18960TIP3   OH278370   0.992   1.928   2.719  0.2999  0.2643 -0.1576
18960TIP3    H178371   0.999   1.959   2.628  0.3896  0.7949  0.0241
18960TIP3    H278372   0.948   2.000   2.765  0.0978 -0.0772  0.1828
18961TIP3   OH278373   6.556   1.171   0.554  0.4235  0.6583  0.4491
18961TIP3    H178374   6.573   1.248   0.499  0.4908  0.9259  0.8390
18961TIP3    H278375   6.463   1.178   0.576  0.4771  0.7382  0.6500
18962TIP3   OH278376   2.031   6.340   0.468 -0.2978  0.1558 -0.0309
18962TIP3    H178377   2.048   6.246   0.471 -2.1099 -0.1952  1.2403
18962TIP3    H278378   2.078   6.371   0.391  1.2553 -1.5821  0.1547
18963TIP3   OH278379   0.991   3.395  15.929 -0.7576 -0.5229 -0.4978
18963TIP3    H178380   0.936   3.323  15.897 -1.3472 -0.4381  0.2918
18963TIP3    H278381   1.074   3.353  15.950 -1.1061 -0.9941 -0.0147
18964TIP3   OH278382   5.986   5.679   0.985  0.1767 -0.2643 -0.3206
18964TIP3    H178383   6.009   5.763   0.945  0.4828  0.0120  0.4235
18964TIP3    H278384   6.063   5.654   1.036  0.0037 -0.8883 -0.3491
18965TIP3   OH278385   5.516   3.813  15.027  0.3260 -0.2169 -0.0776
18965TIP3    H178386   5.471   3.812  14.943 -0.5851  1.0765  0.3568
18965TIP3    H278387   5.606   3.786  15.007 -0.5024 -2.4963 -1.0321
18966TIP3   OH278388   0.122   1.374   6.140 -0.0773  0.2259  0.5451
18966TIP3    H178389   0.087   1.354   6.227  1.9475  0.9563  1.6196
18966TIP3    H278390   0.112   1.292   6.091 -0.7746 -0.3859  1.6524
18967TIP3   OH278391   0.174   4.481   4.469  0.2515 -0.2309  0.3150
18967TIP3    H178392   0.132   4.416   4.525  0.6776  1.2830  2.4855
18967TIP3    H278393   0.137   4.565   4.498  1.2826  0.7117 -0.9755
18968TIP3   OH278394   6.432   6.538   1.898 -0.2020  0.1147 -0.4587
18968TIP3    H178395   6.384   6.455   1.897  3.7098 -2.4628  0.0634
18968TIP3    H278396   6.474   6.543   1.812  0.7264  0.7754  0.0069
18969TIP3   OH278397   2.589   4.622  16.586  0.3511 -0.5320  0.1147
18969TIP3    H178398   2.630   4.697  16.629 -0.2443 -0.4761  0.5998
18969TIP3    H278399   2.495   4.638  16.594  0.2205 -1.2351  0.0589
18970TIP3   OH278400   4.163   3.217   4.119 -0.1517  0.3680  0.4135
18970TIP3    H178401   4.199   3.244   4.035 -0.8841  1.0550  0.3145
18970TIP3    H278402   4.093   3.280   4.137 -2.4573 -1.8356 -0.1998
18971TIP3   OH278403   3.506   3.219   5.901  0.2160 -0.1315  0.5293
18971TIP3    H178404   3.435   3.236   5.839  1.0072 -1.0167 -0.6637
18971TIP3    H278405   3.522   3.304   5.943 -0.1987  0.5463 -0.6321
18972TIP3   OH278406   3.118   5.490  12.703  0.3099 -0.0973 -0.5072
18972TIP3    H178407   3.090   5.572  12.746  1.3863 -0.6196  1.3168
18972TIP3    H278408   3.077   5.421  12.755  1.0323 -0.7572 -0.7918
18973TIP3   OH278409   6.544   4.844  13.586 -0.2696 -0.7515 -0.2336
18973TIP3    H178410   6.468   4.827  13.643 -0.1461 -0.2981  0.0738
18973TIP3    H278411   6.618   4.851  13.646 -0.4809  2.0250 -0.1648
18974TIP3   OH278412   0.274   6.584  14.444 -0.4474 -0.5313  0.2560
18974TIP3    H178413   0.299   6.503  14.489  1.8268  0.0866  0.2155
18974TIP3    H278414   0.271   6.650  14.514 -1.2968 -0.4249  0.1326
18975TIP3   OH278415   1.152   2.885   1.956 -0.1825 -0.1607 -0.2210
18975TIP3    H178416   1.061   2.905   1.934 -0.0713  0.1691 -0.3961
18975TIP3    H278417   1.154   2.790   1.967 -0.3951 -0.2605 -0.9398
18976TIP3   OH278418   6.709   5.256   5.254  0.3735 -0.0702  0.0326
18976TIP3    H178419   6.683   5.197   5.182 -0.4121  1.3080 -0.8533
18976TIP3    H278420   6.627   5.298   5.281  0.9479  0.7582  0.5096
18977TIP3   OH278421   0.703   5.742   0.389 -0.2157  0.8923 -0.4226
18977TIP3    H178422   0.630   5.785   0.344 -0.7208  0.5664  0.0830
18977TIP3    H278423   0.668   5.659   0.420  0.5272  0.4824 -0.6574
18978TIP3   OH278424   2.696   2.484   3.203 -0.3087 -0.0111 -0.1758
18978TIP3    H178425   2.640   2.543   3.253  0.9992  0.5264  0.7024
18978TIP3    H278426   2.639   2.449   3.134 -1.9311 -0.1100  1.1562
18979TIP3   OH278427   5.698   6.013   4.839  0.2739 -0.3366  0.0881
18979TIP3    H178428   5.604   6.029   4.848 -0.3267 -1.8926 -2.5624
18979TIP3    H278429   5.736   6.046   4.921 -2.2419  2.6406  0.2392
18980TIP3   OH278430   3.927   2.068   1.214  0.0272  0.1702  0.2226
18980TIP3    H178431   3.896   2.112   1.135 -1.6229 -0.9583  0.1982
18980TIP3    H278432   3.895   2.122   1.286  0.5490  0.5848  0.1461
18981TIP3   OH278433   2.957   5.544  11.368 -0.1069  0.3468  0.7535
18981TIP3    H178434   2.924   5.502  11.289  2.5612 -0.4472 -0.0536
18981TIP3    H278435   2.999   5.624  11.337 -0.0529  0.6308  1.5398
18982TIP3   OH278436   0.762   2.369  10.443 -0.0640  0.0531  0.0629
18982TIP3    H178437   0.767   2.311  10.519 -2.9159 -0.0641  0.2462
18982TIP3    H278438   0.766   2.310  10.368 -1.5272 -0.3038  0.2314
18983TIP3   OH278439   4.071   4.381   1.249 -0.8027 -0.3190  0.1180
18983TIP3    H178440   4.064   4.420   1.162  0.4728 -1.7706 -0.6785
18983TIP3    H278441   4.058   4.455   1.309 -1.8868  0.6849 -1.2697
18984TIP3   OH278442   2.532   4.271   0.383 -0.7464  0.3223  0.7043
18984TIP3    H178443   2.606   4.277   0.323 -0.5965  1.3108  0.9684
18984TIP3    H278444   2.512   4.178   0.387  0.0031  0.1218  0.0475
18985TIP3   OH278445   6.682   6.052  14.887 -0.4653 -0.3062  0.3547
18985TIP3    H178446   6.739   5.985  14.848  1.7566 -0.5763  3.6764
18985TIP3    H278447   6.677   6.121  14.821  2.5567 -0.9380 -0.6690
18986TIP3   OH278448   1.469   3.084  16.480 -1.1831 -0.6239  0.4476
18986TIP3    H178449   1.409   3.154  16.455 -1.1824 -0.6477  0.3777
18986TIP3    H278450   1.543   3.129  16.520 -0.8290 -0.5207 -0.2944
18987TIP3   OH278451   5.668   4.917  14.766 -0.9589 -0.0419  0.1988
18987TIP3    H178452   5.696   5.004  14.793  1.1430 -0.1348 -1.4007
18987TIP3    H278453   5.747   4.863  14.772 -1.4268 -1.0614 -1.8030
18988TIP3   OH278454   5.815   6.740   0.302  0.2284  0.5367  0.3571
18988TIP3    H178455   5.845   6.760   0.213  2.1025 -0.2865  0.7576
18988TIP3    H278456   5.820   6.823   0.348 -0.1295  0.8378 -0.1359
18989TIP3   OH278457   2.818   2.158   4.861 -0.1484  0.2928  0.2323
18989TIP3    H178458   2.724   2.139   4.867 -0.1823  0.5942  0.7129
18989TIP3    H278459   2.860   2.074   4.883 -0.3026  0.1684  0.0575
18990TIP3   OH278460   2.900   5.973   2.753  0.0482  0.1373  0.6125
18990TIP3    H178461   2.994   5.985   2.762  0.5387  0.1605 -3.0438
18990TIP3    H278462   2.890   5.888   2.711 -1.6396 -0.0908  1.3602
18991TIP3   OH278463   5.158   2.482   2.080  0.4994  0.4686  0.7745
18991TIP3    H178464   5.212   2.554   2.112  0.8468  0.5608 -0.0222
18991TIP3    H278465   5.089   2.473   2.146  0.2784  1.7316  0.7301
18992TIP3   OH278466   3.853   0.115   3.728 -0.2655 -0.3032 -0.4702
18992TIP3    H178467   3.919   0.166   3.682 -1.0536 -0.9888 -2.5019
18992TIP3    H278468   3.816   0.175   3.793  1.7097  0.3461  0.1063
18993TIP3   OH278469   2.417   1.388   6.203 -0.3741 -0.5058 -0.0047
18993TIP3    H178470   2.332   1.430   6.206 -0.6669 -1.0726 -0.2307
18993TIP3    H278471   2.432   1.371   6.110  0.0469 -0.2894  0.0189
18994TIP3   OH278472   4.117   2.793   1.504  0.8562  0.0988 -0.0515
18994TIP3    H178473   4.096   2.700   1.500 -2.8485  0.6859  1.4845
18994TIP3    H278474   4.074   2.831   1.428 -0.8132  0.9276  1.2398
18995TIP3   OH278475   2.607   3.743  11.746 -0.2047 -0.7147  0.0342
18995TIP3    H178476   2.682   3.713  11.797 -0.5582  1.7046  2.2011
18995TIP3    H278477   2.531   3.709  11.793 -0.5274 -0.8664 -0.5812
18996TIP3   OH278478   4.407   2.422  11.695 -0.5898  0.0723  0.7119
18996TIP3    H178479   4.491   2.465  11.682 -0.2182 -0.4287  1.3840
18996TIP3    H278480   4.375   2.406  11.607 -0.3945  1.0481  0.4474
18997TIP3   OH278481   5.009   3.176   1.961  0.0713 -0.4730  0.1260
18997TIP3    H178482   5.065   3.142   2.031 -0.0190  0.8386  0.8699
18997TIP3    H278483   4.976   3.098   1.917  2.0588 -1.2870 -0.0164
18998TIP3   OH278484   4.204   4.886   2.000 -0.7066  0.0264  0.7120
18998TIP3    H178485   4.122   4.837   2.006 -0.8567  0.0442 -0.7986
18998TIP3    H278486   4.180   4.977   2.017 -0.9923  0.0078  0.4208
18999TIP3   OH278487   4.893   2.608   3.037 -0.0559 -0.5369  0.7407
18999TIP3    H178488   4.867   2.572   3.122 -0.4066  0.0415  0.8813
18999TIP3    H278489   4.889   2.533   2.977 -0.5324 -0.7911  1.0805
19000TIP3   OH278490   2.251   1.871  10.924  0.0968 -0.4838  0.4866
19000TIP3    H178491   2.217   1.785  10.948  0.1137 -0.1435  1.7606
19000TIP3    H278492   2.305   1.854  10.846 -1.8147 -1.2368 -0.7445
19001TIP3   OH278493   1.426   2.584  13.592 -0.2226 -0.2848 -0.6199
19001TIP3    H178494   1.339   2.613  13.565  0.6674  0.7159 -2.6928
19001TIP3    H278495   1.479   2.664  13.592  0.8394 -0.9624 -0.0118
19002TIP3   OH278496   2.451   1.825  12.788 -0.2728  0.4331  0.2269
19002TIP3    H178497   2.516   1.851  12.853  0.4393  0.7246 -0.5803
19002TIP3    H278498   2.423   1.738  12.815 -2.1775  1.6604  2.5917
19003TIP3   OH278499   6.421   3.688   5.363  0.3080 -0.2715 -0.7596
19003TIP3    H178500   6.489   3.717   5.302  0.0322  1.5292 -0.2693
19003TIP3    H278501   6.463   3.693   5.449  0.3239 -1.6637 -0.6508
19004TIP3   OH278502   4.688   2.851  11.184 -0.6735 -0.2822  0.1306
19004TIP3    H178503   4.736   2.912  11.127 -0.8562 -0.6884 -0.4641
19004TIP3    H278504   4.622   2.905  11.227 -0.9074 -0.0698 -0.4784
19005TIP3   OH278505   0.458   1.418   0.215 -0.0364 -0.3326  0.6456
19005TIP3    H178506   0.514   1.356   0.261  2.8145  1.4301 -0.1521
19005TIP3    H278507   0.514   1.456   0.147 -2.3069  1.4228 -0.4243
19006TIP3   OH278508   1.542   0.194  16.407  0.1171  0.0200 -0.4207
19006TIP3    H178509   1.625   0.232  16.436 -0.0117 -1.3382  1.9980
19006TIP3    H278510   1.562   0.101  16.395 -1.0070 -0.3172  0.1623
19007TIP3   OH278511   2.973   3.355  16.480 -0.0934  0.1023  0.3517
19007TIP3    H178512   3.011   3.443  16.485  3.3133 -1.0796 -1.2381
19007TIP3    H278513   2.957   3.341  16.387  0.1186 -1.2162  0.5016
19008TIP3   OH278514   0.853   3.861   0.763 -0.1482 -0.3188  0.4968
19008TIP3    H178515   0.824   3.842   0.673  0.2142 -1.4750  0.6024
19008TIP3    H278516   0.788   3.923   0.796  0.5362  1.3174 -1.0345
19009TIP3   OH278517   0.070   5.247   0.331  0.3109 -0.4391  0.7746
19009TIP3    H178518   0.067   5.218   0.422 -3.0376 -0.8014  0.6640
19009TIP3    H278519  -0.021   5.265   0.308  0.9596 -0.8650 -2.6842
19010TIP3   OH278520   3.898   3.338  15.715  0.0871  0.0953  0.3958
19010TIP3    H178521   3.915   3.391  15.637 -0.9042 -0.6584 -0.3759
19010TIP3    H278522   3.984   3.309  15.743  0.4399 -0.0202 -0.7390
19011TIP3   OH278523   5.912   0.253   5.909  0.0185 -0.1986 -0.1114
19011TIP3    H178524   5.934   0.167   5.946 -0.4158  0.6180  2.2121
19011TIP3    H278525   5.971   0.314   5.953 -0.6309  0.8838 -0.6878
19012TIP3   OH278526   6.647   2.622  14.133  0.0363  0.0886  0.1630
19012TIP3    H178527   6.692   2.705  14.148 -0.2743  0.2280  0.3275
19012TIP3    H278528   6.562   2.633  14.175 -0.5994  0.2422 -1.1076
19013TIP3   OH278529   5.823   3.861   2.921 -0.2924 -0.3818 -0.6578
19013TIP3    H178530   5.879   3.882   2.996 -0.2797 -1.9170 -0.2045
19013TIP3    H278531   5.879   3.875   2.845 -0.3531  1.3605 -0.4288
19014TIP3   OH278532   4.126   6.057   5.485  0.1097  0.0421 -0.2125
19014TIP3    H178533   4.078   6.092   5.410  0.2170  3.2708  1.0630
19014TIP3    H278534   4.195   6.004   5.447  0.5810  2.1199 -2.5048
19015TIP3   OH278535   2.901   0.743  13.069 -0.5899  0.8255 -0.3056
19015TIP3    H178536   2.974   0.706  13.119  0.3479 -0.9069 -2.7743
19015TIP3    H278537   2.923   0.835  13.060  0.2084  0.7608  0.7684
19016TIP3   OH278538   1.242   2.870  15.910  0.4790  0.6462  0.0929
19016TIP3    H178539   1.308   2.917  15.962 -0.6979 -0.0538  2.3516
19016TIP3    H278540   1.166   2.928  15.911 -0.5759 -0.6802  1.8594
19017TIP3   OH278541   1.990   6.074  13.055 -0.2690 -0.4013 -0.1500
19017TIP3    H178542   1.913   6.022  13.077  0.2280 -0.7563  0.7854
19017TIP3    H278543   2.064   6.026  13.092  0.2219  0.8695  0.5810
19018TIP3   OH278544   3.280   2.318  15.668  0.3609 -0.2816  0.6701
19018TIP3    H178545   3.192   2.333  15.632  0.3689  1.1717  1.1839
19018TIP3    H278546   3.334   2.386  15.629  1.4383 -1.5430 -0.1231
19019TIP3   OH278547   1.594   0.041   5.125  0.2052 -0.0184 -0.5535
19019TIP3    H178548   1.533  -0.031   5.115  0.3684 -0.1549 -0.5647
19019TIP3    H278549   1.631   0.030   5.212 -0.2827  0.4489 -0.2834
19020TIP3   OH278550   1.952   0.636   1.944 -0.3554  0.2267  0.4172
19020TIP3    H178551   2.028   0.628   1.886 -0.7920 -2.4345  0.0681
19020TIP3    H278552   1.981   0.695   2.013  0.5538  2.7073 -1.8767
19021TIP3   OH278553   3.356   1.945   3.560  0.0865 -0.3224  0.2180
19021TIP3    H178554   3.392   1.946   3.471  0.3693 -0.0976  0.3303
19021TIP3    H278555   3.261   1.950   3.548  0.1804  3.2321 -0.0386
19022TIP3   OH278556   2.174   3.617   4.300 -0.3623 -0.6680  0.0724
19022TIP3    H178557   2.222   3.683   4.250 -0.6187  0.4858  1.2928
19022TIP3    H278558   2.210   3.623   4.388  2.2343 -4.7374 -0.4641
19023TIP3   OH278559   2.253   0.294   1.861 -0.2235  0.5051 -0.1737
19023TIP3    H178560   2.182   0.294   1.926 -0.3209  0.8419 -0.2756
19023TIP3    H278561   2.333   0.285   1.912 -0.3657 -0.3781 -0.0924
19024TIP3   OH278562   0.559   0.577  15.275 -1.2959  0.0657  0.0573
19024TIP3    H178563   0.596   0.638  15.211 -0.5360  0.6744  1.0480
19024TIP3    H278564   0.554   0.494  15.229 -2.2916  0.8323 -1.3135
19025TIP3   OH278565   3.526   3.929  14.190  0.8151  0.3748  0.3034
19025TIP3    H178566   3.595   3.954  14.128  0.4702  2.1439  0.5814
19025TIP3    H278567   3.445   3.943  14.142  0.5908 -0.0859  0.5436
19026TIP3   OH278568   2.262   4.514   1.212 -0.5163  0.4338  0.1463
19026TIP3    H178569   2.356   4.496   1.207 -0.5391 -0.2380  1.5781
19026TIP3    H278570   2.224   4.434   1.249 -2.0045 -0.1945 -2.4831
19027TIP3   OH278571   1.335   5.864  16.744 -0.0341 -0.6293  0.0822
19027TIP3    H178572   1.412   5.900  16.786  0.5629 -0.9039 -0.7555
19027TIP3    H278573   1.304   5.796  16.804  0.7561 -0.9666  0.1163
19028TIP3   OH278574   4.546   6.196   2.365  0.5647  0.8847 -0.2865
19028TIP3    H178575   4.486   6.260   2.327 -0.3494  1.1966  1.5990
19028TIP3    H278576   4.520   6.189   2.457  1.4012 -1.3149 -0.1459
19029TIP3   OH278577   1.146   6.140   4.357  0.0628 -0.2659  0.4489
19029TIP3    H178578   1.158   6.124   4.451 -1.6237 -0.2330  0.6948
19029TIP3    H278579   1.173   6.231   4.344 -0.5206 -0.0007  1.0686
19030TIP3   OH278580   6.208   2.692  13.304  0.6013  0.0788 -0.0255
19030TIP3    H178581   6.115   2.715  13.300  0.4483 -0.3669  0.8293
19030TIP3    H278582   6.222   2.664  13.394  1.5477  0.0404 -0.1746
19031TIP3   OH278583   5.004   4.123  16.560  0.1693  0.2823  0.3905
19031TIP3    H178584   5.025   4.180  16.486 -0.3155  1.6334  1.2510
19031TIP3    H278585   5.032   4.173  16.637  0.2313 -0.8894  1.1463
19032TIP3   OH278586   2.072   5.791   4.423  0.0508 -0.0694 -0.6681
19032TIP3    H178587   2.000   5.738   4.388  0.4098 -1.2460  0.3275
19032TIP3    H278588   2.103   5.743   4.499  1.4605  0.7630 -0.6786
19033TIP3   OH278589   5.175   5.347  13.678 -0.1511  0.3186 -0.1956
19033TIP3    H178590   5.221   5.347  13.594 -0.4892  0.7409 -0.3850
19033TIP3    H278591   5.089   5.384  13.658  0.2293  1.6921  0.5752
19034TIP3   OH278592   4.666   2.076   3.834  0.1409  0.4604 -0.4634
19034TIP3    H178593   4.761   2.085   3.846  0.0644  1.6816 -0.5902
19034TIP3    H278594   4.650   2.118   3.749 -0.1690 -2.1569 -1.7764
19035TIP3   OH278595   0.225   1.407   4.585  0.6063  0.7531  0.2779
19035TIP3    H178596   0.294   1.341   4.597  0.0867  0.0422 -0.5135
19035TIP3    H278597   0.193   1.392   4.496 -0.5243  1.1039  0.6087
19036TIP3   OH278598   5.060   2.712  12.540 -0.5328  0.3350  0.2663
19036TIP3    H178599   5.032   2.711  12.448  0.7658  1.1922 -0.1575
19036TIP3    H278600   4.992   2.762  12.585 -1.1375 -0.0156 -0.2284
19037TIP3   OH278601   3.701   5.095   2.333 -0.2011 -0.5730  0.3790
19037TIP3    H178602   3.787   5.135   2.344 -0.5057  0.2756 -0.2751
19037TIP3    H278603   3.640   5.168   2.337 -0.7433 -0.9099 -1.1083
19038TIP3   OH278604   4.301   3.987   0.007  0.0348 -0.0678  0.1883
19038TIP3    H178605   4.332   3.944  -0.073  0.4651  0.2696  0.1689
19038TIP3    H278606   4.346   3.941   0.078  0.4598  0.3111  0.1701
19039TIP3   OH278607   5.433   4.188  14.225 -0.3888 -0.6334 -0.1291
19039TIP3    H178608   5.497   4.184  14.295  0.0287 -1.2776 -0.5423
19039TIP3    H278609   5.484   4.185  14.144 -0.8979 -0.4655 -0.4685
19040TIP3   OH278610   1.971   5.498   4.917  0.0058 -0.5777  0.1549
19040TIP3    H178611   1.884   5.505   4.876 -1.2651 -2.0717  2.3743
19040TIP3    H278612   2.000   5.410   4.894  1.1347  0.0169 -0.8170
19041TIP3   OH278613   6.343   4.672  16.676  0.1243 -0.2436  0.3718
19041TIP3    H178614   6.358   4.581  16.650  0.7702 -0.3804  1.1842
19041TIP3    H278615   6.316   4.667  16.767 -0.4082  0.3497  0.2532
19042TIP3   OH278616   6.815   6.289   0.161 -0.1272 -0.0340  0.9385
19042TIP3    H178617   6.883   6.356   0.169  0.5188 -0.7197  1.2325
19042TIP3    H278618   6.848   6.230   0.094 -1.3623  0.7092 -0.3829
19043TIP3   OH278619   1.041   3.441   2.659  0.3380 -0.1489  0.2846
19043TIP3    H178620   1.063   3.483   2.742  2.8985 -1.8992  0.6311
19043TIP3    H278621   0.947   3.423   2.665  0.1816  1.0443  2.1834
19044TIP3   OH278622   0.711   4.173  13.712 -0.2255 -0.0841  0.7685
19044TIP3    H178623   0.702   4.183  13.807 -0.3141  0.0518  0.7442
19044TIP3    H278624   0.631   4.128  13.685 -0.1946 -0.1337  0.7592
19045TIP3   OH278625   3.560   3.592   4.442 -0.2560  0.2588  0.6645
19045TIP3    H178626   3.522   3.680   4.444  0.3135  0.5027  1.8826
19045TIP3    H278627   3.618   3.589   4.518  2.0206 -0.1641 -0.9635
19046TIP3   OH278628   6.383   0.885  13.592  0.1063  0.1740 -0.1762
19046TIP3    H178629   6.462   0.852  13.549 -1.0550 -2.4279 -0.5159
19046TIP3    H278630   6.313   0.828  13.560 -1.5421  0.9511  1.8048
19047TIP3   OH278631   1.206   0.700  15.001  0.2564 -0.0436 -0.3058
19047TIP3    H178632   1.283   0.699  14.944  2.8336  2.5586  2.7235
19047TIP3    H278633   1.214   0.620  15.053  1.9392  0.9330  1.0422
19048TIP3   OH278634   6.427   3.272  16.794  0.1195 -0.1928  0.0559
19048TIP3    H178635   6.453   3.273  16.886 -0.7579  2.9400  0.3873
19048TIP3    H278636   6.345   3.321  16.791 -1.0941 -2.1782 -2.1414
19049TIP3   OH278637   1.418   4.441   3.082  0.1253  0.0354 -0.2992
19049TIP3    H178638   1.415   4.361   3.135  1.5251  0.3239  0.2522
19049TIP3    H278639   1.337   4.438   3.031  0.2990 -1.9094 -0.5581
19050TIP3   OH278640   0.506   2.476  16.270 -0.2731  0.1053  0.0780
19050TIP3    H178641   0.457   2.430  16.202  0.6352  1.0175 -1.2233
19050TIP3    H278642   0.598   2.470  16.242  0.1117  0.5786  1.1782
19051TIP3   OH278643   2.856   1.430  14.998 -0.3481  0.1246 -0.7046
19051TIP3    H178644   2.815   1.369  14.937  1.3990 -1.3485 -0.5007
19051TIP3    H278645   2.935   1.385  15.028  0.0062  1.7118  0.9639
19052TIP3   OH278646   0.639   4.748  15.289 -0.7489 -0.7887  0.3122
19052TIP3    H178647   0.734   4.736  15.287  0.0947  3.8038  1.0485
19052TIP3    H278648   0.616   4.774  15.200 -0.4713  1.9405  0.9499
19053TIP3   OH278649   0.731   0.864   0.703 -0.4337  0.1900  0.0081
19053TIP3    H178650   0.800   0.861   0.769 -0.2297  1.6208 -0.1083
19053TIP3    H278651   0.772   0.904   0.627 -2.1257  4.3546  1.0102
19054TIP3   OH278652   3.588   2.057  12.872 -0.2979  0.5514  0.2802
19054TIP3    H178653   3.505   2.094  12.841 -0.2463  0.1853 -0.3164
19054TIP3    H278654   3.655   2.103  12.821 -0.2590 -0.7086 -0.8600
19055TIP3   OH278655   1.475   0.272  12.802 -0.4488  0.3685  0.0262
19055TIP3    H178656   1.542   0.294  12.738 -0.1311  0.1240  0.2695
19055TIP3    H278657   1.392   0.281  12.755 -0.2457  0.7021 -0.2649
19056TIP3   OH278658   0.334   1.067   4.133  0.0059 -0.5261 -0.7682
19056TIP3    H178659   0.360   1.034   4.219  1.6491 -1.2371 -1.4735
19056TIP3    H278660   0.406   1.125   4.107 -0.6320 -0.0475 -1.5174
19057TIP3   OH278661   0.275   2.748   1.074  0.0762  0.1667  0.3254
19057TIP3    H178662   0.253   2.823   1.019  1.3421  0.2731 -0.0471
19057TIP3    H278663   0.352   2.709   1.034 -0.2458 -1.0369  0.8154
19058TIP3   OH278664   1.082   1.251   3.016 -0.2522  0.0290 -0.0610
19058TIP3    H178665   1.167   1.217   3.042 -0.0766  0.0672 -0.5710
19058TIP3    H278666   1.084   1.343   3.042  0.0350  0.1410 -0.4637
19059TIP3   OH278667   0.332   0.798   1.623 -0.3970  0.0529  0.4462
19059TIP3    H178668   0.425   0.779   1.606 -0.5950 -0.6331  0.1086
19059TIP3    H278669   0.332   0.889   1.653  0.3232  0.2444 -0.0952
19060TIP3   OH278670   1.819   6.589  16.092 -0.2509  0.2272 -0.5610
19060TIP3    H178671   1.809   6.568  16.185 -2.6730 -0.3749 -0.9024
19060TIP3    H278672   1.906   6.557  16.070 -0.0178 -0.5262  1.2526
19061TIP3   OH278673   1.324   5.853  12.049 -0.2700 -0.0824 -0.1006
19061TIP3    H178674   1.240   5.833  12.091 -0.8479  0.6785 -0.8521
19061TIP3    H278675   1.334   5.947  12.061 -0.4838  0.1642 -1.6937
19062TIP3   OH278676   0.682   2.097  13.607 -0.0360 -0.0317  0.3622
19062TIP3    H178677   0.601   2.047  13.618  0.9389 -1.6705  0.2707
19062TIP3    H278678   0.692   2.106  13.512 -1.4185  2.4552  0.3619
19063TIP3   OH278679   3.800   5.556   2.024  0.0158  0.5425  0.2848
19063TIP3    H178680   3.752   5.633   1.994 -0.7527  0.4670  1.2631
19063TIP3    H278681   3.735   5.505   2.072  0.6984 -0.3533  0.2843
19064TIP3   OH278682   5.740   2.202  13.313  0.3295 -0.0898 -0.0431
19064TIP3    H178683   5.781   2.128  13.269  2.2682 -0.0243  1.5409
19064TIP3    H278684   5.714   2.261  13.242 -0.7850 -1.9948 -1.3048
19065TIP3   OH278685   5.360   5.317   0.879 -0.4360 -0.2930  0.0358
19065TIP3    H178686   5.410   5.307   0.799 -0.3532  0.0764  0.0411
19065TIP3    H278687   5.415   5.370   0.936 -0.1680 -1.1968  0.6260
19066TIP3   OH278688   4.491   4.520   4.965 -0.1396 -0.5438  0.2816
19066TIP3    H178689   4.486   4.504   5.059  0.3178  0.8532  0.5686
19066TIP3    H278690   4.559   4.586   4.955  0.2389 -1.0992 -1.1001
19067TIP3   OH278691   2.161   6.821  16.167  0.2467  0.4519  0.0540
19067TIP3    H178692   2.070   6.815  16.196 -0.2039  1.0251 -1.1470
19067TIP3    H278693   2.213   6.805  16.246 -0.8790  3.5159  1.5922
19068TIP3   OH278694   0.588   4.736  16.858 -0.1751 -0.4706 -0.0369
19068TIP3    H178695   0.568   4.642  16.860  3.1732 -1.2934  0.3507
19068TIP3    H278696   0.635   4.749  16.775  1.1504  0.4056  0.8138
19069TIP3   OH278697   1.808   1.393   2.092  0.5888 -0.1780  0.5538
19069TIP3    H178698   1.769   1.336   2.025 -0.2578  0.7818  0.2065
19069TIP3    H278699   1.811   1.338   2.171 -0.5196 -0.6195  0.3142
19070TIP3   OH278700   1.102   3.664   5.492 -0.4034  0.2824  0.6144
19070TIP3    H178701   1.065   3.746   5.526  0.6489  0.2745  1.8839
19070TIP3    H278702   1.190   3.660   5.530  0.0625 -0.7857 -0.5090
19071TIP3   OH278703   6.135   0.126   5.004  0.7175 -0.0852  0.4865
19071TIP3    H178704   6.069   0.072   5.047  1.0548  0.8201  2.2087
19071TIP3    H278705   6.217   0.105   5.049  1.5889 -0.9567 -1.4009
19072TIP3   OH278706   3.448   0.355  12.727  0.0769 -0.5420  0.6170
19072TIP3    H178707   3.535   0.354  12.686 -0.5315 -1.6541 -0.7189
19072TIP3    H278708   3.413   0.441  12.703  0.3259 -0.5835  0.0615
19073TIP3   OH278709   6.207   1.591   4.225  0.0604  0.5433  0.2709
19073TIP3    H178710   6.289   1.627   4.192  0.4222  0.1243  0.7044
19073TIP3    H278711   6.219   1.585   4.320 -0.1621 -0.2850  0.2554
19074TIP3   OH278712   3.697   1.415   3.503  0.2259 -0.3866 -0.1667
19074TIP3    H178713   3.747   1.407   3.584  0.0648 -0.3998 -0.0669
19074TIP3    H278714   3.611   1.447   3.531  0.7643  1.4815 -0.5350
19075TIP3   OH278715   0.062   2.977  14.013 -0.0662 -0.2037 -0.0919
19075TIP3    H178716   0.050   2.910  14.080  1.2810  1.9299  2.4983
19075TIP3    H278717   0.123   2.937  13.950  1.1277 -1.2814  1.6417
19076TIP3   OH278718   1.955   3.341   0.421 -0.3598  0.4366  0.3598
19076TIP3    H178719   1.999   3.275   0.366 -2.6213 -0.7761 -0.1212
19076TIP3    H278720   1.965   3.308   0.511 -0.9823 -0.3010  0.1705
19077TIP3   OH278721   2.329   3.188   4.735  0.4037 -0.3747 -0.1319
19077TIP3    H178722   2.234   3.199   4.744  0.3214 -1.2399  0.2613
19077TIP3    H278723   2.364   3.217   4.819  0.6421  1.3040 -0.7789
19078TIP3   OH278724   3.762   5.499   4.885  0.1449  0.2542  0.2599
19078TIP3    H178725   3.747   5.587   4.920 -2.4057  0.0476 -0.1655
19078TIP3    H278726   3.691   5.446   4.921 -0.8653 -0.6392 -2.7819
19079TIP3   OH278727   6.043   3.042   4.888  0.1390 -0.3127  0.1564
19079TIP3    H178728   6.028   3.083   4.973  0.4183  1.8382 -0.7729
19079TIP3    H278729   5.983   3.087   4.829  1.5110 -0.2034 -1.2018
19080TIP3   OH278730   6.469   0.453   4.207  0.0820 -0.4254  0.6060
19080TIP3    H178731   6.464   0.429   4.300  0.5079  2.4478  1.4506
19080TIP3    H278732   6.462   0.548   4.206  3.3696 -0.0233 -2.0207
19081TIP3   OH278733   0.438   2.321   3.664  0.1326  0.1254 -0.1902
19081TIP3    H178734   0.444   2.410   3.629 -3.1951  0.4299 -0.2297
19081TIP3    H278735   0.500   2.320   3.737  0.5246  2.3368 -0.4185
19082TIP3   OH278736   2.297   2.591   4.992  0.3733 -0.1664 -0.2039
19082TIP3    H178737   2.361   2.652   5.029  0.1907 -0.8308  1.3033
19082TIP3    H278738   2.237   2.646   4.941 -0.7470  1.2345  2.4089
19083TIP3   OH278739   5.480   5.132  13.009  0.0167  0.6390  0.0225
19083TIP3    H178740   5.445   5.195  12.946  0.3753 -0.9631 -1.8807
19083TIP3    H278741   5.495   5.053  12.957 -0.2094 -0.9516  2.2570
19084TIP3   OH278742   4.991   1.045  10.505 -0.0862  0.1091 -0.1434
19084TIP3    H178743   4.948   1.103  10.567 -1.9603 -1.0802 -0.2451
19084TIP3    H278744   4.964   0.957  10.531  2.3873 -0.7471 -0.1946
19085TIP3   OH278745   2.120   5.346  15.303 -0.0399  0.1084  0.0832
19085TIP3    H178746   2.137   5.306  15.217 -0.3740  0.7160 -0.2719
19085TIP3    H278747   2.206   5.378  15.331 -0.0271  0.4261 -0.2984
19086TIP3   OH278748   1.204   0.938  12.493  0.0097 -0.2680  0.6387
19086TIP3    H178749   1.258   0.860  12.502  0.7537  0.2491  0.7680
19086TIP3    H278750   1.187   0.966  12.583 -0.7809 -0.6297  0.6078
19087TIP3   OH278751   2.875   3.990  15.731  0.2885  0.1070 -0.0198
19087TIP3    H178752   2.835   3.912  15.692 -2.6569  0.7129  1.4547
19087TIP3    H278753   2.930   3.956  15.801  0.3960 -0.7092 -0.4865
19088TIP3   OH278754   3.598   4.289  16.810 -0.3090 -0.0378  0.3560
19088TIP3    H178755   3.577   4.268  16.901  0.6313 -0.5450  0.4595
19088TIP3    H278756   3.545   4.367  16.791  0.7336  1.1019  1.8702
19089TIP3   OH278757   2.462   6.640  16.897 -0.3234 -0.2924 -0.2769
19089TIP3    H178758   2.521   6.570  16.926  0.1734  0.0876 -0.3541
19089TIP3    H278759   2.467   6.705  16.967  0.5881  0.4615 -1.0072
19090TIP3   OH278760   4.881   6.685   4.317  0.1462 -0.8218 -0.2962
19090TIP3    H178761   4.792   6.651   4.329  0.2091 -0.5850  0.9937
19090TIP3    H278762   4.937   6.620   4.359  0.6422 -1.1945 -1.4909
19091TIP3   OH278763   5.386   0.435  11.972 -0.3610  0.0933  0.0098
19091TIP3    H178764   5.459   0.494  11.990 -0.8792  0.6536  0.3012
19091TIP3    H278765   5.315   0.493  11.942 -0.7415 -0.4248 -0.1095
19092TIP3   OH278766   0.170   4.468   3.886 -0.0099  0.2434 -0.1477
19092TIP3    H178767   0.078   4.462   3.913  0.2396  0.0634  0.6868
19092TIP3    H278768   0.176   4.552   3.841 -0.1580  1.1575  1.4918
19093TIP3   OH278769   2.411   2.360  16.756 -0.3882 -1.0107 -0.2757
19093TIP3    H178770   2.435   2.268  16.741  1.2832 -0.7293  0.4582
19093TIP3    H278771   2.461   2.408  16.690 -0.3516 -0.5320  0.0990
19094TIP3   OH278772   4.114   3.817  11.459  0.2426  0.8939 -0.1807
19094TIP3    H178773   4.133   3.864  11.540  0.8817 -1.1660  0.9182
19094TIP3    H278774   4.177   3.746  11.456 -1.7983 -1.0150 -0.8333
19095TIP3   OH278775   0.527   5.035   0.717  0.2463 -0.0590  0.0099
19095TIP3    H178776   0.505   4.991   0.800 -0.8977  1.3462  0.4836
19095TIP3    H278777   0.546   4.963   0.657  0.2748 -1.1422  1.2567
19096TIP3   OH278778   0.282   4.180   0.874 -0.2192  0.4727 -0.0510
19096TIP3    H178779   0.188   4.185   0.862 -0.3396  1.9016  1.2330
19096TIP3    H278780   0.306   4.263   0.914  1.5357 -0.0214  0.0211
19097TIP3   OH278781   1.079   4.347   3.909 -0.5373  0.2602  0.2849
19097TIP3    H178782   1.005   4.313   3.858  0.6538 -2.1897  0.0542
19097TIP3    H278783   1.092   4.436   3.875 -1.9113 -0.0826 -1.2959
19098TIP3   OH278784   4.409   6.685   2.016  0.2909 -0.3241  0.0246
19098TIP3    H178785   4.398   6.739   2.095 -0.5830 -0.4104 -0.0205
19098TIP3    H278786   4.336   6.711   1.960  0.9757 -0.1860 -0.8075
19099TIP3   OH278787   5.034   2.967  13.355 -0.3398  0.1200 -0.1294
19099TIP3    H178788   4.952   3.004  13.323 -0.1814  0.6784  0.0889
19099TIP3    H278789   5.015   2.941  13.445 -0.4652 -0.3852 -0.2988
19100TIP3   OH278790   2.822   4.142   6.554  0.2027  1.1177  0.1709
19100TIP3    H178791   2.891   4.140   6.488  1.7183 -1.1267  1.6745
19100TIP3    H278792   2.789   4.052   6.556 -1.8250  1.8090  0.5035
19101TIP3   OH278793   5.678   2.263   2.904  0.6493  0.4428 -0.0042
19101TIP3    H178794   5.709   2.192   2.848 -1.1617  0.1455 -0.6872
19101TIP3    H278795   5.751   2.326   2.905  0.9416  0.2253 -2.3133
19102TIP3   OH278796   4.291   6.668   3.841 -0.2580 -0.1288 -0.2624
19102TIP3    H178797   4.222   6.632   3.785  0.0730 -0.3161 -0.5479
19102TIP3    H278798   4.273   6.762   3.842 -0.9398 -0.2524  0.2403
19103TIP3   OH278799   0.449   1.217  13.674  0.3903 -0.4101  0.3248
19103TIP3    H178800   0.439   1.189  13.765 -3.0749 -1.7937 -0.3241
19103TIP3    H278801   0.455   1.136  13.624  0.0767  0.2617 -0.8471
19104TIP3   OH278802   1.264   0.347  10.449 -0.1688  0.4150 -0.1023
19104TIP3    H178803   1.276   0.252  10.447 -0.6927  0.3468 -0.2975
19104TIP3    H278804   1.190   0.361  10.509  1.8873  0.9364  2.4818
19105TIP3   OH278805   3.207   1.450   2.386 -0.5595  0.2530 -0.2383
19105TIP3    H178806   3.198   1.441   2.481 -1.1896  1.6663 -0.1310
19105TIP3    H278807   3.295   1.418   2.367 -0.1486  0.6375  0.9364
19106TIP3   OH278808   4.059   5.403   3.076 -0.0105  0.0031 -0.0341
19106TIP3    H178809   4.117   5.457   3.130  0.8443 -0.6680 -0.2747
19106TIP3    H278810   4.106   5.391   2.994  0.1858 -1.7656  0.2978
19107TIP3   OH278811   6.096   6.731   5.690 -0.0191  0.5836  0.2691
19107TIP3    H178812   6.108   6.671   5.763 -1.9734 -1.0938 -0.6793
19107TIP3    H278813   6.116   6.818   5.726  0.2956 -0.3276  2.4219
19108TIP3   OH278814   6.269   2.077  13.169 -0.3742 -0.4589 -0.1611
19108TIP3    H178815   6.228   2.158  13.200  1.2244  0.8231 -1.2568
19108TIP3    H278816   6.271   2.020  13.247 -0.6698  0.8934  0.8825
19109TIP3   OH278817   5.948   4.838  14.762  1.3113  0.4777 -0.6764
19109TIP3    H178818   6.000   4.874  14.834 -0.4312 -0.9086  1.4083
19109TIP3    H278819   5.969   4.744  14.763  0.8584  0.3610 -1.6063
19110TIP3   OH278820   5.538   5.072  15.997  0.1770 -0.5278  0.8153
19110TIP3    H178821   5.484   5.127  15.941  1.2214  0.4647  0.7284
19110TIP3    H278822   5.505   4.983  15.984 -1.8099  0.1022  1.2406
19111TIP3   OH278823   5.790   5.971  16.200 -0.3991 -0.3147  0.0064
19111TIP3    H178824   5.836   5.940  16.123 -0.2017  0.6281 -0.2726
19111TIP3    H278825   5.725   6.033  16.166 -0.0081  0.4558  0.6177
19112TIP3   OH278826   2.642   4.919   0.530 -0.5886  0.1350  0.3547
19112TIP3    H178827   2.692   4.851   0.485 -0.8318 -0.5865  1.1376
19112TIP3    H278828   2.604   4.874   0.606 -0.2531  1.2797  1.2343
19113TIP3   OH278829   1.281   4.196   4.615 -0.0596 -0.0165  0.6611
19113TIP3    H178830   1.280   4.270   4.676  0.2497  1.6515 -1.2413
19113TIP3    H278831   1.193   4.194   4.577  0.2261  0.0166 -0.0166
19114TIP3   OH278832   4.429   0.744   1.867 -0.0059 -0.0884  0.3422
19114TIP3    H178833   4.426   0.773   1.959 -1.2179  1.7060 -0.1968
19114TIP3    H278834   4.385   0.659   1.867 -2.9835  1.3135  1.0175
19115TIP3   OH278835   5.764   0.581  12.429 -0.1991  0.1282 -0.4275
19115TIP3    H178836   5.841   0.634  12.408 -0.3014  0.3121 -0.3376
19115TIP3    H278837   5.691   0.629  12.391 -0.3735  0.4052  0.2424
19116TIP3   OH278838   0.796   0.593  13.855 -0.4396  0.2127 -0.0041
19116TIP3    H178839   0.741   0.528  13.897  0.7558 -0.7977  0.0660
19116TIP3    H278840   0.736   0.663  13.829 -1.7121 -0.7944  0.1486
19117TIP3   OH278841   4.305   6.209   3.273 -0.0126 -0.2935  0.2820
19117TIP3    H178842   4.385   6.160   3.253 -0.1353  0.0399 -1.2055
19117TIP3    H278843   4.335   6.299   3.284  0.0827 -0.5127  1.9729
19118TIP3   OH278844   0.467   5.077  16.424 -0.1052 -0.4178 -0.5436
19118TIP3    H178845   0.409   5.002  16.427 -0.2762 -0.2869  2.2473
19118TIP3    H278846   0.480   5.101  16.516  2.3121  1.1334 -1.1875
19119TIP3   OH278847   5.475   3.741   6.902  0.0968  0.1246 -0.7057
19119TIP3    H178848   5.483   3.673   6.969 -1.1959  0.9371  0.3120
19119TIP3    H278849   5.405   3.710   6.845 -2.1676  1.5865  1.0962
19120TIP3   OH278850   1.569   0.421  14.747  0.6443  0.1913 -0.0237
19120TIP3    H178851   1.658   0.455  14.741  0.8306  0.2812  2.2996
19120TIP3    H278852   1.561   0.359  14.675  2.4378  0.4897 -0.5073
19121TIP3   OH278853   2.582   5.467  12.833  0.0742 -0.2632 -0.3187
19121TIP3    H178854   2.549   5.454  12.744 -2.6957 -0.0242  0.5695
19121TIP3    H278855   2.597   5.378  12.866 -1.5666 -0.5165 -0.1595
19122TIP3   OH278856   1.965   0.553  13.127  0.1374 -0.7147  0.4247
19122TIP3    H178857   1.968   0.507  13.211 -1.3344 -2.1362 -0.2477
19122TIP3    H278858   1.872   0.567  13.110  0.5052  1.8970  0.2127
19123TIP3   OH278859   1.123   1.376  15.106 -0.2534  0.2560  0.3156
19123TIP3    H178860   1.049   1.437  15.112 -1.2337 -0.6509 -1.7047
19123TIP3    H278861   1.086   1.292  15.135  0.5804  0.1898  1.2611
19124TIP3   OH278862   3.635   5.136  11.961  0.4386  0.5149 -0.5229
19124TIP3    H178863   3.551   5.179  11.976  0.3129  0.3563 -0.7581
19124TIP3    H278864   3.616   5.068  11.895  0.0966 -1.5618  1.5871
19125TIP3   OH278865   3.888   3.535  14.624 -0.3336  0.2264  0.1709
19125TIP3    H178866   3.825   3.593  14.666 -0.4734  0.2153 -0.0252
19125TIP3    H278867   3.973   3.574  14.645 -0.4739  1.2949 -1.1152
19126TIP3   OH278868   1.507   3.016   5.495  0.7102 -0.1348  0.0234
19126TIP3    H178869   1.500   3.046   5.585 -0.2719 -0.0578 -0.0649
19126TIP3    H278870   1.416   3.005   5.466  0.9650 -2.9519 -0.0344
19127TIP3   OH278871   4.890   0.379   4.665 -0.0049  0.5193  0.1963
19127TIP3    H178872   4.981   0.393   4.641  0.1718  1.4130  1.3157
19127TIP3    H278873   4.845   0.457   4.632  0.0956  1.3406  1.9127
19128TIP3   OH278874   0.655   1.438  16.612  0.3670 -0.5219  0.2818
19128TIP3    H178875   0.608   1.497  16.553  1.3313  0.1597  0.1612
19128TIP3    H278876   0.649   1.352  16.570 -0.0804 -0.2960 -0.1287
19129TIP3   OH278877   2.346   5.925   5.661 -0.1790 -0.1530 -0.2905
19129TIP3    H178878   2.365   5.834   5.685  3.1844  0.2462 -0.9103
19129TIP3    H278879   2.296   5.959   5.734 -0.3692 -2.1307  0.5753
19130TIP3   OH278880   0.186   0.000   4.261 -0.1154 -0.3527 -0.4365
19130TIP3    H178881   0.141  -0.074   4.301  1.4638 -0.8238  0.5627
19130TIP3    H278882   0.158   0.076   4.313 -0.7419 -0.4397 -0.6444
19131TIP3   OH278883   5.440   6.496   1.385  0.2378 -0.0351  0.1020
19131TIP3    H178884   5.410   6.425   1.329 -0.2029 -0.0067  0.2998
19131TIP3    H278885   5.401   6.575   1.348 -0.3177 -0.0539  0.6250
19132TIP3   OH278886   5.196   4.164   5.808 -0.2340  0.2751  0.2703
19132TIP3    H178887   5.144   4.243   5.794  0.5188  0.6787 -0.3376
19132TIP3    H278888   5.213   4.130   5.720  1.9306  1.1036  0.2956
19133TIP3   OH278889   0.513   5.934   0.550  0.3706  0.9378 -1.2282
19133TIP3    H178890   0.424   5.961   0.571 -0.0410  1.1567 -3.0902
19133TIP3    H278891   0.503   5.870   0.479  1.5736 -0.9086  0.1463
19134TIP3   OH278892   3.299   2.052   1.728  0.4398 -0.0510  0.3958
19134TIP3    H178893   3.352   2.068   1.807  0.0280 -0.5064  0.7622
19134TIP3    H278894   3.215   2.094   1.747  0.1512 -0.6417  0.4212
19135TIP3   OH278895   4.448   4.849  14.803  0.1760 -0.2158 -0.1722
19135TIP3    H178896   4.479   4.930  14.763 -1.0890  1.7756  2.5568
19135TIP3    H278897   4.359   4.839  14.769 -0.4165  0.7458  1.0138
19136TIP3   OH278898   5.677   4.485  10.502 -0.3254 -0.1958 -0.0434
19136TIP3    H178899   5.725   4.542  10.440 -0.8054  1.1538  0.7872
19136TIP3    H278900   5.739   4.472  10.574 -1.0743  1.3971  0.9441
19137TIP3   OH278901   4.960   5.960   1.274 -0.5753  0.2464  0.7393
19137TIP3    H178902   4.878   5.935   1.230  0.9791  0.6357 -2.6706
19137TIP3    H278903   4.955   6.055   1.283 -0.8058  0.1871  1.3210
19138TIP3   OH278904   1.875   2.458   1.585 -0.3121  0.5304  0.0116
19138TIP3    H178905   1.863   2.448   1.491  0.5411  0.6082 -0.1103
19138TIP3    H278906   1.813   2.396   1.624  0.0182 -0.2058 -0.6145
19139TIP3   OH278907   0.952   6.232   4.936  0.1996  0.0868  0.0298
19139TIP3    H178908   0.947   6.315   4.984 -0.9241 -0.5965  1.1402
19139TIP3    H278909   0.997   6.172   4.996  0.1081 -0.3822 -0.3606
19140TIP3   OH278910   2.196   4.861   4.698  0.0782  0.8421  0.2352
19140TIP3    H178911   2.159   4.850   4.785 -1.9712  2.1075 -0.4228
19140TIP3    H278912   2.128   4.830   4.639  1.2213  0.5321 -0.9614
19141TIP3   OH278913   3.515   2.404  12.546  0.0832 -0.1387 -0.8864
19141TIP3    H178914   3.472   2.385  12.630  1.2269  0.4303 -0.1495
19141TIP3    H278915   3.568   2.326  12.529 -1.3062 -0.9148 -1.8820
19142TIP3   OH278916   2.531   3.901   4.410 -0.5439  0.3509 -0.7032
19142TIP3    H178917   2.546   3.838   4.340 -1.7965  0.6023 -1.2364
19142TIP3    H278918   2.541   3.851   4.491  1.8256  0.2651 -1.0004
19143TIP3   OH278919   0.734   1.705  10.878 -0.1223 -0.9204 -0.4735
19143TIP3    H178920   0.810   1.701  10.935  0.3931 -2.2627 -1.2108
19143TIP3    H278921   0.675   1.767  10.921 -0.0474 -2.3305  1.8901
19144TIP3   OH278922   2.991   4.888   5.310 -0.0712 -0.4779 -0.3668
19144TIP3    H178923   3.027   4.894   5.398 -0.3703  1.3299 -0.3378
19144TIP3    H278924   3.048   4.826   5.264  1.6613  0.5467  0.3527
19145TIP3   OH278925   4.717   2.607   0.374  0.4808  0.5508 -0.7238
19145TIP3    H178926   4.782   2.593   0.305  2.0233  1.7526  0.4251
19145TIP3    H278927   4.762   2.580   0.455 -1.0126 -0.0794 -0.0573
19146TIP3   OH278928   2.035   3.509  16.987 -0.7430  0.1855  0.2403
19146TIP3    H178929   1.996   3.491  17.072  0.4960 -2.0723  0.4244
19146TIP3    H278930   1.995   3.591  16.959 -1.9990  0.4303  2.4843
19147TIP3   OH278931   3.133   1.234  13.836  0.5925  0.2291 -0.2030
19147TIP3    H178932   3.110   1.181  13.912  0.1163  0.9802  0.1932
19147TIP3    H278933   3.183   1.308  13.872 -2.4342  2.4260 -0.0904
19148TIP3   OH278934   5.009   6.343   4.297  0.8785  0.6812  0.2078
19148TIP3    H178935   5.045   6.256   4.313  0.0835  0.0306 -1.2921
19148TIP3    H278936   5.014   6.388   4.382  3.2403 -0.0712  0.5347
19149TIP3   OH278937   2.507   3.955  16.978 -0.4745  0.3128  0.1565
19149TIP3    H178938   2.476   3.984  17.063 -0.2098 -1.8190  1.0425
19149TIP3    H278939   2.440   3.985  16.916 -2.0325 -0.3751  1.4481
19150TIP3   OH278940   0.473   6.338   3.263 -0.5359  0.5659 -0.1264
19150TIP3    H178941   0.435   6.382   3.187 -0.7542  0.6916  0.0569
19150TIP3    H278942   0.568   6.340   3.247 -0.5754  0.6847 -0.3438
19151TIP3   OH278943   1.261   3.275   6.333  0.1103 -0.2464 -0.7773
19151TIP3    H178944   1.194   3.235   6.388 -0.4621  2.7078  0.9040
19151TIP3    H278945   1.336   3.286   6.391  0.5066  0.3911 -1.3907
19152TIP3   OH278946   4.081   5.234  14.498  0.3417 -0.0486 -0.1903
19152TIP3    H178947   4.046   5.297  14.561 -0.1996 -0.7394  0.2134
19152TIP3    H278948   4.049   5.265  14.413 -1.6036 -0.8486  0.2002
19153TIP3   OH278949   4.169   5.768   6.171  0.5593  0.3579 -0.5904
19153TIP3    H178950   4.206   5.844   6.127  2.1557  0.0498  0.1437
19153TIP3    H278951   4.154   5.704   6.101  0.9531  0.6756 -0.9635
19154TIP3   OH278952   1.338   1.353  16.711 -0.4527 -0.2418  0.2894
19154TIP3    H178953   1.355   1.410  16.635  0.0161 -0.9026 -0.1085
19154TIP3    H278954   1.244   1.338  16.708 -0.8031  1.5081  1.1232
19155TIP3   OH278955   4.270   4.668   0.267 -0.3751  0.3256 -0.2470
19155TIP3    H178956   4.285   4.732   0.337 -0.1525  1.5640 -1.4028
19155TIP3    H278957   4.323   4.699   0.194 -0.5124 -1.0230 -0.9519
19156TIP3   OH278958   1.614   6.116  13.477  0.2452 -0.3198 -0.4741
19156TIP3    H178959   1.654   6.034  13.506  1.8051  0.7454  0.5889
19156TIP3    H278960   1.563   6.092  13.400 -0.6090 -2.5497  0.6724
19157TIP3   OH278961   6.820   2.995   3.979 -0.6493 -0.0333  0.3682
19157TIP3    H178962   6.842   3.026   3.891  1.9970  1.2077  1.3601
19157TIP3    H278963   6.747   3.050   4.006 -1.1286 -0.0516 -0.8247
19158TIP3   OH278964   0.469   3.677   3.958  0.1683 -0.2544  0.3283
19158TIP3    H178965   0.400   3.693   4.022 -0.2875  0.1945 -0.2590
19158TIP3    H278966   0.544   3.650   4.010  0.1837  1.2914  1.1850
19159TIP3   OH278967   2.549   1.974   3.432 -0.2163  0.0306 -0.2546
19159TIP3    H178968   2.510   2.049   3.476  1.5633  1.8416 -1.6089
19159TIP3    H278969   2.485   1.950   3.365 -0.3627  0.9743 -0.4647
19160TIP3   OH278970   1.359   0.016  14.170 -0.5019 -0.4345 -0.2819
19160TIP3    H178971   1.443   0.045  14.133 -0.6988  0.7563  0.1392
19160TIP3    H278972   1.294   0.041  14.104 -0.9096  2.1429  0.9605
19161TIP3   OH278973   3.202   1.676  14.894  0.4833 -0.0175 -0.0577
19161TIP3    H178974   3.291   1.711  14.891  0.8895 -1.0738 -0.8812
19161TIP3    H278975   3.164   1.712  14.974  0.8068  2.4370 -0.9189
19162TIP3   OH278976   5.269   4.505  10.711 -0.3182  0.1164  0.0294
19162TIP3    H178977   5.199   4.478  10.651 -0.7216 -0.4328  0.7331
19162TIP3    H278978   5.225   4.525  10.793 -0.1443  3.7256 -0.6067
19163TIP3   OH278979   3.274   3.922  14.321  0.0171 -0.5307  0.3659
19163TIP3    H178980   3.217   3.895  14.393 -1.3905 -0.7688 -0.7955
19163TIP3    H278981   3.274   4.017  14.324  3.4507 -0.4001  3.2769
19164TIP3   OH278982   2.657   4.303  11.665  0.0963  0.5695 -0.7969
19164TIP3    H178983   2.604   4.236  11.621 -1.4863 -0.0057  1.8049
19164TIP3    H278984   2.601   4.336  11.735  2.6059  1.0619  1.1308
19165TIP3   OH278985   0.536   0.847  15.492  0.1707  0.0794  0.0707
19165TIP3    H178986   0.461   0.790  15.504  0.1518  0.4712  2.0811
19165TIP3    H278987   0.590   0.802  15.426 -1.2040 -0.7976 -0.5036
19166TIP3   OH278988   0.279   6.553  16.126  0.1190  0.9941  0.1160
19166TIP3    H178989   0.229   6.572  16.046  0.3884  0.2626 -0.2399
19166TIP3    H278990   0.295   6.459  16.122  0.7449  1.0674  0.6822
19167TIP3   OH278991   2.848   3.229   3.679  0.4599  0.0701  0.3016
19167TIP3    H178992   2.868   3.190   3.593 -0.2860  0.8131 -0.2174
19167TIP3    H278993   2.927   3.278   3.701  1.4693 -1.7602  1.0182
19168TIP3   OH278994   2.533   5.934  16.151  0.5812 -0.2139  0.7195
19168TIP3    H178995   2.519   5.981  16.233 -1.0080 -0.2496  0.5031
19168TIP3    H278996   2.622   5.957  16.125  1.0159  0.0158  2.3026
19169TIP3   OH278997   4.329   0.547  16.798  0.5723 -0.3859 -0.6357
19169TIP3    H178998   4.259   0.562  16.735 -0.1176  1.0722  0.4075
19169TIP3    H278999   4.288   0.498  16.869  1.0638 -1.0514 -0.8020
19170TIP3   OH279000   3.782   1.980  16.815  0.0531  0.1168 -0.0473
19170TIP3    H179001   3.846   1.955  16.748  0.8844 -0.0244  0.7840
19170TIP3    H279002   3.699   1.942  16.784  0.6218 -0.8060 -0.4981
19171TIP3   OH279003   0.135   1.835   5.472 -0.5559 -0.0552 -0.2191
19171TIP3    H179004   0.193   1.910   5.460 -0.0672 -0.2407  0.8565
19171TIP3    H279005   0.051   1.873   5.500 -1.1090  0.2398 -2.1505
19172TIP3   OH279006   5.039   5.159   4.100 -0.4417 -0.1922 -0.5598
19172TIP3    H179007   5.039   5.140   4.006  2.2178  0.4431 -0.7776
19172TIP3    H279008   5.109   5.104   4.135  0.5271  1.6136  0.5163
19173TIP3   OH279009   6.841   0.780   0.968 -0.2262  0.5858 -0.2321
19173TIP3    H179010   6.874   0.829   0.892  1.3942  0.2847  0.2473
19173TIP3    H279011   6.763   0.735   0.935  1.5795 -1.2077 -2.3515
19174TIP3   OH279012   4.644   0.554   4.433  0.0691 -0.2078  0.2742
19174TIP3    H179013   4.574   0.490   4.437 -1.3410  1.1044 -1.6968
19174TIP3    H279014   4.712   0.512   4.381 -0.1368 -0.7177  0.4114
19175TIP3   OH279015   4.697   0.879   2.343  0.6040  0.4004  0.5611
19175TIP3    H179016   4.749   0.859   2.265  2.1714  1.0582  1.3808
19175TIP3    H279017   4.621   0.821   2.337  0.3250  0.9156 -1.7709
19176TIP3   OH279018   0.278   4.531  10.263  0.6749 -0.1652 -0.1293
19176TIP3    H179019   0.231   4.484  10.333  0.4193  1.1422  0.6292
19176TIP3    H279020   0.211   4.549  10.197  0.7854 -0.8835 -0.4464
19177TIP3   OH279021   0.498   4.588  16.536 -0.2624 -0.0285 -0.1198
19177TIP3    H179022   0.493   4.526  16.609 -0.4140 -1.3951 -1.2514
19177TIP3    H279023   0.574   4.642  16.556 -1.4848  1.0392  2.0773
19178TIP3   OH279024   1.422   2.733   3.698 -0.1525  0.1611 -0.1932
19178TIP3    H179025   1.500   2.726   3.642  0.1443 -1.8234  0.4025
19178TIP3    H279026   1.358   2.674   3.658 -0.7721  0.5105  0.2585
19179TIP3   OH279027   2.300   4.010  13.674  0.0097 -0.0958  0.0967
19179TIP3    H179028   2.270   4.003  13.765 -0.6710  0.1050 -0.1026
19179TIP3    H279029   2.314   3.919  13.647  0.3943 -0.1474  0.4596
19180TIP3   OH279030   2.875   6.673   2.283 -0.2351 -0.0321  0.0054
19180TIP3    H179031   2.916   6.747   2.237 -0.5744 -0.1600 -0.5148
19180TIP3    H279032   2.832   6.623   2.213 -2.1311  0.6404  0.6282
19181TIP3   OH279033   6.695   0.056   1.520 -0.1724 -0.1329  0.4320
19181TIP3    H179034   6.623   0.026   1.465  0.1457 -0.9468  0.4445
19181TIP3    H279035   6.722  -0.022   1.568 -0.1508  0.4597  1.4138
19182TIP3   OH279036   3.922   5.460  16.433  0.4220  0.2487 -0.3017
19182TIP3    H179037   3.867   5.473  16.511  1.6323  1.2917  0.4002
19182TIP3    H279038   3.958   5.546  16.414  3.2813 -0.7034  0.3808
19183TIP3   OH279039   5.918   1.302  10.745  0.2183  0.3518 -0.4894
19183TIP3    H179040   6.005   1.265  10.740  0.1908  0.1065  0.6178
19183TIP3    H279041   5.911   1.359  10.668  1.6442  1.0031 -0.1609
19184TIP3   OH279042   0.156   6.324  11.083 -0.0165  0.0010 -0.4669
19184TIP3    H179043   0.110   6.248  11.047  0.3851 -0.4020 -0.1367
19184TIP3    H279044   0.163   6.384  11.010  0.5083 -0.6773 -0.9896
19185TIP3   OH279045   1.642   2.723  12.939 -0.7303  0.0486  0.3776
19185TIP3    H179046   1.658   2.759  13.026  1.3310 -0.3162  0.1993
19185TIP3    H279047   1.676   2.633  12.944 -0.5372  0.0428 -0.8002
19186TIP3   OH279048   5.405   5.954   4.449  0.1516  0.2789  0.6703
19186TIP3    H179049   5.435   5.885   4.391  1.1348  0.8542  0.4707
19186TIP3    H279050   5.476   6.018   4.449 -0.1843  0.6800  1.8571
19187TIP3   OH279051   2.525   5.628   1.271  0.1808  0.3905  0.1861
19187TIP3    H179052   2.464   5.621   1.198 -0.9056  1.3639  0.9481
19187TIP3    H279053   2.553   5.720   1.270  0.0485  0.4529  1.0405
19188TIP3   OH279054   5.874   3.446  15.184 -0.0744  0.1489  0.4897
19188TIP3    H179055   5.931   3.415  15.255  1.3853 -0.5823 -0.9434
19188TIP3    H279056   5.891   3.540  15.178 -2.3115  0.8245  2.8930
19189TIP3   OH279057   2.807   4.591  16.202 -0.2706  0.0748  0.1042
19189TIP3    H179058   2.819   4.667  16.146  1.3405 -0.9606 -1.0430
19189TIP3    H279059   2.766   4.525  16.145 -1.7722  0.0789  1.1120
19190TIP3   OH279060   1.740   6.134   5.660 -0.2286  0.2297  0.2908
19190TIP3    H179061   1.693   6.197   5.715  0.1745  1.7823 -1.0894
19190TIP3    H279062   1.819   6.113   5.709  0.7692  2.6007 -0.2184
19191TIP3   OH279063   5.983   6.628   2.759 -0.1661 -0.4518 -0.2301
19191TIP3    H179064   5.917   6.570   2.798  2.6991 -3.7953  0.1038
19191TIP3    H279065   5.984   6.604   2.667  0.6645 -0.5074 -0.2064
19192TIP3   OH279066   5.488   1.939   0.601 -0.0195 -0.3702  0.1772
19192TIP3    H179067   5.463   2.029   0.621 -0.9932 -0.5854 -0.0232
19192TIP3    H279068   5.529   1.907   0.681  0.9799  0.4726  0.0158
19193TIP3   OH279069   3.013   2.440  16.840 -0.3357  0.2182 -0.1485
19193TIP3    H179070   3.062   2.459  16.760 -0.8963 -1.2595 -0.8860
19193TIP3    H279071   3.016   2.344  16.847 -0.2549  0.3156  1.6362
19194TIP3   OH279072   0.342   1.639   4.498 -0.3900  0.1138  0.1156
19194TIP3    H179073   0.385   1.580   4.436 -0.6428  0.5051 -0.4369
19194TIP3    H279074   0.281   1.584   4.546 -0.7814 -0.0342 -0.5469
19195TIP3   OH279075   1.540   0.716   1.026 -0.0251  0.1698  0.3295
19195TIP3    H179076   1.606   0.723   0.957 -0.3881  1.9193  0.1038
19195TIP3    H279077   1.581   0.662   1.093  0.9788 -0.1741 -0.5311
19196TIP3   OH279078   4.222   4.857   4.799 -0.0028  0.1416 -0.3062
19196TIP3    H179079   4.153   4.886   4.739  1.1273 -0.3121 -1.9275
19196TIP3    H279080   4.292   4.826   4.740  0.3522 -2.3224  1.2776
19197TIP3   OH279081   1.725   0.328   2.883 -0.1610  0.5030  0.1178
19197TIP3    H179082   1.757   0.289   2.964  0.5379  1.3515  0.2698
19197TIP3    H279083   1.636   0.294   2.873  0.4934 -1.3332  0.0925
19198TIP3   OH279084   0.637   2.858  15.748 -0.3553  0.4467 -0.2560
19198TIP3    H179085   0.730   2.844  15.766 -0.3528  1.7743  0.8720
19198TIP3    H279086   0.593   2.828  15.827 -0.7770  1.1395 -0.2208
19199TIP3   OH279087   3.043   4.772  15.114 -0.1812 -0.4960  0.4033
19199TIP3    H179088   3.059   4.863  15.142 -0.1354 -0.4794  0.3241
19199TIP3    H279089   3.130   4.740  15.090 -0.4467  0.0495 -1.3839
19200TIP3   OH279090   5.683   3.685   0.121 -0.4079  0.0844 -0.1969
19200TIP3    H179091   5.696   3.725   0.036 -1.2777 -0.1290 -0.4447
19200TIP3    H279092   5.588   3.678   0.130 -0.3047 -2.1168 -0.2756
19201TIP3   OH279093   5.860   3.536   5.456  0.1820  0.4786  0.1320
19201TIP3    H179094   5.804   3.524   5.380 -0.1402 -2.3643  0.7056
19201TIP3    H279095   5.945   3.560   5.420 -0.7166  2.2532 -0.8978
19202TIP3   OH279096   1.560   2.842  13.656  0.0052  0.2769  0.0260
19202TIP3    H179097   1.492   2.908  13.645  0.8105  0.9208 -1.3038
19202TIP3    H279098   1.605   2.867  13.737 -0.2605  0.8416  0.0052
19203TIP3   OH279099   6.622   0.700  15.352  0.0168  0.0786 -0.5501
19203TIP3    H179100   6.604   0.689  15.446 -0.2993  0.0564 -0.6104
19203TIP3    H279101   6.535   0.708  15.312  0.1877  3.0630 -0.5071
19204TIP3   OH279102   6.052   6.035  16.754 -0.2074  0.3046  0.3471
19204TIP3    H179103   5.964   6.024  16.789  0.4072 -0.3349  1.7962
19204TIP3    H279104   6.101   6.076  16.826  1.1319 -1.1711  0.3368
19205TIP3   OH279105   4.393   1.422   4.604  0.0316  1.0172  0.2193
19205TIP3    H179106   4.426   1.505   4.638 -0.3806  0.9878  0.7114
19205TIP3    H279107   4.380   1.367   4.682 -2.5586  1.5202  0.2533
19206TIP3   OH279108   2.102   5.090  11.476  0.5364  0.2690  0.6377
19206TIP3    H179109   2.012   5.111  11.502  0.2599  1.9405 -1.4147
19206TIP3    H279110   2.093   5.023  11.409  0.2474  3.6304 -3.1052
19207TIP3   OH279111   1.331   3.148  10.666 -0.4129 -0.1080 -0.6362
19207TIP3    H179112   1.419   3.149  10.627 -0.9359  0.5797 -1.8864
19207TIP3    H279113   1.318   3.057  10.694 -0.0856 -0.7170 -2.3294
19208TIP3   OH279114   6.129   5.275  12.115  0.1372 -0.2209 -0.0846
19208TIP3    H179115   6.212   5.316  12.092 -0.6993  1.3357 -0.4535
19208TIP3    H279116   6.063   5.327  12.069 -1.1933 -0.2668  1.6855
19209TIP3   OH279117   4.390   2.822   0.725 -0.7531 -0.2287  0.1373
19209TIP3    H179118   4.417   2.898   0.674 -2.7723  0.0405 -0.6166
19209TIP3    H279119   4.467   2.766   0.728 -0.1438  0.4297 -1.9787
19210TIP3   OH279120   5.372   4.025  10.921 -0.6045  0.2815 -0.0143
19210TIP3    H179121   5.388   4.118  10.906  0.2641  0.0373 -0.6204
19210TIP3    H279122   5.284   4.010  10.886 -0.0991  0.5305 -1.4456
19211TIP3   OH279123   0.464   5.833   0.258  0.4400 -0.1138 -0.4211
19211TIP3    H179124   0.464   5.885   0.178  1.2620  2.4262  1.1011
19211TIP3    H279125   0.381   5.786   0.256 -1.9412  3.6992 -0.5109
19212TIP3   OH279126   5.508   4.049  16.293  0.2348  0.6697  0.1655
19212TIP3    H179127   5.462   3.977  16.337 -2.2455  1.2684 -1.2490
19212TIP3    H279128   5.469   4.128  16.330  0.5886  1.2270 -0.6307
19213TIP3   OH279129   2.513   3.290  12.336 -0.6694  0.0248  0.1339
19213TIP3    H179130   2.503   3.224  12.267 -0.1980 -0.6334  0.6784
19213TIP3    H279131   2.536   3.370  12.290  2.9078 -1.1036 -0.3496
19214TIP3   OH279132   6.501   3.240  17.084 -0.4313  0.1901 -0.0264
19214TIP3    H179133   6.519   3.188  17.162 -2.2286  0.4164  0.5881
19214TIP3    H279134   6.574   3.302  17.079 -0.6130  0.6418  1.9120
19215TIP3   OH279135   3.513   1.932   5.248  0.2071  0.3635 -0.3956
19215TIP3    H179136   3.579   1.997   5.224 -0.8785  1.5437 -0.3096
19215TIP3    H279137   3.452   1.932   5.175 -0.0395 -0.2573 -0.1921
19216TIP3   OH279138   1.584   5.276   3.135  0.1386  0.6232  0.3953
19216TIP3    H179139   1.660   5.310   3.182  0.3877  1.2980 -0.4589
19216TIP3    H279140   1.622   5.233   3.058 -0.3690  1.5107 -0.3613
19217TIP3   OH279141   3.730   5.916  13.379  0.4773  0.3221 -0.6266
19217TIP3    H179142   3.640   5.938  13.403  0.1053  0.0542 -1.7171
19217TIP3    H279143   3.731   5.821  13.373  1.0452  0.2701  0.1430
19218TIP3   OH279144   3.258   4.758   1.163  0.1058 -0.4544 -0.0314
19218TIP3    H179145   3.278   4.799   1.247 -1.2121 -0.8652  0.5160
19218TIP3    H279146   3.217   4.827   1.111  2.1442  0.1820 -0.8792
19219TIP3   OH279147   4.621   5.968  12.653  0.5715 -0.6157  0.1916
19219TIP3    H179148   4.701   5.917  12.663  1.2895  0.0598 -1.7052
19219TIP3    H279149   4.551   5.906  12.674  1.5552 -1.2900  1.6213
19220TIP3   OH279150   0.473   5.782   0.842  0.6871  0.1254 -0.0075
19220TIP3    H179151   0.504   5.853   0.787  0.0790  0.7897  0.4931
19220TIP3    H279152   0.402   5.820   0.893 -0.6716 -1.2470 -0.8141
19221TIP3   OH279153   1.485   4.783   1.047 -0.4373 -0.3474  0.0884
19221TIP3    H179154   1.568   4.736   1.058  0.1140  0.2723 -1.2765
19221TIP3    H279155   1.485   4.848   1.117 -1.1999 -2.2507  2.0144
19222TIP3   OH279156   6.379   0.627  11.544  0.5845 -0.5813  0.7661
19222TIP3    H179157   6.346   0.701  11.595 -1.1288 -0.2091 -0.7613
19222TIP3    H279158   6.437   0.667  11.479  1.3341 -0.8335  1.2805
19223TIP3   OH279159   4.468   6.143   2.985  0.1532  0.3662 -0.2141
19223TIP3    H179160   4.526   6.164   3.058  0.9273  2.0508 -1.2330
19223TIP3    H279161   4.480   6.216   2.923 -2.2664  0.2426 -0.9558
19224TIP3   OH279162   4.093   2.096  15.243  0.5618 -0.2487  0.4603
19224TIP3    H179163   4.029   2.033  15.275  0.6172  0.4819  2.1001
19224TIP3    H279164   4.178   2.052  15.253  0.4430 -0.6922 -0.4043
19225TIP3   OH279165   4.413   0.209   3.340  0.3068 -0.3544 -0.6768
19225TIP3    H179166   4.368   0.126   3.358 -0.1389  0.2339  1.2025
19225TIP3    H279167   4.485   0.211   3.403 -0.4907  1.2479  0.2451
19226TIP3   OH279168   4.323   4.971   2.798  0.0139 -0.1256 -0.0592
19226TIP3    H179169   4.376   5.039   2.840  1.4739 -0.9285 -0.5385
19226TIP3    H279170   4.315   4.902   2.863 -0.6544  0.0860  0.0910
19227TIP3   OH279171   4.212   4.800  14.525  0.3372 -0.2378 -0.5417
19227TIP3    H179172   4.252   4.856  14.458  1.3440 -1.2112 -0.7852
19227TIP3    H279173   4.179   4.724  14.477  1.2013 -1.0195  0.0571
19228TIP3   OH279174   2.371   0.571   3.669  0.0796 -0.0078 -0.4609
19228TIP3    H179175   2.340   0.632   3.735 -0.2754 -0.6324 -0.0343
19228TIP3    H279176   2.371   0.621   3.588  1.3974  1.0533  0.1393
19229TIP3   OH279177   5.094   4.255   2.943 -0.2849  0.2791 -0.0344
19229TIP3    H179178   5.157   4.260   3.015 -0.9157 -0.4200  0.5799
19229TIP3    H279179   5.084   4.161   2.927  0.6676  0.4270 -1.7863
19230TIP3   OH279180   1.589   2.427  10.788 -0.1454 -0.3909  0.1271
19230TIP3    H179181   1.663   2.367  10.800  0.0720 -0.1910 -0.2040
19230TIP3    H279182   1.617   2.485  10.717 -0.8952 -0.7464 -0.4661
19231TIP3   OH279183   1.314   2.602  15.516 -0.2984 -0.4426 -0.2255
19231TIP3    H179184   1.304   2.514  15.553  1.5563 -1.0811 -1.1087
19231TIP3    H279185   1.289   2.593  15.424  0.6784 -0.2582 -0.5190
19232TIP3   OH279186   0.686   2.261   1.183  0.1205 -0.4903  0.6238
19232TIP3    H179187   0.603   2.289   1.220  1.1254  3.5469  0.3450
19232TIP3    H279188   0.747   2.262   1.257  0.4086 -1.0293  0.4000
19233TIP3   OH279189   6.483   4.523   0.070 -0.3984 -0.1590 -0.0480
19233TIP3    H179190   6.438   4.496   0.150 -0.0835  1.0485  0.5667
19233TIP3    H279191   6.499   4.442   0.023 -0.7233 -0.8798  1.0422
19234TIP3   OH279192   6.082   0.593   4.885  0.1670 -0.4282  0.3939
19234TIP3    H179193   6.153   0.646   4.921  0.8904 -0.4124 -1.0175
19234TIP3    H279194   6.002   0.637   4.915  0.7490  0.1085  1.1882
19235TIP3   OH279195   1.818   5.171  12.543 -0.6694  1.1498 -0.2846
19235TIP3    H179196   1.889   5.234  12.538 -0.9987  1.5347 -0.1100
19235TIP3    H279197   1.802   5.146  12.451 -1.1454  2.0013 -0.4390
19236TIP3   OH279198   5.944   6.331   0.155  0.0826 -0.0335 -0.4049
19236TIP3    H179199   5.940   6.307   0.247 -0.9113  2.1420  0.1828
19236TIP3    H279200   5.865   6.383   0.140 -0.2013 -1.0113 -2.7067
19237TIP3   OH279201   0.962   1.175   3.684  0.0390 -0.8082 -0.2514
19237TIP3    H179202   0.876   1.166   3.642 -0.0237 -3.3344  0.2191
19237TIP3    H279203   0.977   1.269   3.690 -0.5611 -0.2284 -4.6561
19238TIP3   OH279204   5.392   6.366  13.370  0.4866  0.2160 -0.3603
19238TIP3    H179205   5.339   6.353  13.449  0.3619 -0.8766 -0.5992
19238TIP3    H279206   5.328   6.375  13.299  0.5870 -1.0906 -0.6468
19239TIP3   OH279207   6.432   0.284   5.521 -0.7139  0.3029 -0.1098
19239TIP3    H179208   6.366   0.319   5.461 -0.3603  0.5868 -0.3388
19239TIP3    H279209   6.489   0.231   5.465 -0.0576  1.0103 -0.1364
19240TIP3   OH279210   3.011   3.513   4.340 -0.8966  0.0109  0.2708
19240TIP3    H179211   3.007   3.439   4.401  2.7222 -1.2696 -0.7628
19240TIP3    H279212   3.103   3.518   4.315 -1.8144  1.9079 -3.4127
19241TIP3   OH279213   1.026   5.742   0.087 -0.3396  0.5329 -0.1972
19241TIP3    H179214   0.938   5.774   0.066 -0.5436 -0.3812 -0.7841
19241TIP3    H279215   1.048   5.785   0.169 -1.7468  0.0172  0.4711
19242TIP3   OH279216   4.533   0.152  11.306  0.4435 -0.1336 -0.1765
19242TIP3    H179217   4.474   0.221  11.336 -2.2225 -2.6736  0.9703
19242TIP3    H279218   4.545   0.096  11.383 -0.1809 -2.6663 -1.8149
19243TIP3   OH279219   6.799   2.899  15.700 -0.0584  0.6449  0.1402
19243TIP3    H179220   6.793   2.987  15.664 -0.0242  0.6455  0.1362
19243TIP3    H279221   6.712   2.882  15.736 -0.0397  0.7145  0.2201
19244TIP3   OH279222   2.057   0.712  10.967  0.2367 -0.8246  0.0946
19244TIP3    H179223   2.089   0.648  10.904 -0.8286 -1.6199  0.3312
19244TIP3    H279224   1.968   0.684  10.987  0.2722 -0.1345  1.3469
19245TIP3   OH279225   0.692   3.571  15.466  0.0124  0.1812  0.8934
19245TIP3    H179226   0.696   3.480  15.497 -0.0749 -0.3449 -0.5632
19245TIP3    H279227   0.599   3.593  15.467 -0.0325  0.0099  0.5942
19246TIP3   OH279228   6.562   2.407  15.958  0.2003  0.0291  0.0551
19246TIP3    H179229   6.598   2.358  15.883  2.2346  0.4903  0.6767
19246TIP3    H279230   6.610   2.490  15.958 -0.2107  0.2891  1.4947
19247TIP3   OH279231   6.729   6.824   4.209  0.3177  0.1265 -0.1930
19247TIP3    H179232   6.643   6.861   4.186 -0.9708 -2.2255  0.4993
19247TIP3    H279233   6.766   6.887   4.270 -1.4055  0.7199  0.3151
19248TIP3   OH279234   0.998   2.211  12.663 -0.5081 -0.7448 -0.6202
19248TIP3    H179235   1.012   2.288  12.718 -0.5447  1.2037 -3.1575
19248TIP3    H279236   1.080   2.202  12.614 -0.7358 -1.9730 -0.8019
19249TIP3   OH279237   2.597   4.692  15.945  0.5651  0.3008 -0.1324
19249TIP3    H179238   2.576   4.683  16.038 -0.8402  0.8072 -0.3802
19249TIP3    H279239   2.527   4.645  15.900  2.7630 -2.5186 -0.9152
19250TIP3   OH279240   4.516   4.424   4.678 -0.0612  0.0144  0.0228
19250TIP3    H179241   4.512   4.440   4.772 -0.6572 -0.6029  0.1083
19250TIP3    H279242   4.598   4.465   4.650  0.9548 -1.2216  1.0875
19251TIP3   OH279243   5.397   5.085   3.741  0.2891 -0.0196 -0.1156
19251TIP3    H179244   5.326   5.085   3.677  1.2535 -0.1792 -1.2108
19251TIP3    H279245   5.477   5.092   3.689  1.1001 -0.0414  1.0787
19252TIP3   OH279246   1.969   4.742  11.534 -0.0123  0.3431 -0.3026
19252TIP3    H179247   1.880   4.773  11.549 -0.5019  0.1044 -2.4058
19252TIP3    H279248   1.969   4.711  11.443  1.5768 -1.8933  0.3790
19253TIP3   OH279249   5.565   4.085   3.556 -0.3331  0.1264  0.3106
19253TIP3    H179250   5.657   4.084   3.584 -0.6825  0.0402  1.5344
19253TIP3    H279251   5.554   4.006   3.504  0.4717  0.5399 -0.5094
19254TIP3   OH279252   2.171   2.510  14.972 -0.2003 -0.2232 -0.3834
19254TIP3    H179253   2.128   2.568  15.035 -1.4858 -1.5656  0.0383
19254TIP3    H279254   2.155   2.551  14.887 -0.5379  0.3642 -0.0386
19255TIP3   OH279255   5.661   1.895  16.099 -0.5968  0.2147 -0.5748
19255TIP3    H179256   5.693   1.977  16.137 -1.3520  0.6532 -0.8719
19255TIP3    H279257   5.741   1.849  16.072 -0.1856  1.2386 -1.1908
19256TIP3   OH279258   3.537   0.105  14.569 -0.4663  0.1827 -0.6457
19256TIP3    H179259   3.532   0.198  14.593 -1.5104 -0.3623  1.4468
19256TIP3    H279260   3.623   0.077  14.601 -1.4998 -0.3245  2.0020
19257TIP3   OH279261   6.293   5.972  12.788  0.0780  0.9952  0.2959
19257TIP3    H179262   6.286   6.023  12.707 -0.1421  1.4401  0.5907
19257TIP3    H279263   6.219   6.003  12.841 -1.4575 -1.2167 -0.3976
19258TIP3   OH279264   3.275   3.387  14.480  0.3576 -0.5971 -0.3075
19258TIP3    H179265   3.249   3.375  14.571  0.6824 -1.1518 -0.2808
19258TIP3    H279266   3.357   3.338  14.472 -0.4038 -1.7810 -1.2626
19259TIP3   OH279267   5.397   1.316   5.870  0.5111  0.1115 -0.3655
19259TIP3    H179268   5.418   1.265   5.792  0.1345 -2.2108  0.9598
19259TIP3    H279269   5.404   1.254   5.942 -2.6943  1.1984  1.0820
19260TIP3   OH279270   2.529   0.799  14.469 -0.0751 -0.0367  0.3148
19260TIP3    H179271   2.503   0.773  14.558  1.5258  0.9519  1.1373
19260TIP3    H279272   2.509   0.893  14.465  1.8523  0.4353  0.4864
19261TIP3   OH279273   2.369   5.106  14.579 -0.0664  0.4256  0.0431
19261TIP3    H179274   2.439   5.069  14.632 -1.0517 -1.1572  0.3022
19261TIP3    H279275   2.289   5.091  14.630 -0.8638  0.1475 -1.2236
19262TIP3   OH279276   2.749   5.261  12.920  0.1617  0.5125  0.2028
19262TIP3    H179277   2.738   5.349  12.957  0.1602 -0.2585  2.2013
19262TIP3    H279278   2.838   5.262  12.884  0.3157  1.2279  0.5618
19263TIP3   OH279279   5.138   2.509  13.096 -0.1626  0.2321  0.8653
19263TIP3    H179280   5.215   2.452  13.095  0.0578  0.4901  1.7498
19263TIP3    H279281   5.165   2.585  13.045 -0.4256 -0.4051 -0.2356
19264TIP3   OH279282   4.215   0.877  14.689  0.2945 -0.2331  0.6032
19264TIP3    H179283   4.306   0.906  14.678  0.3064 -0.5018 -0.0114
19264TIP3    H279284   4.187   0.918  14.771  0.9295 -0.0449  0.7315
19265TIP3   OH279285   2.260   6.052   1.161 -0.0947  1.0928  0.2738
19265TIP3    H179286   2.244   6.144   1.181 -0.2411  0.7424  1.9523
19265TIP3    H279287   2.194   6.029   1.096 -1.1821  1.7353  1.1297
19266TIP3   OH279288   1.562   4.140  14.639  0.0881 -0.4317 -0.3548
19266TIP3    H179289   1.574   4.105  14.551  0.8524  0.9337 -0.8150
19266TIP3    H279290   1.469   4.127  14.657  0.5280 -3.9697  0.1027
19267TIP3   OH279291   5.450   2.608   0.752 -0.2381  0.0944  0.6198
19267TIP3    H179292   5.413   2.694   0.733 -0.7196 -0.1534  0.4047
19267TIP3    H279293   5.536   2.609   0.711 -0.7086  0.0644 -0.4141
19268TIP3   OH279294   4.700   4.842   4.028  0.2445 -0.0306  0.0685
19268TIP3    H179295   4.630   4.857   4.091 -0.3475 -0.6396 -0.4291
19268TIP3    H279296   4.763   4.788   4.076  0.0004 -0.1365  0.2751
19269TIP3   OH279297   0.935   0.002  13.694  0.2743  0.4850 -0.8923
19269TIP3    H179298   0.852  -0.030  13.729  0.7500  1.0878  0.8347
19269TIP3    H279299   0.911   0.055  13.618 -0.7741 -0.7647 -1.4768
19270TIP3   OH279300   0.045   0.290  11.130  0.7409 -0.2939 -0.2106
19270TIP3    H179301   0.066   0.276  11.038  1.4385 -0.0286 -0.0978
19270TIP3    H279302  -0.007   0.213  11.155 -0.0168 -0.0423 -0.9912
19271TIP3   OH279303   2.458   2.180  15.243 -0.3514  0.1954  0.4122
19271TIP3    H179304   2.395   2.215  15.181 -0.8408 -0.9797  0.2265
19271TIP3    H279305   2.499   2.106  15.197 -0.1872 -0.2209  1.1995
19272TIP3   OH279306   6.629   3.918  12.447 -0.1375  0.8079 -0.6896
19272TIP3    H179307   6.571   3.898  12.373  0.2194 -1.1442 -0.5030
19272TIP3    H279308   6.570   3.942  12.518 -0.7581 -0.9748 -0.5548
19273TIP3   OH279309   0.091   5.137  13.948 -0.1819  0.2411 -0.1284
19273TIP3    H179310   0.071   5.173  14.035  0.6443 -1.2011  0.6966
19273TIP3    H279311   0.044   5.195  13.887 -0.0576  1.8243  1.1995
19274TIP3   OH279312   1.386   3.795  14.371  0.6821 -0.1717 -0.4632
19274TIP3    H179313   1.432   3.715  14.346  0.5325 -0.1385 -0.8408
19274TIP3    H279314   1.332   3.817  14.295  2.2405  1.4085 -1.1701
19275TIP3   OH279315   5.967   1.278   4.218 -0.5879  0.5499 -0.2412
19275TIP3    H179316   5.998   1.343   4.155 -0.1779  0.4364 -0.1605
19275TIP3    H279317   6.022   1.201   4.202 -2.7896 -0.7654 -2.1942
19276TIP3   OH279318   1.464   5.011  15.072  0.3507  0.1423 -0.2831
19276TIP3    H179319   1.408   5.042  15.000 -0.2981 -0.0064  0.1463
19276TIP3    H279320   1.486   5.090  15.121  1.8482  0.4248 -1.3550
19277TIP3   OH279321   5.057   4.126   0.869  0.1644  0.2944  0.1739
19277TIP3    H179322   5.078   4.039   0.834 -0.9658  0.3631 -0.7472
19277TIP3    H279323   5.128   4.182   0.838  0.2323 -0.0592 -0.3336
19278TIP3   OH279324   3.085   5.393  15.303  0.4304 -0.4609  0.1566
19278TIP3    H179325   3.155   5.329  15.310  0.5629 -0.1892  1.9161
19278TIP3    H279326   3.029   5.375  15.379 -0.5901  0.2641 -0.4016
19279TIP3   OH279327   3.674   1.510  16.338  0.8405  0.1126 -0.0730
19279TIP3    H179328   3.632   1.424  16.335  1.1084 -0.0371  0.2972
19279TIP3    H279329   3.745   1.499  16.402  0.9163  0.5909 -0.0727
19280TIP3   OH279330   3.315   6.471  12.851  0.4522  0.1099 -0.0107
19280TIP3    H179331   3.248   6.514  12.798  0.1092  1.6093  1.5682
19280TIP3    H279332   3.396   6.515  12.828  1.1227 -2.0739 -2.3374
19281TIP3   OH279333   3.086   6.801  11.768 -0.1309  0.2783 -0.1566
19281TIP3    H179334   3.113   6.860  11.838  1.3944 -0.2452 -0.2722
19281TIP3    H279335   3.001   6.835  11.740 -1.0745  0.1870  2.3092
19282TIP3   OH279336   6.120   3.457   0.665 -0.6043  0.1698 -0.3082
19282TIP3    H179337   6.116   3.484   0.757 -0.6889  0.1466 -0.3052
19282TIP3    H279338   6.173   3.378   0.666  0.1212  0.6458 -0.3871
19283TIP3   OH279339   3.122   0.293   5.327 -0.2547 -0.2510  0.3255
19283TIP3    H179340   3.066   0.272   5.402 -1.2331 -0.7235 -0.5024
19283TIP3    H279341   3.199   0.238   5.339 -0.7186 -0.8495  0.6326
19284TIP3   OH279342   6.523   1.389   5.991  0.8088  0.0246  0.3071
19284TIP3    H179343   6.485   1.403   6.077  0.0608 -2.3904  0.4459
19284TIP3    H279344   6.462   1.432   5.930 -0.1330 -0.5877  0.8002
19285TIP3   OH279345   3.275   4.097  15.064  0.1120 -0.6560 -0.1293
19285TIP3    H179346   3.215   4.098  15.139 -0.8672  0.1481 -0.8931
19285TIP3    H279347   3.225   4.136  14.992  1.8692  1.0555 -0.5374
19286TIP3   OH279348   2.131   4.419  14.046  0.0872  0.0692  0.6272
19286TIP3    H179349   2.178   4.354  14.098  0.0005  0.6336  1.4293
19286TIP3    H279350   2.041   4.388  14.044  0.4419 -0.9946 -0.8799
19287TIP3   OH279351   5.897   4.106   1.233  0.0031  0.8523  0.1210
19287TIP3    H179352   5.825   4.164   1.259 -1.8031 -1.8178  1.5504
19287TIP3    H279353   5.949   4.095   1.313  0.4312  0.6177 -0.1856
19288TIP3   OH279354   6.183   5.466   5.361  0.7640  0.6105  0.2641
19288TIP3    H179355   6.264   5.504   5.326  1.2771 -0.7119 -0.0347
19288TIP3    H279356   6.122   5.468   5.287 -0.2245  3.5178  1.0287
19289TIP3   OH279357   5.124   1.279   4.686 -0.2457 -0.0070 -0.4617
19289TIP3    H179358   5.055   1.329   4.730 -0.1755 -1.7490  1.8198
19289TIP3    H279359   5.113   1.189   4.718  1.9371 -0.7108 -1.4816
19290TIP3   OH279360   4.818   3.223  15.397 -0.2721  0.0387 -0.0018
19290TIP3    H179361   4.896   3.277  15.412  0.8390 -1.9009  1.8075
19290TIP3    H279362   4.820   3.204  15.303  0.9224  0.7763 -0.1496
19291TIP3   OH279363   2.415   0.316  15.886  0.0223 -0.6513  0.4523
19291TIP3    H179364   2.500   0.275  15.900  0.1695  0.2611  2.6201
19291TIP3    H279365   2.356   0.243  15.867  1.4479 -1.1878 -2.4365
19292TIP3   OH279366   0.262   6.513  12.014  0.1551 -0.2769  0.0109
19292TIP3    H179367   0.176   6.473  11.997 -0.5075  0.9383  0.4130
19292TIP3    H279368   0.245   6.607  12.013  1.7962  0.0433 -1.5305
19293TIP3   OH279369   2.978   0.166  13.891 -0.0259 -0.0479 -0.1144
19293TIP3    H179370   2.889   0.147  13.919 -0.3374  0.3124 -0.8409
19293TIP3    H279371   2.983   0.262  13.891 -0.1930 -0.0114 -1.7310
19294TIP3   OH279372   5.691   1.899   6.746 -0.3215 -0.2352 -0.2580
19294TIP3    H179373   5.684   1.990   6.719  0.8849 -0.0380  0.0202
19294TIP3    H279374   5.604   1.876   6.777 -1.0263  0.3719 -1.6711
19295TIP3   OH279375   3.980   3.465   3.258 -0.9560  0.1236  0.0165
19295TIP3    H179376   4.040   3.443   3.329 -0.5996 -1.0970 -0.6296
19295TIP3    H279377   3.944   3.380   3.231 -1.2840  0.6014 -1.0705
19296TIP3   OH279378   4.052   1.337  12.448  0.0747  0.5919  0.0573
19296TIP3    H179379   3.989   1.356  12.379 -0.3504  0.2093  0.3365
19296TIP3    H279380   4.030   1.399  12.518  1.1743  1.6974 -0.5524
19297TIP3   OH279381   2.295   1.344   3.184 -0.3325 -0.2856  0.3915
19297TIP3    H179382   2.282   1.287   3.260  0.5738 -0.6758  0.2677
19297TIP3    H279383   2.235   1.309   3.118 -1.3150  0.2080  0.9863
19298TIP3   OH279384   1.443   5.931   1.990  0.2784  0.1063 -0.2793
19298TIP3    H179385   1.396   5.873   1.930  0.1961 -0.9006  0.7287
19298TIP3    H279386   1.436   6.018   1.950  1.6128 -0.7455 -2.5757
19299TIP3   OH279387   1.493   2.827  12.737  0.5571  0.5770  0.4415
19299TIP3    H179388   1.408   2.783  12.730  0.7745  0.1050  0.7315
19299TIP3    H279389   1.524   2.804  12.824  1.2809  0.2083  0.0903
19300TIP3   OH279390   1.598   1.470   5.060 -0.4254  0.1449  0.4337
19300TIP3    H179391   1.582   1.433   4.974 -2.3529 -1.4078  1.3974
19300TIP3    H279392   1.555   1.556   5.058  1.7330  1.2775 -0.9121
19301TIP3   OH279393   2.074   6.089   4.904  0.2045 -0.4836  0.1867
19301TIP3    H179394   2.120   6.158   4.951 -2.5411  2.1033 -0.6127
19301TIP3    H279395   2.013   6.052   4.968 -1.2466  0.7921 -0.4047
19302TIP3   OH279396   5.254   6.356  16.480  0.1099 -0.3172  0.2283
19302TIP3    H179397   5.279   6.307  16.558  0.0606 -0.5637  0.0875
19302TIP3    H279398   5.172   6.317  16.452  1.3926 -2.0012 -1.4628
19303TIP3   OH279399   1.757   2.294  13.943  0.0977 -0.0190  0.0846
19303TIP3    H179400   1.720   2.254  13.863  1.3322 -0.3770 -0.3322
19303TIP3    H279401   1.775   2.384  13.918 -0.8982  0.2870  0.4327
19304TIP3   OH279402   5.894   5.236  12.349  0.2384  0.2844 -0.0491
19304TIP3    H179403   5.869   5.219  12.439 -0.8807  0.9096 -0.2343
19304TIP3    H279404   5.966   5.299  12.355  1.4291 -1.0783  0.4610
19305TIP3   OH279405   1.225   6.145  12.100 -0.2280  0.1494  0.3721
19305TIP3    H179406   1.204   6.198  12.023 -0.9355 -0.9304 -0.2122
19305TIP3    H279407   1.143   6.103  12.124  0.1715 -0.1929  1.2062
19306TIP3   OH279408   5.886   1.705  16.079  0.0612  0.0007 -0.2281
19306TIP3    H179409   5.895   1.734  15.988  0.2263 -0.5864 -0.4031
19306TIP3    H279410   5.969   1.663  16.100 -0.8609 -2.2536 -0.6972
19307TIP3   OH279411   4.329   2.939   2.023  0.6282  0.0111  0.1919
19307TIP3    H179412   4.320   2.992   2.103  0.8991 -0.7627  0.7506
19307TIP3    H279413   4.280   2.987   1.957 -0.3709  0.2174  1.0496
19308TIP3   OH279414   0.746   4.590   2.945 -0.2231 -0.1145 -0.4427
19308TIP3    H179415   0.805   4.561   3.014 -0.0877  0.7961 -0.1662
19308TIP3    H279416   0.803   4.609   2.871  0.1013  2.4702  0.3672
19309TIP3   OH279417   2.478   2.020   0.061 -0.1992  0.0674  0.1283
19309TIP3    H179418   2.460   1.932   0.028  0.4041  0.1221 -0.3741
19309TIP3    H279419   2.477   2.010   0.157  0.2899 -0.5819  0.0764
19310TIP3   OH279420   2.524   4.243  16.353  0.3498 -0.0010 -0.0913
19310TIP3    H179421   2.593   4.308  16.365  0.9270 -0.7023  0.5444
19310TIP3    H279422   2.559   4.164  16.395 -0.1851 -0.8142 -1.1397
19311TIP3   OH279423   1.807   3.543   0.061  0.4344 -0.7411  0.2310
19311TIP3    H179424   1.869   3.587   0.120  1.4190 -1.4638 -0.2451
19311TIP3    H279425   1.764   3.615   0.014  0.6195 -0.2156  0.8485
19312TIP3   OH279426   5.683   0.375   4.140  0.4235 -0.2875  0.3994
19312TIP3    H179427   5.701   0.430   4.064  2.5175  0.1340  1.1253
19312TIP3    H279428   5.675   0.438   4.213 -2.3183 -0.6077  0.5078
19313TIP3   OH279429   1.896   5.457   2.127 -0.3255 -0.4543  0.0077
19313TIP3    H179430   1.905   5.540   2.175 -0.4835 -1.1574  1.2904
19313TIP3    H279431   1.873   5.393   2.194 -0.0519 -1.5792 -0.9447
19314TIP3   OH279432   4.442   1.698   6.423  0.8343  0.0276 -0.1181
19314TIP3    H179433   4.446   1.633   6.353  0.0567 -0.5869  0.3887
19314TIP3    H279434   4.351   1.694   6.454  1.6391 -1.2073  2.3163
19315TIP3   OH279435   4.911   1.632  11.230 -0.7226 -0.4744 -0.5724
19315TIP3    H179436   4.849   1.697  11.261  0.6386  0.0280  1.3107
19315TIP3    H279437   4.920   1.649  11.137 -2.6397  0.0498 -0.6903
19316TIP3   OH279438   5.452   1.706   1.687 -0.4786  0.5087 -0.0303
19316TIP3    H179439   5.369   1.676   1.650  0.0718 -0.1647 -0.7525
19316TIP3    H279440   5.485   1.769   1.624  0.3513 -0.4676 -0.6048
19317TIP3   OH279441   3.488   3.094  16.170 -0.0312  0.3317  0.4785
19317TIP3    H179442   3.496   3.077  16.264 -0.7391 -1.1763  0.3011
19317TIP3    H279443   3.468   3.008  16.132  1.4146  0.6833 -1.2087
19318TIP3   OH279444   4.795   4.554   1.581 -0.2175  0.1468  0.1974
19318TIP3    H179445   4.816   4.610   1.656 -1.6724  1.2674 -0.1920
19318TIP3    H279446   4.839   4.596   1.507  1.4682 -1.1252  0.4293
19319TIP3   OH279447   1.420   5.330   1.761  0.2274  0.0327  0.2729
19319TIP3    H179448   1.416   5.240   1.728 -2.2031  0.2044 -0.0548
19319TIP3    H279449   1.335   5.344   1.803  0.1600  2.4952 -0.5502
19320TIP3   OH279450   5.189   1.258   2.477 -0.1290 -0.4217  0.4883
19320TIP3    H179451   5.188   1.184   2.538  0.6732 -0.0171  1.0180
19320TIP3    H279452   5.097   1.281   2.466 -0.3098 -0.7465  1.2556
19321TIP3   OH279453   0.352   0.789  13.085  0.6504 -0.0033 -0.3639
19321TIP3    H179454   0.331   0.879  13.057  0.5367 -0.5889 -2.3689
19321TIP3    H279455   0.444   0.792  13.108  0.2051  1.0253  1.5500
19322TIP3   OH279456   2.835   6.630  11.535  0.0029 -0.6338  0.1031
19322TIP3    H179457   2.830   6.611  11.629 -1.9107 -1.2636 -0.0920
19322TIP3    H279458   2.804   6.720  11.527 -2.8035 -1.5271 -0.1584
19323TIP3   OH279459   4.075   4.125  12.229 -0.1226  0.0621  0.2840
19323TIP3    H179460   4.153   4.174  12.255 -0.3780 -0.2141  1.6391
19323TIP3    H279461   4.039   4.175  12.156  0.3644  1.1533  0.7609
19324TIP3   OH279462   5.871   6.690  16.961  0.3234  0.4594 -0.0684
19324TIP3    H179463   5.832   6.608  16.931 -0.3460  0.3716  0.9941
19324TIP3    H279464   5.800   6.754  16.957  0.5724  0.7503  0.0795
19325TIP3   OH279465   3.689   6.011   4.105 -0.2944  0.4363 -0.2904
19325TIP3    H179466   3.771   6.057   4.124 -0.1703  0.0883  0.0438
19325TIP3    H279467   3.621   6.068   4.142 -0.0754 -0.0724  0.9467
19326TIP3   OH279468   4.001   0.156  12.401 -0.2533  0.0805 -0.6260
19326TIP3    H179469   3.908   0.135  12.401 -0.6874  1.8199 -0.3713
19326TIP3    H279470   4.044   0.075  12.374 -1.8264 -0.7655 -0.7242
19327TIP3   OH279471   4.116   5.081  11.895  0.1214  0.4407 -0.4641
19327TIP3    H179472   4.086   5.056  11.983  1.5298 -1.3851 -0.4438
19327TIP3    H279473   4.049   5.046  11.837  0.3040 -0.3540 -0.2163
19328TIP3   OH279474   6.813   6.113   1.498 -0.1838 -0.8710  0.4906
19328TIP3    H179475   6.811   6.175   1.425 -0.8641 -0.7704  0.5879
19328TIP3    H279476   6.766   6.158   1.568 -2.1880 -2.1380  0.0382
19329TIP3   OH279477   4.724   0.529  16.780  0.0626  0.2617  0.8561
19329TIP3    H179478   4.745   0.441  16.750 -0.7345  0.4607 -0.3869
19329TIP3    H279479   4.791   0.585  16.741 -1.5807  0.6645 -1.6255
19330TIP3   OH279480   3.959   1.378  15.329 -0.3244  0.5012  0.2977
19330TIP3    H179481   4.007   1.440  15.384  1.7618  0.6979 -1.5919
19330TIP3    H279482   3.899   1.431  15.279 -1.0308  0.5206  1.1356
19331TIP3   OH279483   3.923   6.751   3.462 -0.1918  0.2946 -0.2302
19331TIP3    H179484   3.880   6.689   3.522  1.2156  0.0306  0.5663
19331TIP3    H279485   4.000   6.782   3.511 -0.1324  1.6601 -1.1320
19332TIP3   OH279486   6.345   0.949  15.216  0.0559 -0.3719 -0.3070
19332TIP3    H179487   6.302   0.915  15.137 -1.2058 -0.8559  0.5650
19332TIP3    H279488   6.364   0.872  15.269 -0.9250  0.0704  0.7400
19333TIP3   OH279489   5.016   2.754  16.106  0.2927  0.4861 -0.6728
19333TIP3    H179490   5.019   2.838  16.059 -0.0303  0.2572 -1.1083
19333TIP3    H279491   4.961   2.771  16.182 -2.3191 -0.0825 -2.3191
19334TIP3   OH279492   4.564   6.130  16.170 -0.0387 -0.3283  0.9162
19334TIP3    H179493   4.565   6.223  16.149 -1.4077 -0.4654  0.0341
19334TIP3    H279494   4.509   6.123  16.248 -2.5807 -0.5950 -0.7409
19335TIP3   OH279495   0.926   2.751  13.652 -0.3482 -0.3229  0.5803
19335TIP3    H179496   0.872   2.728  13.577  0.1046  0.6001 -0.0500
19335TIP3    H279497   0.915   2.679  13.713 -2.2723 -0.1801  0.4541
19336TIP3   OH279498   2.479   2.148   4.941 -0.2257  0.1581  0.4083
19336TIP3    H179499   2.465   2.074   4.882  0.6982  1.5440 -1.6277
19336TIP3    H279500   2.442   2.223   4.895  1.7125  1.5200  0.9538
19337TIP3   OH279501   0.339   1.748  16.659  0.2062  1.3292 -0.1999
19337TIP3    H179502   0.277   1.689  16.702  0.4792  0.4443 -0.9721
19337TIP3    H279503   0.325   1.833  16.701  1.1057  0.3453  2.2983
19338TIP3   OH279504   4.909   1.678  15.604  0.2825 -0.1905  0.3994
19338TIP3    H179505   4.968   1.607  15.627  0.6272 -0.8871 -2.2809
19338TIP3    H279506   4.966   1.751  15.581  0.1031 -0.4171 -0.8461
19339TIP3   OH279507   2.884   3.984  14.252  0.2091 -0.1730 -0.8312
19339TIP3    H179508   2.947   3.988  14.180  1.6490 -0.8520  0.3232
19339TIP3    H279509   2.815   3.925  14.221 -0.0603  0.8678 -2.2581
19340TIP3   OH279510   4.546   0.706  13.124  0.5386  0.5798 -0.0259
19340TIP3    H179511   4.472   0.675  13.176  1.0493  0.6804  0.7826
19340TIP3    H279512   4.569   0.633  13.067  0.5856  0.1147  0.5802
19341TIP3   OH279513   6.150   2.038  14.860  0.2292  0.3890  0.1793
19341TIP3    H179514   6.067   1.996  14.883  0.7572 -0.3458  0.7467
19341TIP3    H279515   6.217   1.975  14.884  1.1010  1.8735  1.9032
19342TIP3   OH279516   2.575   6.545  14.289 -0.2514 -0.4863  0.0706
19342TIP3    H179517   2.532   6.525  14.206  3.0051  0.2866 -1.9779
19342TIP3    H279518   2.622   6.466  14.312  2.1269  0.4939 -1.1001
19343TIP3   OH279519   4.473   0.397   3.699 -0.1355  0.0257  0.5526
19343TIP3    H179520   4.490   0.433   3.786 -0.1174  2.2566 -0.3125
19343TIP3    H279521   4.536   0.440   3.642 -0.2331 -1.2948 -0.6218
19344TIP3   OH279522   1.865   4.361  11.838  0.4447 -0.0004  0.0381
19344TIP3    H179523   1.868   4.400  11.751 -0.7309  1.6050  0.6662
19344TIP3    H279524   1.928   4.410  11.889  1.8873 -1.6135 -0.1102
19345TIP3   OH279525   4.276   1.803   0.312  0.5247 -0.1935 -0.2244
19345TIP3    H179526   4.257   1.875   0.252 -1.5338  1.5370  2.3051
19345TIP3    H279527   4.352   1.833   0.361  0.3986 -0.2895  0.0263
19346TIP3   OH279528   5.875   0.618  12.813  0.6332 -0.4788  0.0696
19346TIP3    H179529   5.905   0.580  12.896  0.6836 -0.3468  0.1120
19346TIP3    H279530   5.784   0.643  12.829 -0.1389 -2.6502 -0.6489
19347TIP3   OH279531   0.797   0.095   4.722 -0.1987  0.3716 -0.2638
19347TIP3    H179532   0.837   0.176   4.691  0.9327 -0.5918 -1.4593
19347TIP3    H279533   0.704   0.114   4.724 -0.1125  1.1890 -2.1849
19348TIP3   OH279534   6.762   4.381  15.969 -0.0842 -0.2467 -0.3875
19348TIP3    H179535   6.708   4.443  15.920  0.7827  1.6984  0.9324
19348TIP3    H279536   6.806   4.329  15.902 -4.7275 -3.2158 -1.5686
19349TIP3   OH279537   0.569   4.484   4.865  0.0584 -0.4768 -0.2236
19349TIP3    H179538   0.565   4.571   4.905 -1.5626 -0.5679 -0.1429
19349TIP3    H279539   0.526   4.494   4.780 -0.0676 -1.1722 -0.2487
19350TIP3   OH279540   2.197   1.472  16.331  0.4971  0.1208  0.5596
19350TIP3    H179541   2.256   1.511  16.267 -0.1184  0.5520  0.2380
19350TIP3    H279542   2.254   1.440  16.401  1.3166 -1.6107 -0.8221
19351TIP3   OH279543   6.064   6.361   3.613  0.4562 -0.2121  0.6269
19351TIP3    H179544   6.031   6.277   3.642 -0.0934  0.5390  2.2866
19351TIP3    H279545   6.139   6.378   3.669 -0.5607  1.2277  1.6185
19352TIP3   OH279546   0.009   3.189   4.528 -0.0769  0.0536 -0.3129
19352TIP3    H179547   0.023   3.279   4.500  0.8365 -0.1393 -0.5083
19352TIP3    H279548  -0.060   3.156   4.471  1.2260 -0.0997 -1.8390
19353TIP3   OH279549   1.118   3.341   0.119 -0.1467 -0.3723 -0.1268
19353TIP3    H179550   1.076   3.255   0.116  0.7639 -0.9198  1.5593
19353TIP3    H279551   1.187   3.331   0.185 -1.5941  2.3708  1.9888
19354TIP3   OH279552   4.554   2.126  14.040  0.0937  0.0378  0.9275
19354TIP3    H179553   4.531   2.216  14.065  2.9249  1.6940 -1.8204
19354TIP3    H279554   4.475   2.093  13.997 -0.0937  2.3290 -0.6574
19355TIP3   OH279555   3.922   3.137   5.767 -0.5426 -1.0680  0.1784
19355TIP3    H179556   3.882   3.145   5.854  2.5213 -0.2973  1.6552
19355TIP3    H279557   3.941   3.044   5.758  0.1348 -1.0030  0.8577
19356TIP3   OH279558   3.125   1.922   3.427 -0.1573 -0.1353  0.3935
19356TIP3    H179559   3.110   1.828   3.416 -1.8413 -0.0765  1.7110
19356TIP3    H279560   3.064   1.948   3.497 -1.1125  2.2884 -1.2068
19357TIP3   OH279561   1.369   4.228   0.883 -0.4326 -0.1308 -0.3373
19357TIP3    H179562   1.358   4.257   0.793 -3.5165  1.6451  0.4825
19357TIP3    H279563   1.385   4.308   0.933 -1.5644 -0.6958  1.0080
19358TIP3   OH279564   6.827   2.793   3.327  0.3735  0.6545  0.7468
19358TIP3    H179565   6.870   2.731   3.385  0.3359  1.0916  1.2466
19358TIP3    H279566   6.823   2.874   3.377 -0.2332  0.8631  0.3727
19359TIP3   OH279567   0.822   1.262   4.199  0.2780  0.1479  0.0703
19359TIP3    H179568   0.892   1.215   4.244  0.9764  1.9515  0.9498
19359TIP3    H279569   0.867   1.319   4.137 -0.5534 -0.3141 -1.0081
19360TIP3   OH279570   5.179   0.148   5.663 -0.5217 -0.1011  0.6293
19360TIP3    H179571   5.137   0.062   5.659 -0.2312 -0.1976 -1.1007
19360TIP3    H279572   5.196   0.162   5.757 -0.3988 -2.0045  0.9346
19361TIP3   OH279573   1.395   2.327  15.070  0.1424  0.8420  0.2848
19361TIP3    H179574   1.313   2.279  15.054  0.1639  1.0204 -0.3782
19361TIP3    H279575   1.420   2.360  14.984  1.3638  0.0845  0.3379
19362TIP3   OH279576   5.922   4.792   1.150 -0.3459  0.2229 -0.3929
19362TIP3    H179577   5.942   4.883   1.130  2.4969  0.0952  1.2089
19362TIP3    H279578   5.916   4.790   1.246  1.3108 -1.4593 -0.2612
19363TIP3   OH279579   4.469   4.756   6.515 -0.1951  0.2659 -0.3961
19363TIP3    H179580   4.515   4.672   6.519 -0.1896  0.2049 -1.4501
19363TIP3    H279581   4.505   4.799   6.438 -1.4234  0.4932 -0.8770
19364TIP3   OH279582   3.105   1.017   0.812  0.1917  0.4401  0.2650
19364TIP3    H179583   3.041   0.950   0.834 -0.8522  1.1263 -0.6054
19364TIP3    H279584   3.054   1.088   0.772  1.4470  1.1186 -0.2080
19365TIP3   OH279585   5.278   3.532  11.423 -0.2962  0.3376 -0.8164
19365TIP3    H179586   5.276   3.470  11.495  1.4290 -0.2716 -1.2377
19365TIP3    H279587   5.238   3.611  11.458 -1.4024 -0.6107  0.1172
19366TIP3   OH279588   2.903   1.325  10.870  0.2355 -0.6497 -0.0681
19366TIP3    H179589   2.979   1.379  10.849 -0.1940  0.7058  1.6441
19366TIP3    H279590   2.828   1.381  10.854 -0.2427 -0.8521  1.3340
19367TIP3   OH279591   1.616   2.394   2.194  0.3581  0.5598 -0.3806
19367TIP3    H179592   1.535   2.350   2.168  0.5890  0.6050 -1.2229
19367TIP3    H279593   1.621   2.382   2.289 -1.2280  1.5865 -0.1332
19368TIP3   OH279594   2.275   6.761   4.445 -1.4264  0.1424 -0.0087
19368TIP3    H179595   2.333   6.743   4.519 -1.2302  1.9753  0.3330
19368TIP3    H279596   2.224   6.681   4.434  0.9760 -1.4777 -0.1763
19369TIP3   OH279597   0.841   4.353  14.365  0.0282  0.4714 -0.1180
19369TIP3    H179598   0.839   4.288  14.296 -2.0219  1.9679 -1.6030
19369TIP3    H279599   0.932   4.356  14.394  0.4672 -1.8547 -1.0914
19370TIP3   OH279600   6.737   1.629   3.241  0.0673 -0.5579 -0.7493
19370TIP3    H179601   6.690   1.617   3.159 -1.7655  1.6473 -0.1194
19370TIP3    H279602   6.730   1.544   3.285 -1.4426 -0.9249 -1.6241
19371TIP3   OH279603   0.703   2.619   6.070 -0.3269 -0.1168  0.0832
19371TIP3    H179604   0.744   2.617   5.983 -0.8707  0.0061 -0.1827
19371TIP3    H279605   0.639   2.549   6.067 -0.9508  0.4421  0.0756
19372TIP3   OH279606   4.431   1.879   6.215 -0.2214 -0.3131 -0.1302
19372TIP3    H179607   4.474   1.804   6.255 -0.8576 -0.1803  0.8337
19372TIP3    H279608   4.349   1.844   6.180 -0.7254 -0.0027  0.7086
19373TIP3   OH279609   1.982   4.634  10.842  0.0407  0.1485  0.3315
19373TIP3    H179610   1.958   4.715  10.889  0.4391 -0.2836  1.3175
19373TIP3    H279611   1.942   4.644  10.756  0.7626  1.7624  0.1485
19374TIP3   OH279612   2.039   5.912   0.121  0.0920 -0.3241 -0.2053
19374TIP3    H179613   1.977   5.978   0.087  0.7549  0.9184  0.9039
19374TIP3    H279614   2.098   5.896   0.047  0.1644  0.6396 -0.3747
19375TIP3   OH279615   2.850   1.564  12.861  0.3696 -0.2703  0.7592
19375TIP3    H179616   2.824   1.584  12.771  1.6206 -0.6543  0.2811
19375TIP3    H279617   2.871   1.650  12.899  0.6358 -0.1743  0.4089
19376TIP3   OH279618   0.393   5.021   5.069 -0.0530 -0.5385 -0.7080
19376TIP3    H179619   0.298   5.031   5.062  0.0450  0.6582 -0.6293
19376TIP3    H279620   0.428   5.104   5.035  0.8678 -0.0136  1.3628
19377TIP3   OH279621   6.091   2.815   2.968  0.5425  0.2130  0.0760
19377TIP3    H179622   6.161   2.751   2.963  0.2061 -0.1125 -0.6649
19377TIP3    H279623   6.109   2.865   3.048  0.3112 -1.3732  1.1559
19378TIP3   OH279624   1.342   0.550  15.450  0.4624 -0.0430 -0.3447
19378TIP3    H179625   1.414   0.489  15.464 -0.3791 -0.8334  0.7472
19378TIP3    H279626   1.364   0.627  15.503 -0.0505 -0.7738  0.9620
19379TIP3   OH279627   5.024   5.940  11.114 -0.3533  0.3773 -0.5548
19379TIP3    H179628   5.071   6.022  11.128 -1.9035  1.3887 -1.0496
19379TIP3    H279629   5.008   5.937  11.019 -1.7014  0.3196 -0.3440
19380TIP3   OH279630   0.903   1.383   5.268  0.0435 -0.2727  0.0378
19380TIP3    H179631   0.977   1.365   5.326 -0.8140 -0.1424  1.2114
19380TIP3    H279632   0.939   1.374   5.179  1.2916 -0.8705  0.5804
19381TIP3   OH279633   5.460   4.253  16.625 -0.5631 -0.1017  0.8202
19381TIP3    H179634   5.550   4.287  16.620 -0.7022  0.0805 -1.3213
19381TIP3    H279635   5.406   4.332  16.635 -0.6614  0.1072 -1.0063
19382TIP3   OH279636   3.357   6.231  13.856  0.1525 -0.2683 -0.0806
19382TIP3    H179637   3.357   6.195  13.767  3.0335 -1.7810  0.4204
19382TIP3    H279638   3.323   6.159  13.910 -1.0946  0.4654  0.1648
19383TIP3   OH279639   1.526   1.133   2.240 -0.2178 -0.2888 -0.4532
19383TIP3    H179640   1.462   1.084   2.293  1.5404  0.4227  2.5612
19383TIP3    H279641   1.472   1.180   2.177 -2.4969 -1.3105  0.5778
19384TIP3   OH279642   3.741   3.590  16.385  0.1139 -0.0704  0.5518
19384TIP3    H179643   3.652   3.616  16.361 -0.0254 -1.6002 -0.7004
19384TIP3    H279644   3.792   3.671  16.379 -0.7083  0.3593 -1.1334
19385TIP3   OH279645   0.687   0.985  11.002 -0.2552  0.2174  0.2258
19385TIP3    H179646   0.681   0.958  10.911 -2.6749 -2.2207  0.9523
19385TIP3    H279647   0.780   1.001  11.016  0.2995 -0.2108 -2.4330
19386TIP3   OH279648   1.273   2.913   5.676 -0.1043 -0.3505  0.0875
19386TIP3    H179649   1.234   2.971   5.742  0.7368 -0.1588  0.4318
19386TIP3    H279650   1.347   2.872   5.721  1.1281  0.5775 -1.0218
19387TIP3   OH279651   2.633   0.534  11.409 -0.7290 -0.4784  0.3388
19387TIP3    H179652   2.655   0.606  11.469 -2.2229 -0.5980  1.0745
19387TIP3    H279653   2.692   0.546  11.335  0.7959 -0.0046  1.5754
19388TIP3   OH279654   2.527   2.044   2.686  0.0152  0.3291  0.3319
19388TIP3    H179655   2.490   2.073   2.602 -0.1861 -0.3602  0.1806
19388TIP3    H279656   2.610   2.003   2.662 -0.0343  0.1467  0.4712
19389TIP3   OH279657   2.787   0.414  14.085  0.2248  0.1991 -0.0845
19389TIP3    H179658   2.784   0.431  14.179  0.5584  0.6155 -0.1480
19389TIP3    H279659   2.781   0.318  14.078 -4.2941  0.2718  0.1367
19390TIP3   OH279660   1.446   6.075   1.080 -1.1209  0.2264  0.2288
19390TIP3    H179661   1.415   5.996   1.036  0.6305 -0.0820 -0.5372
19390TIP3    H279662   1.457   6.139   1.010  0.3665  0.1627  0.3590
19391TIP3   OH279663   5.992   6.060   5.538  0.5037 -0.1531  0.0125
19391TIP3    H179664   6.017   6.057   5.631 -1.2502 -0.9558  0.5102
19391TIP3    H279665   5.901   6.089   5.539  0.6688  0.5071 -1.5299
19392TIP3   OH279666   3.010   2.826  11.345 -0.2517  0.4303  0.1687
19392TIP3    H179667   2.999   2.812  11.440 -1.1507  0.0728  0.0222
19392TIP3    H279668   3.100   2.799  11.328 -0.6676 -1.4293  0.6112
19393TIP3   OH279669   5.198   3.874   1.511  0.1577 -0.1093 -1.0268
19393TIP3    H179670   5.198   3.961   1.550  1.5066  0.3707 -2.0150
19393TIP3    H279671   5.268   3.827   1.557 -1.1347 -1.0101  0.1181
19394TIP3   OH279672   4.832   0.453  12.043  0.2778 -0.1287  0.1650
19394TIP3    H179673   4.879   0.370  12.051 -0.9386 -0.8638 -0.1194
19394TIP3    H279674   4.801   0.455  11.953  2.5327  1.8991 -0.6603
19395TIP3   OH279675   0.817   5.092   5.534  0.2425  0.0728  0.5693
19395TIP3    H179676   0.857   5.122   5.453 -0.7111  0.3702  0.1946
19395TIP3    H279677   0.748   5.156   5.552 -0.4052 -0.7045  0.9078
19396TIP3   OH279678   0.001   4.246   2.047 -0.1866  0.1697 -0.5223
19396TIP3    H179679  -0.026   4.178   1.985  0.4239 -0.9936  0.4332
19396TIP3    H279680   0.053   4.199   2.112  0.3552  1.5939  0.1104
19397TIP3   OH279681   2.191   3.824   5.240 -0.4575  0.0817  0.1859
19397TIP3    H179682   2.255   3.868   5.296  1.3775 -0.0583 -1.6676
19397TIP3    H279683   2.166   3.891   5.176 -1.7510 -0.0418  0.5481
19398TIP3   OH279684   1.836   2.172   1.912  0.8743 -0.6064 -0.4622
19398TIP3    H179685   1.840   2.079   1.936  0.2429 -1.1342 -2.2450
19398TIP3    H279686   1.788   2.173   1.829 -0.6325  1.4881  0.3628
19399TIP3   OH279687   4.016   3.764   4.803 -0.4969 -0.3590 -0.3426
19399TIP3    H179688   3.921   3.770   4.813 -0.4331 -0.6580  0.4650
19399TIP3    H279689   4.030   3.777   4.709 -1.5070 -2.3544 -0.8419
19400TIP3   OH279690   4.886   2.030   0.460 -0.0349  0.1501  0.1997
19400TIP3    H179691   4.904   2.067   0.374  0.5827 -1.0992 -0.2340
19400TIP3    H279692   4.969   1.991   0.488 -0.6632 -0.9710  0.5867
19401TIP3   OH279693   6.720   3.226   4.155 -0.3705 -0.2099 -0.6110
19401TIP3    H179694   6.652   3.255   4.094 -0.7107  0.0685 -0.1079
19401TIP3    H279695   6.672   3.183   4.226 -0.0664  0.4455  0.0010
19402TIP3   OH279696   2.271   1.619  11.717  0.4122 -0.4366 -0.3078
19402TIP3    H179697   2.297   1.673  11.642 -0.7979  0.6965  0.0511
19402TIP3    H279698   2.282   1.677  11.792 -1.8732 -0.2928 -0.0151
19403TIP3   OH279699   0.616   4.811  11.044  0.1558 -0.8784 -0.0279
19403TIP3    H179700   0.697   4.785  10.999  0.4733 -0.1415  0.1049
19403TIP3    H279701   0.596   4.898  11.009 -0.4928 -0.9866  0.0639
19404TIP3   OH279702   6.417   4.616  11.676 -0.0667  0.0869  0.6115
19404TIP3    H179703   6.347   4.638  11.613 -1.0133 -2.5701  0.6302
19404TIP3    H279704   6.370   4.591  11.756  1.0046  0.2326  1.2960
19405TIP3   OH279705   5.477   5.228  12.489 -0.9015  0.1140 -0.2280
19405TIP3    H179706   5.544   5.160  12.498 -1.6313 -0.4173  1.5512
19405TIP3    H279707   5.527   5.309  12.478 -0.0020 -0.5202 -0.9898
19406TIP3   OH279708   1.028   2.587  12.074 -0.4406 -0.1920  0.3493
19406TIP3    H179709   0.960   2.519  12.069 -2.0906  1.4398 -0.5440
19406TIP3    H279710   0.996   2.648  12.141 -0.2419  0.9663 -0.5770
19407TIP3   OH279711   6.154   1.924   0.015  0.1377 -0.1348  0.0410
19407TIP3    H179712   6.096   1.848   0.008  0.4209 -0.1858 -2.6561
19407TIP3    H279713   6.105   1.996  -0.023 -0.2466  1.2474  2.8557
19408TIP3   OH279714   0.195   4.879  12.019  0.3904  0.1634  0.1604
19408TIP3    H179715   0.222   4.956  12.068  1.6915 -0.1318 -0.0586
19408TIP3    H279716   0.101   4.871  12.037  0.7058  0.3734  2.1648
19409TIP3   OH279717   6.463   6.142  16.310  0.1796 -0.8578 -0.0780
19409TIP3    H179718   6.555   6.127  16.289  0.5036  0.7138  0.0647
19409TIP3    H279719   6.437   6.066  16.363  1.7374 -0.7672  0.8708
19410TIP3   OH279720   0.047   5.219   3.250  0.4078 -0.2713  1.1406
19410TIP3    H179721  -0.042   5.229   3.216  0.4774 -1.8069  0.4328
19410TIP3    H279722   0.047   5.270   3.331  0.3155  3.8504 -1.1460
19411TIP3   OH279723   6.745   1.780   5.879  0.3012 -0.6424  0.4489
19411TIP3    H179724   6.661   1.818   5.905 -0.7261 -2.9472  0.7656
19411TIP3    H279725   6.752   1.700   5.932  2.0408 -1.2337 -0.5922
19412TIP3   OH279726   6.139   5.220  16.738 -0.1215  0.4389 -0.0933
19412TIP3    H179727   6.144   5.288  16.806  1.5085  1.2903 -1.0103
19412TIP3    H279728   6.056   5.175  16.756 -0.2122  1.2690  1.8438
19413TIP3   OH279729   6.244   0.140  12.266  0.4230 -0.2938 -0.2262
19413TIP3    H179730   6.198   0.087  12.201 -2.4468  0.5072  0.9895
19413TIP3    H279731   6.262   0.079  12.338  0.7059 -0.4796 -0.4544
19414TIP3   OH279732   1.792   6.296  15.750  0.3968  0.1394  0.2148
19414TIP3    H179733   1.811   6.239  15.676 -0.3079 -0.4362  0.4580
19414TIP3    H279734   1.787   6.236  15.825 -1.3396  0.3515  0.3222
19415TIP3   OH279735   2.170   2.494   2.247 -0.0441  0.3047  0.2507
19415TIP3    H179736   2.134   2.446   2.173 -0.7952  1.5545 -0.2196
19415TIP3    H279737   2.119   2.464   2.322  0.0996 -0.2875  0.1152
19416TIP3   OH279738   3.203   4.746  16.440  0.1550 -0.4603 -0.2867
19416TIP3    H179739   3.140   4.787  16.381  0.7835  1.6595  0.4198
19416TIP3    H279740   3.264   4.700  16.383 -1.1125 -1.2590 -1.0600
19417TIP3   OH279741   0.765   2.672   0.322 -0.3191 -0.5827 -0.1078
19417TIP3    H179742   0.771   2.643   0.232 -0.8812  1.5740 -0.9169
19417TIP3    H279743   0.812   2.756   0.323 -3.7332  1.5215  0.5210
19418TIP3   OH279744   2.660   6.807   2.658 -0.3157  0.6303  0.4578
19418TIP3    H179745   2.691   6.744   2.723 -0.2137 -0.0557 -0.2427
19418TIP3    H279746   2.610   6.871   2.709 -0.6494 -0.1549  1.1509
19419TIP3   OH279747   3.237   1.811   1.289  0.6272  0.4142  0.2840
19419TIP3    H179748   3.233   1.844   1.379 -2.1354 -1.1426  0.8408
19419TIP3    H279749   3.274   1.723   1.298 -0.8875 -0.2610  0.1187
19420TIP3   OH279750   0.811   2.296  11.786 -0.2860 -0.2892  0.0419
19420TIP3    H179751   0.745   2.306  11.717 -0.2245 -0.2018 -0.0061
19420TIP3    H279752   0.864   2.221  11.759 -1.2048 -1.2126  0.7741
19421TIP3   OH279753   3.425   0.337  14.237 -0.3204  0.6432  0.3248
19421TIP3    H179754   3.350   0.305  14.287  0.3232  0.3490  1.1266
19421TIP3    H279755   3.434   0.429  14.261 -0.4112  0.6705  0.2518
19422TIP3   OH279756   3.738   2.594   0.577  0.3759  0.0600 -0.4488
19422TIP3    H179757   3.789   2.627   0.504  0.6666  1.1174  0.2210
19422TIP3    H279758   3.793   2.527   0.617  0.7114  0.3220 -0.4748
19423TIP3   OH279759   0.245   1.361  13.592 -0.3992 -0.3258 -0.6100
19423TIP3    H179760   0.315   1.310  13.633  0.3265 -0.5707 -2.0833
19423TIP3    H279761   0.254   1.343  13.498 -2.1770 -0.0194 -0.8809
19424TIP3   OH279762   4.792   5.971   4.986 -0.3054 -0.0239  0.7527
19424TIP3    H179763   4.883   5.954   4.965 -0.1169 -0.2799  1.7087
19424TIP3    H279764   4.775   6.059   4.953  0.1562 -0.1413  0.1886
19425TIP3   OH279765   0.527   5.556   2.629  0.0257 -0.5449 -0.0203
19425TIP3    H179766   0.619   5.575   2.644  0.1023 -1.9286  1.6240
19425TIP3    H279767   0.486   5.571   2.715 -1.6733  1.9884 -1.1720
19426TIP3   OH279768   3.571   0.873  14.810  0.0418 -0.1350  0.2644
19426TIP3    H179769   3.522   0.920  14.877 -1.2419 -1.1538  0.0910
19426TIP3    H279770   3.550   0.781  14.826  1.6378 -0.5762 -0.0579
19427TIP3   OH279771   1.036   2.446  10.500  0.2769 -0.3206  0.3797
19427TIP3    H179772   0.958   2.395  10.480  0.3523 -0.4570  0.4372
19427TIP3    H279773   1.075   2.466  10.415 -0.5776  0.9332  0.2489
19428TIP3   OH279774   5.490   3.550   6.682  0.0808  0.1941  0.5818
19428TIP3    H179775   5.557   3.615   6.701  0.3278 -0.0881  0.6941
19428TIP3    H279776   5.417   3.600   6.647  1.0401  0.3279 -1.3805
19429TIP3   OH279777   3.695   3.554   5.306 -0.1809 -0.0606  0.5221
19429TIP3    H179778   3.658   3.466   5.300  0.3592 -0.2433 -0.2384
19429TIP3    H279779   3.772   3.544   5.363 -0.6120  0.0933  1.1413
19430TIP3   OH279780   1.560   6.757   4.510  0.2928  0.3967 -0.3925
19430TIP3    H179781   1.551   6.664   4.489  0.0344  0.6536 -1.4858
19430TIP3    H279782   1.652   6.767   4.535  0.1077 -0.3103  0.6152
19431TIP3   OH279783   1.965   0.947   1.875 -0.9832 -0.1234 -0.1824
19431TIP3    H179784   1.984   0.967   1.966  1.4254  3.9946 -1.3179
19431TIP3    H279785   2.048   0.962   1.829 -2.0740 -2.0479 -3.1137
19432TIP3   OH279786   2.752   2.175   3.677 -0.0662 -0.5062 -0.3350
19432TIP3    H179787   2.674   2.220   3.710  0.8993  1.7023 -0.8649
19432TIP3    H279788   2.753   2.197   3.583  1.0665 -0.6955 -0.3761
19433TIP3   OH279789   3.693   5.744   3.545  0.5718 -0.6876 -0.3200
19433TIP3    H179790   3.734   5.800   3.610 -1.0413 -0.4134  0.5183
19433TIP3    H279791   3.749   5.667   3.540  0.6826 -0.7524  1.4692
19434TIP3   OH279792   4.026   5.131  13.733  0.1656 -0.7357 -0.2017
19434TIP3    H179793   3.937   5.110  13.763 -0.6528 -0.2220 -2.1429
19434TIP3    H279794   4.019   5.134  13.638  1.9858  0.6071 -0.3346
19435TIP3   OH279795   3.301   3.428  11.910  0.5970 -0.0477  0.0397
19435TIP3    H179796   3.342   3.507  11.875  1.3889  0.2301  1.5150
19435TIP3    H279797   3.321   3.360  11.845  2.4345  0.3320  0.1438
19436TIP3   OH279798   6.564   1.500  14.237 -0.1174  0.0866  0.0070
19436TIP3    H179799   6.575   1.518  14.331  1.6203  0.5113 -0.2391
19436TIP3    H279800   6.627   1.430  14.219 -0.2495  0.1914 -0.8832
19437TIP3   OH279801   4.543   5.823   0.080 -0.4186 -0.3579  0.3372
19437TIP3    H179802   4.459   5.852   0.045 -0.1433 -0.9007 -0.8212
19437TIP3    H279803   4.574   5.897   0.132 -0.5012  0.7934 -1.1929
19438TIP3   OH279804   1.676   5.702  12.247  0.2537 -0.5258 -0.5839
19438TIP3    H179805   1.586   5.674  12.265  0.2761  0.4209  1.2916
19438TIP3    H279806   1.677   5.724  12.154 -1.3289 -0.9710 -0.7314
19439TIP3   OH279807   0.453   4.235   3.132 -0.0013  0.1228 -0.1691
19439TIP3    H179808   0.522   4.300   3.121  1.0345 -1.0194 -0.6382
19439TIP3    H279809   0.432   4.206   3.043 -0.7076  0.0495  0.0088
19440TIP3   OH279810   6.409   2.954   2.219 -0.7160 -0.5255  0.4236
19440TIP3    H179811   6.381   2.970   2.129 -1.9331  1.1348  1.0407
19440TIP3    H279812   6.501   2.930   2.211 -0.4315  0.8932 -1.1965
19441TIP3   OH279813   2.532   1.322   1.712  0.9673  0.3701  0.4410
19441TIP3    H179814   2.451   1.319   1.763 -0.1402  0.5756 -1.2338
19441TIP3    H279815   2.599   1.350   1.775 -0.7738  3.1130  1.2666
19442TIP3   OH279816   1.809   3.527   5.390  0.2966 -0.4778  0.1084
19442TIP3    H179817   1.890   3.576   5.403  1.1335 -1.5561 -0.8748
19442TIP3    H279818   1.831   3.459   5.326 -1.2408 -1.1521  0.2382
19443TIP3   OH279819   5.299   1.051   1.780  0.2287 -0.4368  0.9086
19443TIP3    H179820   5.373   1.063   1.721 -1.3541  1.3933 -0.8688
19443TIP3    H279821   5.291   1.135   1.826 -1.2703 -0.2460  0.3567
19444TIP3   OH279822   5.603   6.158  16.112  0.1471 -0.4130 -0.1510
19444TIP3    H179823   5.610   6.239  16.062 -0.0304  0.3946  1.0862
19444TIP3    H279824   5.607   6.186  16.203 -2.7005 -1.4828  0.3887
19445TIP3   OH279825   5.281   5.988   6.042 -0.7293 -0.7355  0.0105
19445TIP3    H179826   5.331   6.068   6.060  0.2743 -1.4884  0.6509
19445TIP3    H279827   5.191   6.019   6.030 -0.9051  0.2588  2.9427
19446TIP3   OH279828   1.646   4.295  11.339 -0.1570  0.4093  0.1056
19446TIP3    H179829   1.595   4.373  11.317  2.2099  1.8588 -0.5808
19446TIP3    H279830   1.668   4.256  11.255  0.1268 -0.0339  0.3809
19447TIP3   OH279831   6.074   3.094  11.865 -0.1693 -0.1831  0.4240
19447TIP3    H179832   6.095   3.013  11.819  1.2187 -0.9843  2.3119
19447TIP3    H279833   6.037   3.152  11.798  1.5783 -1.3043 -1.6213
19448TIP3   OH279834   6.570   0.713  13.481  0.0333  0.5510  0.5380
19448TIP3    H179835   6.542   0.640  13.426  0.3178 -0.1123  1.2607
19448TIP3    H279836   6.621   0.769  13.421 -1.4553  0.9717 -0.3969
19449TIP3   OH279837   6.611   0.101  15.989  0.0274 -0.0995  0.6240
19449TIP3    H179838   6.575   0.048  16.061  0.0027 -0.4358  0.3683
19449TIP3    H279839   6.600   0.046  15.911  1.5747 -0.4573  0.6159
19450TIP3   OH279840   5.843   1.750  16.362 -0.4331  0.0049 -0.3268
19450TIP3    H179841   5.835   1.717  16.273 -1.7473 -2.6604  0.6496
19450TIP3    H279842   5.923   1.710  16.396 -1.5383 -1.5905  0.5707
19451TIP3   OH279843   6.674   4.738  16.381  0.1923 -0.5624 -0.0680
19451TIP3    H179844   6.660   4.726  16.475 -0.2646  1.5978  0.2033
19451TIP3    H279845   6.586   4.742  16.344  0.2367  1.6333 -0.0800
19452TIP3   OH279846   4.378   4.432  14.223 -0.0716  0.2068 -0.1187
19452TIP3    H179847   4.472   4.416  14.211  0.0115  1.2216 -0.9557
19452TIP3    H279848   4.345   4.449  14.135 -1.0155  0.0588  0.1924
19453TIP3   OH279849   2.275   6.141  11.992 -0.1600  0.3753 -0.3696
19453TIP3    H179850   2.315   6.101  12.070  0.2785 -0.3317 -0.9504
19453TIP3    H279851   2.181   6.141  12.012  0.0950  2.6302  1.2742
19454TIP3   OH279852   6.022   0.690   0.725 -0.1190 -0.3035  0.3619
19454TIP3    H179853   5.947   0.696   0.667  1.2271  0.7207 -1.3756
19454TIP3    H279854   6.003   0.615   0.781 -2.2493 -0.2878 -0.2431
19455TIP3   OH279855   0.734   5.146  10.423  0.1718  0.0507 -0.4791
19455TIP3    H179856   0.779   5.162  10.340 -0.0367 -1.2917 -0.8763
19455TIP3    H279857   0.728   5.051  10.429  0.9139  0.0862  1.4796
19456TIP3   OH279858   1.939   5.109   4.465 -0.0817 -0.1075  0.1055
19456TIP3    H179859   1.930   5.020   4.499  1.8288 -0.0637  0.8353
19456TIP3    H279860   2.020   5.108   4.413 -0.4261  1.0222 -0.5034
19457TIP3   OH279861   0.963   2.939  13.288 -0.2011 -0.0491  0.6119
19457TIP3    H179862   1.055   2.913  13.285 -0.3193 -0.3714 -0.4435
19457TIP3    H279863   0.963   3.034  13.275  0.0119  0.0302  1.1708
19458TIP3   OH279864   1.433   2.090   1.628 -0.0919  0.2644 -0.0915
19458TIP3    H179865   1.408   1.999   1.648 -1.0821  0.6732  0.6248
19458TIP3    H279866   1.376   2.114   1.555 -1.6376  1.0786  1.3051
19459TIP3   OH279867   3.467   2.986   4.414  0.0696 -0.3404 -0.1681
19459TIP3    H179868   3.498   2.927   4.482 -0.9278 -1.4663 -0.6598
19459TIP3    H279869   3.500   3.072   4.440  0.7714 -0.9496  1.0464
19460TIP3   OH279870   1.951   2.133   4.402  0.4834  0.1433 -0.1302
19460TIP3    H179871   1.969   2.210   4.348  1.8014 -0.1312 -0.1168
19460TIP3    H279872   1.855   2.126   4.402  0.4231  0.5050 -1.9199
19461TIP3   OH279873   0.066   5.554   5.717 -0.1567  0.2083 -0.7297
19461TIP3    H179874   0.100   5.614   5.783 -0.4410 -2.0203  1.6342
19461TIP3    H279875   0.140   5.498   5.693 -0.8102 -1.2455  0.4404
19462TIP3   OH279876   5.695   5.378   5.904  0.2794 -0.3654 -0.7254
19462TIP3    H179877   5.765   5.437   5.877  0.5044  0.4522  1.4579
19462TIP3    H279878   5.617   5.434   5.908 -0.1025 -0.8425 -1.2422
19463TIP3   OH279879   5.276   5.004   4.767  0.4688 -0.5909 -0.1857
19463TIP3    H179880   5.370   5.024   4.763  0.7374 -1.8029 -0.2787
19463TIP3    H279881   5.233   5.089   4.755  1.5483 -0.0018 -0.0352
19464TIP3   OH279882   4.765   4.842   0.022 -0.2753 -0.4563  0.0345
19464TIP3    H179883   4.684   4.794   0.003 -0.5925 -0.2545  0.8181
19464TIP3    H279884   4.742   4.934   0.008 -0.0812 -0.4247 -0.0770
19465TIP3   OH279885   6.166   4.333   3.466  0.2350  0.4166  0.0060
19465TIP3    H179886   6.187   4.426   3.470 -2.0420  0.9621  0.8666
19465TIP3    H279887   6.123   4.314   3.549  1.6574 -1.7307  0.3487
19466TIP3   OH279888   0.589   2.105  13.336 -0.5537 -0.1471  0.0533
19466TIP3    H179889   0.635   2.051  13.272  1.6630  0.0904  1.3147
19466TIP3    H279890   0.578   2.190  13.292 -0.8871 -0.5734 -0.6998
19467TIP3   OH279891   1.519   5.345  16.914  0.3472  1.0972  0.2095
19467TIP3    H179892   1.471   5.428  16.908  0.2531  1.1134  1.0930
19467TIP3    H279893   1.454   5.278  16.891 -0.1369  1.1127  1.4729
19468TIP3   OH279894   3.532   1.237   0.859  0.3312 -0.0750 -0.4392
19468TIP3    H179895   3.611   1.187   0.880 -0.9027 -1.4060  1.2419
19468TIP3    H279896   3.478   1.175   0.809 -0.0470  0.5371 -0.7973
19469TIP3   OH279897   3.600   1.230  14.403 -0.3174  0.8049 -0.6489
19469TIP3    H179898   3.569   1.160  14.462  0.0799  0.9605 -0.2464
19469TIP3    H279899   3.622   1.185  14.322 -0.1652  0.4762 -0.4273
19470TIP3   OH279900   4.949   0.719  11.363  0.0162  0.3139  0.3032
19470TIP3    H179901   4.890   0.666  11.310  2.9271 -1.0508 -1.8734
19470TIP3    H279902   4.965   0.667  11.442 -0.4539 -0.0315  0.1737
19471TIP3   OH279903   0.815   6.572   1.568  0.7220 -0.3154 -0.5104
19471TIP3    H179904   0.811   6.484   1.531 -2.1016 -1.4585  2.0709
19471TIP3    H279905   0.801   6.631   1.494  0.6345 -2.1452 -2.0125
19472TIP3   OH279906   3.859   3.732  14.971  0.3023 -0.4324  0.1180
19472TIP3    H179907   3.823   3.720  14.883  1.7127 -2.5659 -0.2602
19472TIP3    H279908   3.787   3.769  15.022 -0.7810  0.1665 -1.7406
19473TIP3   OH279909   4.011   2.898   2.525 -0.5699  0.1680  0.3748
19473TIP3    H179910   3.952   2.968   2.551 -0.5727  0.5887 -0.7228
19473TIP3    H279911   4.068   2.885   2.601 -2.3573 -0.5994  1.6595
19474TIP3   OH279912   0.868   5.026  15.390 -0.4707  0.2765 -0.4632
19474TIP3    H179913   0.929   5.068  15.450  0.1075 -2.1885  0.7651
19474TIP3    H279914   0.783   5.034  15.433 -0.1331 -1.0414  0.4987
19475TIP3   OH279915   3.521   6.578  17.077  0.1450 -0.0108  0.1820
19475TIP3    H179916   3.597   6.584  17.135  1.0380  3.3341 -1.1382
19475TIP3    H279917   3.541   6.636  17.004 -2.7927 -0.6857 -1.3235
19476TIP3   OH279918   6.242   5.533   2.701 -0.1896  0.6783 -0.4558
19476TIP3    H179919   6.166   5.480   2.677 -0.1124  0.9998 -1.4634
19476TIP3    H279920   6.293   5.477   2.759 -1.4156  0.6255  0.6043
19477TIP3   OH279921   2.319   3.386  12.705  0.5358  0.6260 -0.1677
19477TIP3    H179922   2.385   3.444  12.666  1.2076 -1.1241 -1.8068
19477TIP3    H279923   2.277   3.343  12.630 -0.9284  0.0430  0.9317
19478TIP3   OH279924   2.862   4.235  14.920  0.2504 -0.4726  0.0588
19478TIP3    H179925   2.798   4.288  14.873 -0.2802 -2.5657 -1.7779
19478TIP3    H279926   2.809   4.180  14.978  0.6753  0.0873  0.9886
19479TIP3   OH279927   4.215   2.163   0.523  0.5187  0.0282  0.3531
19479TIP3    H179928   4.170   2.183   0.605 -0.9470 -1.6784  0.0249
19479TIP3    H279929   4.160   2.201   0.455  0.0686 -1.1605  0.0145
19480TIP3   OH279930   6.818   5.384   1.927  0.4788  1.0173  0.0563
19480TIP3    H179931   6.889   5.327   1.956 -0.7660 -0.8257 -0.3157
19480TIP3    H279932   6.858   5.442   1.862  1.5135 -0.4960 -0.7238
19481TIP3   OH279933   1.245   2.706  16.434  0.2398  0.6773 -0.1235
19481TIP3    H179934   1.164   2.666  16.467  0.1668  1.6096  0.8877
19481TIP3    H279935   1.249   2.791  16.477  0.9750  1.2988 -1.3534
19482TIP3   OH279936   2.108   6.631  12.776  0.0067  0.3409  0.4289
19482TIP3    H179937   2.029   6.683  12.791 -0.3797  0.3343 -1.4059
19482TIP3    H279938   2.164   6.687  12.723 -1.3936 -1.7921 -3.7271
19483TIP3   OH279939   5.866   5.675   4.007  0.3673 -0.1896  0.1802
19483TIP3    H179940   5.930   5.634   3.949  1.0658  2.9555 -1.4653
19483TIP3    H279941   5.918   5.730   4.065 -0.6410 -0.0031  0.9351
19484TIP3   OH279942   6.741   6.346  11.191 -0.3611  0.4580  0.1006
19484TIP3    H179943   6.827   6.384  11.175 -0.0592 -0.2098  0.1070
19484TIP3    H279944   6.717   6.376  11.279 -0.1207  0.6105  0.1129
19485TIP3   OH279945   6.587   3.681  16.050  0.0211 -1.3159  0.1178
19485TIP3    H179946   6.608   3.639  16.133  2.3170  0.1893  0.3815
19485TIP3    H279947   6.592   3.774  16.069 -0.6935 -0.9346 -1.4394
19486TIP3   OH279948   5.805   1.835  12.964  0.2217  0.6280  0.2445
19486TIP3    H179949   5.884   1.784  12.947 -0.7799 -0.6892 -0.6173
19486TIP3    H279950   5.747   1.815  12.891 -1.1026  1.1919  1.1030
19487TIP3   OH279951   0.785   0.879   4.701  0.4372  0.5079  0.1298
19487TIP3    H179952   0.780   0.974   4.705 -0.3037  0.4491  0.9404
19487TIP3    H279953   0.756   0.857   4.612  1.0486  1.0518 -0.2121
19488TIP3   OH279954   1.230   4.968   2.977  0.4621 -0.1446 -0.2736
19488TIP3    H179955   1.273   5.036   3.029 -2.3276  0.8223  0.9416
19488TIP3    H279956   1.211   4.898   3.039  0.1556 -0.4971 -0.7534
19489TIP3   OH279957   1.388   0.590   0.574  0.3295 -0.3695  0.1614
19489TIP3    H179958   1.389   0.641   0.493  1.1082  0.0169  0.4086
19489TIP3    H279959   1.325   0.634   0.630 -0.4187 -0.7981 -0.3282
19490TIP3   OH279960   2.052   4.705   1.452 -0.2905  0.8110  0.3023
19490TIP3    H179961   2.129   4.761   1.453  1.0580 -0.8872 -1.4525
19490TIP3    H279962   2.084   4.618   1.476 -0.2704 -1.2769 -5.6943
19491TIP3   OH279963   5.440   6.506  10.821  0.4455  0.5192 -0.1327
19491TIP3    H179964   5.379   6.505  10.748  0.0609 -1.3963  0.1557
19491TIP3    H279965   5.526   6.489  10.781  0.5674  1.5847 -0.3511
19492TIP3   OH279966   5.830   4.609  13.320  0.2034  0.2675  0.5578
19492TIP3    H179967   5.867   4.534  13.368  1.6199  0.7566  0.2691
19492TIP3    H279968   5.750   4.630  13.368  0.2744 -0.8305  1.2116
19493TIP3   OH279969   2.833   1.576  13.819 -0.6055  0.2242 -0.8489
19493TIP3    H179970   2.804   1.510  13.883 -0.7553 -0.6369 -1.7766
19493TIP3    H279971   2.790   1.657  13.847  1.5541  0.5858  1.8234
19494TIP3   OH279972   0.230   2.837  11.649 -0.1619  0.3934  0.0630
19494TIP3    H179973   0.310   2.860  11.604  0.3698  1.2518  1.3792
19494TIP3    H279974   0.164   2.895  11.613  0.2135  0.9306  0.2299
19495TIP3   OH279975   0.662   6.663  12.130  0.1342 -0.6919 -0.2081
19495TIP3    H179976   0.645   6.744  12.081  2.5502 -0.1653 -0.2971
19495TIP3    H279977   0.657   6.594  12.064  0.3415 -0.3534 -0.5829
19496TIP3   OH279978   2.036   0.395   0.988  0.3225 -0.2247  0.3562
19496TIP3    H179979   1.997   0.374   0.904  3.5097 -0.8470 -1.1146
19496TIP3    H279980   2.073   0.312   1.020  0.5346  0.3140  1.5912
19497TIP3   OH279981   0.482   4.158   2.152  0.1635 -0.3320 -0.2383
19497TIP3    H179982   0.494   4.093   2.083 -0.4859 -1.4804  0.6873
19497TIP3    H279983   0.558   4.147   2.209 -0.3102 -0.8144  0.3187
19498TIP3   OH279984   4.543   6.599  11.076 -0.4757  0.1978 -0.5346
19498TIP3    H179985   4.503   6.582  11.162  0.9417  1.4586  0.4360
19498TIP3    H279986   4.492   6.671  11.040  0.5908  1.5392  0.5237
19499TIP3   OH279987   5.418   1.497  14.849 -0.2043 -0.3653 -0.0556
19499TIP3    H179988   5.433   1.563  14.781 -0.3884  0.1128  0.3556
19499TIP3    H279989   5.400   1.416  14.801  2.0261 -0.6141 -0.5835
19500TIP3   OH279990   1.445   4.236  11.764 -0.4780  0.1201 -0.3052
19500TIP3    H179991   1.392   4.203  11.837  0.1663 -1.5247 -0.5524
19500TIP3    H279992   1.534   4.211  11.786  0.1292  2.0892 -0.3353
19501TIP3   OH279993   6.782   2.342  15.225 -0.2934  0.0057  0.4384
19501TIP3    H179994   6.759   2.279  15.293  0.6696  0.3923  1.1497
19501TIP3    H279995   6.730   2.420  15.246  0.7455  0.4780  1.3584
19502TIP3   OH279996   3.090   5.414  11.986 -0.0729  0.7321 -0.3327
19502TIP3    H179997   3.071   5.448  12.074  1.2005  0.4318  0.0798
19502TIP3    H279998   3.124   5.326  12.002 -2.2133 -0.3346 -1.3154
19503TIP3   OH279999   1.559   4.023   3.067 -0.8471 -0.5005 -0.1852
19503TIP3    H180000   1.472   4.022   3.028 -1.0156 -1.2453  0.1989
19503TIP3    H280001   1.611   4.077   3.008 -1.2430 -1.1380 -1.1344
19504TIP3   OH280002   6.730   3.117   0.437 -0.1141  0.5077 -0.3011
19504TIP3    H180003   6.735   3.188   0.501  0.1737  0.3650 -0.1617
19504TIP3    H280004   6.810   3.126   0.385 -0.4831  0.7948 -0.8275
19505TIP3   OH280005   6.752   0.512   5.605 -0.0449  0.2696 -0.1337
19505TIP3    H180006   6.664   0.492   5.638 -0.7865  0.6652 -1.7573
19505TIP3    H280007   6.797   0.552   5.680 -1.3614  0.3648  0.6412
19506TIP3   OH280008   5.326   6.280  12.875 -0.2030  0.1262  1.0994
19506TIP3    H180009   5.244   6.308  12.834 -0.6304 -0.2369  1.6851
19506TIP3    H280010   5.377   6.361  12.883 -0.6513  0.4199  1.0666
19507TIP3   OH280011   1.680   1.339   4.560 -0.5750 -0.4373 -0.0866
19507TIP3    H180012   1.618   1.266   4.559  0.6529 -1.5410 -1.5555
19507TIP3    H280013   1.729   1.329   4.478  1.3185  0.5691  0.8748
19508TIP3   OH280014   1.122   0.990  11.667 -0.3897  0.7482  0.3007
19508TIP3    H180015   1.183   0.924  11.635 -1.2322  0.2781 -0.3729
19508TIP3    H280016   1.163   1.073  11.643 -1.3812  0.4500 -2.9943
19509TIP3   OH280017   0.190   1.007  15.762  0.1166 -0.8744  0.0502
19509TIP3    H180018   0.161   1.018  15.852  0.6458 -0.6080  0.1939
19509TIP3    H280019   0.109   1.003  15.711 -0.2142 -2.1437  0.6487
19510TIP3   OH280020   6.379   1.057   1.044  0.0775  0.8058 -0.3677
19510TIP3    H180021   6.370   1.087   1.134  1.2904 -0.4547  0.2156
19510TIP3    H280022   6.333   0.973   1.041  2.1383 -0.4105 -0.1827
19511TIP3   OH280023   3.851   3.502  11.085 -0.3301 -0.0250  0.0211
19511TIP3    H180024   3.779   3.493  11.024 -0.4270 -0.2742  0.1738
19511TIP3    H280025   3.927   3.468  11.038 -0.5127 -0.7595  0.2467
19512TIP3   OH280026   6.392   4.796   0.577  0.4768  0.2363 -0.0435
19512TIP3    H180027   6.416   4.888   0.592  0.0315  0.3546 -0.0356
19512TIP3    H280028   6.466   4.760   0.528  0.1781  0.9010 -1.0342
19513TIP3   OH280029   0.937   4.612  15.392  0.1029  0.2085 -0.3694
19513TIP3    H180030   0.889   4.622  15.475  1.8985  1.5766  0.5659
19513TIP3    H280031   1.001   4.683  15.392  1.2878 -0.7778 -2.1564
19514TIP3   OH280032   5.706   5.283  15.275  0.3462 -0.1086 -0.3059
19514TIP3    H180033   5.661   5.310  15.195  0.0750 -0.7564 -0.3805
19514TIP3    H280034   5.650   5.216  15.313 -0.3509  1.3191  1.3152
19515TIP3   OH280035   6.095   4.181  13.696 -0.0841  0.0561 -0.0598
19515TIP3    H180036   6.033   4.160  13.627 -0.1735 -0.1385  0.0796
19515TIP3    H280037   6.100   4.102  13.749  0.7927 -0.1619 -0.4537
19516TIP3   OH280038   2.585   2.248  15.984 -0.4633  0.2319  0.3671
19516TIP3    H180039   2.597   2.323  16.042  0.5003  0.3934 -0.0455
19516TIP3    H280040   2.606   2.172  16.039  0.2322  0.3713  0.2917
19517TIP3   OH280041   4.674   1.202  10.757  0.4367  0.1236 -0.1544
19517TIP3    H180042   4.649   1.112  10.740  1.3157  0.0121 -0.9725
19517TIP3    H280043   4.768   1.204  10.739  0.0559  1.6797 -2.2730
19518TIP3   OH280044   5.023   3.754  13.688 -0.1158  0.0479  0.6200
19518TIP3    H180045   5.061   3.815  13.750  0.9457 -0.6508  0.6803
19518TIP3    H280046   4.981   3.687  13.743 -0.3031  0.1238  0.5696
19519TIP3   OH280047   2.583   3.405  11.702  0.9377  0.2588 -0.3873
19519TIP3    H180048   2.532   3.418  11.623 -1.2516  1.2703  1.0981
19519TIP3    H280049   2.636   3.327  11.684 -0.2365 -0.1311 -2.4453
19520TIP3   OH280050   0.118   2.170  12.104 -0.6525 -0.3441  0.5403
19520TIP3    H180051   0.148   2.258  12.128  1.2146 -0.9622  0.6994
19520TIP3    H280052   0.024   2.178  12.094 -0.4038  1.9660 -0.6573
19521TIP3   OH280053   1.125   2.934  13.723  0.0501  0.4191 -0.6278
19521TIP3    H180054   1.062   2.873  13.685 -0.0600 -0.1297  0.3929
19521TIP3    H280055   1.075   3.013  13.740 -1.3851 -1.0564  3.2827
19522TIP3   OH280056   3.864   5.067  12.686 -0.0481 -0.2176  0.5266
19522TIP3    H180057   3.793   5.088  12.625  0.1961  0.8686  0.5857
19522TIP3    H280058   3.823   5.012  12.753 -0.8129  0.2852  0.4866
19523TIP3   OH280059   5.078   4.772  12.862 -0.4316  0.1237  0.6109
19523TIP3    H180060   5.092   4.860  12.895  2.1247  1.4303 -3.3314
19523TIP3    H280061   4.984   4.766  12.848 -0.6520  2.1979  0.9938
19524TIP3   OH280062   1.451   0.269   2.835  0.7250 -0.3741 -0.4729
19524TIP3    H180063   1.422   0.355   2.865 -1.7482 -1.5714  0.9231
19524TIP3    H280064   1.386   0.243   2.770 -0.2885 -2.2815  1.1852
19525TIP3   OH280065   5.623   3.003  15.692 -0.0719 -0.8333  0.8017
19525TIP3    H180066   5.566   2.932  15.722 -1.4757  0.0240  0.3060
19525TIP3    H280067   5.576   3.083  15.716  0.6002 -0.0959 -0.2290
19526TIP3   OH280068   3.987   3.055  14.649 -0.0126 -0.0398 -0.0470
19526TIP3    H180069   3.904   3.092  14.618  0.0385 -0.3945 -0.6069
19526TIP3    H280070   4.038   3.132  14.675 -0.1058  0.2528 -0.7076
19527TIP3   OH280071   6.738   0.433  15.421 -0.0376  0.0852  0.0979
19527TIP3    H180072   6.643   0.434  15.413 -0.1435  0.0591  1.1618
19527TIP3    H280073   6.762   0.525  15.430  0.2186  0.2397 -1.7604
19528TIP3   OH280074   5.072   2.086   3.313 -0.3565  0.5641 -0.8931
19528TIP3    H180075   5.141   2.142   3.348 -0.7131  2.1558 -2.5849
19528TIP3    H280076   4.992   2.136   3.324 -0.9011 -0.2199 -1.1709
19529TIP3   OH280077   0.496   2.559   2.165  0.3993 -0.2189  1.1113
19529TIP3    H180078   0.544   2.557   2.082 -0.2815  0.1863  0.6931
19529TIP3    H280079   0.528   2.484   2.214  0.6923 -0.5602  0.4042
19530TIP3   OH280080   3.206   1.476  14.701 -0.1747  0.3265 -0.2752
19530TIP3    H180081   3.296   1.466  14.673 -0.2063  0.8463 -0.5825
19530TIP3    H280082   3.210   1.537  14.775 -0.1718 -0.4368  0.3657
19531TIP3   OH280083   6.311   1.454  14.148 -0.1572 -0.0738 -0.4446
19531TIP3    H180084   6.403   1.472  14.168  0.2015 -1.8171 -0.3403
19531TIP3    H280085   6.298   1.491  14.061 -0.1678  2.6286  0.6060
19532TIP3   OH280086   2.927   5.375   1.522  0.0657 -0.3079  0.5735
19532TIP3    H180087   2.851   5.340   1.569 -0.1751 -1.1369 -0.3851
19532TIP3    H280088   2.889   5.422   1.448  0.4733 -1.4258 -0.3851
19533TIP3   OH280089   5.111   3.515  14.884  0.2439  0.5387 -0.2418
19533TIP3    H180090   5.028   3.472  14.862 -1.2039  2.2948  1.4323
19533TIP3    H280091   5.163   3.446  14.926 -0.4024 -0.5576 -1.1906
19534TIP3   OH280092   1.614   6.327   3.925 -0.1477 -0.1990  0.1144
19534TIP3    H180093   1.624   6.235   3.951 -1.3507 -0.5884 -0.7261
19534TIP3    H280094   1.594   6.373   4.006 -1.4831 -0.9975  0.2570
19535TIP3   OH280095   2.654   1.017   3.435 -0.5841  0.4118  0.2616
19535TIP3    H180096   2.612   0.938   3.469 -0.1027 -1.1276 -2.4177
19535TIP3    H280097   2.619   1.027   3.347  1.8654  1.2064 -0.7069
19536TIP3   OH280098   1.061   0.098  12.132 -0.2336 -0.0619  0.2576
19536TIP3    H180099   1.025   0.020  12.174  1.0875 -0.1260  1.3408
19536TIP3    H280100   0.995   0.166  12.149 -0.3905 -0.4267  1.2207
19537TIP3   OH280101   1.609   2.785  13.213  0.2904 -0.0006  0.7526
19537TIP3    H180102   1.595   2.856  13.276  0.9345  0.8212 -0.0031
19537TIP3    H280103   1.684   2.737  13.247 -1.4357 -1.7189  2.4395
19538TIP3   OH280104   2.503   5.515  12.138  0.3230 -0.1175  0.3939
19538TIP3    H180105   2.535   5.597  12.175  1.8032 -0.0567 -0.9303
19538TIP3    H280106   2.556   5.447  12.181 -0.0979 -0.3055  0.6285
19539TIP3   OH280107   0.447   3.385   2.956  0.0843 -0.0160 -0.4514
19539TIP3    H180108   0.469   3.321   3.024 -0.7006  0.4274  0.2363
19539TIP3    H280109   0.411   3.333   2.884 -1.5151 -0.2981  0.5023
19540TIP3   OH280110   4.046   3.262  13.969  0.4364  0.0227 -0.2878
19540TIP3    H180111   4.041   3.244  13.875 -1.3180 -1.0627 -0.0348
19540TIP3    H280112   4.114   3.329  13.977  2.1887 -1.4089 -2.0722
19541TIP3   OH280113   5.165   1.696   5.528 -0.1202  0.5026  0.5239
19541TIP3    H180114   5.164   1.629   5.459 -2.7459  0.5982  0.3622
19541TIP3    H280115   5.097   1.669   5.589  0.3013  1.8642  1.6581
19542TIP3   OH280116   3.555   1.087  11.960  0.1515  0.6452  0.3771
19542TIP3    H180117   3.484   1.070  12.021  0.1296  1.6435  0.6496
19542TIP3    H280118   3.515   1.138  11.889 -0.1541 -1.7389 -1.2685
19543TIP3   OH280119   1.057   5.003  16.040  0.2791  0.1954 -0.3883
19543TIP3    H180120   0.975   5.050  16.026 -0.7386 -0.9273  1.4137
19543TIP3    H280121   1.052   4.927  15.981  0.9654  1.1308 -1.7195
19544TIP3   OH280122   3.938   3.304  16.055 -0.1747 -0.7226  0.1944
19544TIP3    H180123   3.878   3.368  16.016 -0.4119 -0.9878  0.1158
19544TIP3    H280124   3.880   3.241  16.099  0.1407  0.9677  3.2367
19545TIP3   OH280125   5.658   1.414  15.853 -0.3022  0.0116 -0.9990
19545TIP3    H180126   5.747   1.384  15.868  0.6218  1.4447 -3.1644
19545TIP3    H280127   5.602   1.344  15.887  1.5835 -0.5104  1.2607
19546TIP3   OH280128   4.989   2.173  11.921 -0.1111  0.5312  0.0684
19546TIP3    H180129   5.016   2.257  11.885 -0.8697  0.8987  0.3398
19546TIP3    H280130   5.060   2.149  11.981  0.1158  0.9650 -0.0192
19547TIP3   OH280131   5.677   0.088   5.170 -0.1747  0.0067  0.0184
19547TIP3    H180132   5.586   0.063   5.188  0.0229 -1.2617 -0.6618
19547TIP3    H280133   5.670   0.178   5.137 -1.1565  0.0256  0.2341
19548TIP3   OH280134   3.192   1.057  16.562 -0.1833  0.3703 -0.6373
19548TIP3    H180135   3.098   1.066  16.577 -0.2249 -0.1795 -0.5471
19548TIP3    H280136   3.199   0.995  16.490  0.1027  0.6726 -0.8689
19549TIP3   OH280137   3.875   0.649  11.035  0.4497 -0.3240 -0.5827
19549TIP3    H180138   3.855   0.598  10.956 -0.1439 -0.4619 -0.3460
19549TIP3    H280139   3.799   0.637  11.091  1.0101 -0.5010  0.1562
19550TIP3   OH280140   1.442   6.302   5.268  0.3648  0.3848 -0.2120
19550TIP3    H180141   1.368   6.256   5.227  0.4449 -0.9138  1.0450
19550TIP3    H280142   1.482   6.237   5.325  1.2975  1.6587  0.6280
19551TIP3   OH280143   3.692   1.754  14.905 -0.0842  0.0556  0.0255
19551TIP3    H180144   3.608   1.733  14.945  0.8002 -1.1563  1.3432
19551TIP3    H280145   3.732   1.817  14.964  0.3171 -0.0900 -0.0834
19552TIP3   OH280146   0.994   0.640  12.670  0.2630  0.2515 -0.2501
19552TIP3    H180147   0.943   0.611  12.594  0.2568 -0.3254 -0.0377
19552TIP3    H280148   1.085   0.630  12.643  0.2617  0.7992 -0.4553
19553TIP3   OH280149   5.118   3.353  12.071  0.4902  0.1112 -0.0953
19553TIP3    H180150   5.035   3.319  12.040 -0.4359  2.0239  0.1212
19553TIP3    H280151   5.148   3.290  12.136 -0.4081 -0.9834 -0.7178
19554TIP3   OH280152   5.896   4.021  16.837 -0.3070  0.2372 -0.1133
19554TIP3    H180153   5.900   4.021  16.933  0.8060 -2.7726 -0.0317
19554TIP3    H280154   5.981   3.986  16.810 -1.4191 -1.2114 -2.0511
19555TIP3   OH280155   3.616   6.124   2.216 -0.0223  0.6534  0.3775
19555TIP3    H180156   3.703   6.090   2.197 -0.6264  0.0788 -1.6709
19555TIP3    H280157   3.618   6.147   2.309  1.8386 -0.7244  0.7256
19556TIP3   OH280158   4.545   3.299   0.476 -0.0797  0.7040 -0.2467
19556TIP3    H180159   4.591   3.381   0.494  0.4110  0.7158 -1.4528
19556TIP3    H280160   4.601   3.253   0.414 -1.7454  0.7923 -1.9178
19557TIP3   OH280161   4.857   4.792   1.209  0.8333  0.1882  0.2772
19557TIP3    H180162   4.895   4.865   1.159  0.4430  0.0763 -0.1855
19557TIP3    H280163   4.897   4.714   1.171  1.9132  0.1931  1.3429
19558TIP3   OH280164   2.384   5.968  14.998  0.2626 -0.0353  0.0256
19558TIP3    H180165   2.435   5.890  15.018 -0.9767 -0.8270  0.2145
19558TIP3    H280166   2.295   5.936  14.986 -0.0672  1.1917 -1.0834
19559TIP3   OH280167   4.165   4.809   6.554  0.1682 -0.4184 -0.0653
19559TIP3    H180168   4.260   4.811   6.568 -0.0609  1.0930  1.6826
19559TIP3    H280169   4.149   4.875   6.487  0.3327 -0.6420 -0.3282
19560TIP3   OH280170   5.473   5.767   2.606  0.1229  1.0361 -1.0454
19560TIP3    H180171   5.518   5.828   2.664 -0.6510  0.2700  0.4088
19560TIP3    H280172   5.432   5.823   2.540  0.2741  2.0035 -0.3468
19561TIP3   OH280173   1.794   4.979   0.800  0.5933 -0.1917 -0.1874
19561TIP3    H180174   1.849   5.056   0.794  1.3175 -0.6812  0.0582
19561TIP3    H280175   1.707   5.010   0.775  1.2354  0.2963 -1.9826
19562TIP3   OH280176   1.604   3.358   0.655  0.0858  0.0822  0.0567
19562TIP3    H180177   1.613   3.268   0.624  1.3761 -0.0477  0.7109
19562TIP3    H280178   1.560   3.350   0.740 -0.4335  0.1375 -0.2047
19563TIP3   OH280179   4.356   2.312  15.311 -0.0769  0.3925 -0.7550
19563TIP3    H180180   4.266   2.324  15.341 -0.1409 -0.1441 -0.7079
19563TIP3    H280181   4.373   2.218  15.325  0.3875  0.4319 -1.0345
19564TIP3   OH280182   5.670   3.891   0.425 -0.7713  0.8607  0.6571
19564TIP3    H180183   5.695   3.978   0.394 -2.5181  1.4616  0.7890
19564TIP3    H280184   5.643   3.844   0.347 -1.8811  1.2000  0.8154
19565TIP3   OH280185   6.259   5.122   3.010  0.2394 -0.0154 -0.0610
19565TIP3    H180186   6.165   5.111   3.017 -0.0085  0.8781 -1.4936
19565TIP3    H280187   6.280   5.193   3.071 -0.2043  0.5466 -0.5519
19566TIP3   OH280188   6.063   0.560  15.333 -0.2632  0.1132  0.2165
19566TIP3    H180189   6.074   0.467  15.310 -2.4246 -0.1704  0.1584
19566TIP3    H280190   6.073   0.606  15.250  2.6173  0.1916  0.4950
19567TIP3   OH280191   6.171   5.237  14.747  0.3209 -1.0831 -0.1409
19567TIP3    H180192   6.095   5.287  14.717 -0.9231 -2.1957  1.0377
19567TIP3    H280193   6.208   5.290  14.818  0.6219 -0.5801 -0.6618
19568TIP3   OH280194   2.048   4.497  11.970 -0.1507 -0.1102  0.1548
19568TIP3    H180195   2.129   4.464  12.008 -1.2026 -1.7783  1.0499
19568TIP3    H280196   2.067   4.588  11.948  1.6863 -0.2193  1.1358
19569TIP3   OH280197   5.116   0.553   0.887 -0.8693  0.2292 -0.2855
19569TIP3    H180198   5.099   0.474   0.835  0.8189  0.2344 -0.9359
19569TIP3    H280199   5.133   0.621   0.822  0.3388  0.4657  0.2381
19570TIP3   OH280200   1.605   5.009   6.514 -0.0807 -0.1611 -0.3769
19570TIP3    H180201   1.509   5.007   6.511 -0.2436  1.3017  1.5134
19570TIP3    H280202   1.625   5.093   6.556  1.9829 -0.8783  0.1775
19571TIP3   OH280203   1.894   4.449  11.019 -0.3648  0.0327 -0.0245
19571TIP3    H180204   1.927   4.514  10.957  0.3348 -0.7730 -0.5196
19571TIP3    H280205   1.912   4.365  10.977  0.3319 -0.5446  1.3740
19572TIP3   OH280206   2.116   1.754   4.777  0.5438  0.6938  0.1555
19572TIP3    H180207   2.118   1.850   4.778  0.2345  0.7015  0.9189
19572TIP3    H280208   2.059   1.732   4.703 -0.9829  1.1504  1.1402
19573TIP3   OH280209   4.593   5.327  14.881  0.5216  0.1534 -0.2866
19573TIP3    H180210   4.592   5.264  14.809 -0.3176 -0.7870  0.5007
19573TIP3    H280211   4.513   5.378  14.869 -0.0817 -0.5936  0.4511
19574TIP3   OH280212   0.573   0.154   1.905  0.0861  0.2794  0.4549
19574TIP3    H180213   0.509   0.221   1.928 -1.2110 -0.8109  0.1226
19574TIP3    H280214   0.527   0.071   1.919  1.1865 -0.5183 -0.5011
19575TIP3   OH280215   5.621   5.876   0.928  0.2374 -0.4246  0.2144
19575TIP3    H180216   5.650   5.795   0.969 -0.2993 -0.8886 -0.3067
19575TIP3    H280217   5.634   5.943   0.995  0.5448 -0.9636  0.6986
19576TIP3   OH280218   3.816   2.603   0.141 -0.4279 -0.1698  0.0168
19576TIP3    H180219   3.727   2.604   0.107 -0.3098 -2.1863 -0.5096
19576TIP3    H280220   3.859   2.532   0.093  1.0732 -0.1335  1.2217
19577TIP3   OH280221   5.779   0.325  11.345 -0.0565  0.3695  0.2766
19577TIP3    H180222   5.841   0.314  11.417 -0.0497  0.2691  0.2559
19577TIP3    H280223   5.812   0.400  11.295  1.4709 -1.1818 -1.1887
19578TIP3   OH280224   3.366   0.544   4.880 -0.0632 -0.1625 -0.6621
19578TIP3    H180225   3.424   0.614   4.910  1.5659 -1.4444 -0.6539
19578TIP3    H280226   3.334   0.504   4.960 -0.6017  0.2433 -0.6686
19579TIP3   OH280227   6.254   2.661  13.022 -0.1158  0.2197 -0.4588
19579TIP3    H180228   6.225   2.569  13.027  0.6182 -0.0907 -1.5815
19579TIP3    H280229   6.252   2.691  13.113 -3.4973  0.0998 -0.3612
19580TIP3   OH280230   3.089   1.942  15.757 -0.9881  0.0413 -0.5601
19580TIP3    H180231   3.051   2.025  15.785 -1.2671 -0.4051  0.4535
19580TIP3    H280232   3.145   1.915  15.830  0.7220  0.3182 -1.7303
19581TIP3   OH280233   1.837   6.238  13.405  0.2193 -0.4038 -0.0204
19581TIP3    H180234   1.763   6.214  13.460 -0.7750  2.1812 -0.0966
19581TIP3    H280235   1.798   6.263  13.322  1.4999 -1.9091 -1.1331
19582TIP3   OH280236   1.012   3.300   0.750  0.1538  0.0952  0.1862
19582TIP3    H180237   1.056   3.378   0.783  2.2457 -0.4988 -1.0125
19582TIP3    H280238   1.047   3.228   0.803  1.1361 -0.4546 -1.1368
19583TIP3   OH280239   1.130   3.631  15.148  0.5670 -0.0409  0.4220
19583TIP3    H180240   1.179   3.619  15.229  0.7703  1.9053  0.6349
19583TIP3    H280241   1.039   3.642  15.177  0.6575  0.7867  0.4326
19584TIP3   OH280242   6.506   1.338  16.159 -0.1595 -0.4554  0.7228
19584TIP3    H180243   6.494   1.277  16.232  0.5510 -0.9457  0.4520
19584TIP3    H280244   6.478   1.423  16.193  1.1685 -0.4551  1.9522
19585TIP3   OH280245   4.539   5.400  12.111  0.1419 -0.1314  0.3679
19585TIP3    H180246   4.480   5.343  12.063  0.2589  0.3069 -0.3104
19585TIP3    H280247   4.625   5.385  12.073  0.5423 -0.9682  1.5355
19586TIP3   OH280248   2.289   4.653   0.690  0.0800  0.2123 -0.6063
19586TIP3    H180249   2.204   4.632   0.729 -1.0596  0.8324 -2.6292
19586TIP3    H280250   2.320   4.569   0.655 -0.0463  0.1395 -0.5470
19587TIP3   OH280251   1.268   0.187  13.493  0.4515 -0.3795 -0.2705
19587TIP3    H180252   1.248   0.096  13.515  1.1525 -0.6027 -0.5075
19587TIP3    H280253   1.260   0.191  13.397 -1.0070  0.1795 -0.1440
19588TIP3   OH280254   6.648   5.323   0.659 -0.7130  0.0510  0.0861
19588TIP3    H180255   6.654   5.398   0.599  0.2007  0.4730  0.6773
19588TIP3    H280256   6.739   5.302   0.679 -0.9554  1.7199  3.5130
19589TIP3   OH280257   6.020   3.439  14.865 -0.0581 -1.0090 -0.3005
19589TIP3    H180258   6.049   3.358  14.823  1.0611  0.1753 -1.9365
19589TIP3    H280259   6.067   3.441  14.948  1.8948 -0.8984 -1.3359
19590TIP3   OH280260   0.609   1.449  12.429  0.3304 -0.3025  0.3280
19590TIP3    H180261   0.595   1.504  12.352  1.8313 -0.2026  0.0851
19590TIP3    H280262   0.551   1.485  12.496 -0.6295 -0.0756 -0.5942
19591TIP3   OH280263   2.053   3.052  14.445  0.0438 -0.0278  0.2661
19591TIP3    H180264   1.987   3.062  14.376 -0.1907 -0.1120  0.4731
19591TIP3    H280265   2.070   2.958  14.449 -1.0414 -0.2180  1.3103
19592TIP3   OH280266   4.060   2.360   2.393  0.2123 -0.3950 -0.2739
19592TIP3    H180267   3.977   2.329   2.431  0.5878 -1.4910 -0.3109
19592TIP3    H280268   4.077   2.299   2.321 -0.4730  1.6281 -2.2411
19593TIP3   OH280269   4.875   1.283   5.251  0.0035  0.1612  0.8780
19593TIP3    H180270   4.919   1.317   5.329 -1.0696 -0.3551  1.7367
19593TIP3    H280271   4.876   1.188   5.263 -0.7299  0.1128  0.5721
19594TIP3   OH280272   6.048   5.037  14.571  0.5960 -0.2535  0.1201
19594TIP3    H180273   6.065   5.108  14.633  2.0920 -1.0126  0.6186
19594TIP3    H280274   6.013   4.966  14.625  0.3928 -0.3633 -0.1559
19595TIP3   OH280275   4.033   5.325   3.953 -0.0537 -0.2642  0.0281
19595TIP3    H180276   4.089   5.268   3.900  0.0334 -0.3369  0.1944
19595TIP3    H280277   3.991   5.265   4.015 -0.8059 -0.2964 -0.5063
19596TIP3   OH280278   3.985   3.791   5.140  0.2654 -0.7042 -0.4833
19596TIP3    H180279   3.980   3.785   5.235  1.0751 -2.1330 -0.4944
19596TIP3    H280280   4.029   3.874   5.123  0.6583 -0.7209  0.4149
19597TIP3   OH280281   6.198   6.302   3.966  0.0100 -0.2262  0.4341
19597TIP3    H180282   6.126   6.352   4.003 -0.3287  0.1051 -0.6364
19597TIP3    H280283   6.163   6.213   3.957 -0.3731 -0.0000 -0.3600
19598TIP3   OH280284   2.985   2.858  12.221  0.1212  0.5821  0.2364
19598TIP3    H180285   3.046   2.800  12.266 -0.3513  0.3469  0.5795
19598TIP3    H280286   3.041   2.913  12.166  0.6790  0.6294  0.8320
19599TIP3   OH280287   0.665   1.303  11.331  0.3453  0.3552 -0.1871
19599TIP3    H180288   0.596   1.266  11.385 -0.5539 -0.7808 -2.0209
19599TIP3    H280289   0.744   1.254  11.356  0.2383  0.7012  0.9132
19600TIP3   OH280290   1.500   4.196  16.848 -0.8240  0.5099 -0.2389
19600TIP3    H180291   1.412   4.203  16.810 -2.0275 -0.3144  2.1939
19600TIP3    H280292   1.558   4.181  16.773 -2.6049  1.8808 -2.0032
19601TIP3   OH280293   4.577   2.247  13.741  0.1053  0.8729  0.7126
19601TIP3    H180294   4.636   2.291  13.680  0.4773 -2.6666 -1.7427
19601TIP3    H280295   4.634   2.204  13.804 -0.1557  1.6536  1.5101
19602TIP3   OH280296   5.482   3.198   5.698  0.1197 -0.3507  0.1576
19602TIP3    H180297   5.537   3.266   5.660 -2.8836  1.8882 -0.6151
19602TIP3    H280298   5.426   3.169   5.626  0.1622 -2.4598  0.8977
19603TIP3   OH280299   6.134   4.261  14.305  0.1884 -0.0858  0.3712
19603TIP3    H180300   6.126   4.323  14.233 -0.8411 -1.0087 -0.3336
19603TIP3    H280301   6.077   4.188  14.281 -0.6844 -0.1443  2.4189
19604TIP3   OH280302   1.232   4.196  16.775  0.3806 -0.1162 -0.5901
19604TIP3    H180303   1.197   4.207  16.687  1.6456  0.3470 -1.0494
19604TIP3    H280304   1.208   4.107  16.800 -0.4224 -0.0772 -1.1908
19605TIP3   OH280305   4.043   5.804   4.015 -0.1210  0.3817  0.3901
19605TIP3    H180306   3.993   5.824   4.093 -3.1963 -1.9129 -0.7969
19605TIP3    H280307   4.045   5.886   3.965 -1.9225  0.7781  0.9201
19606TIP3   OH280308   3.668   1.359  13.611  0.5033  0.1317  0.1486
19606TIP3    H180309   3.596   1.329  13.666  0.5662  0.2619  0.3048
19606TIP3    H280310   3.662   1.306  13.531  0.1648  0.2221  0.1135
19607TIP3   OH280311   3.599   1.105   5.302 -0.0828 -0.3747 -0.3278
19607TIP3    H180312   3.617   1.163   5.229 -1.3468 -0.1389 -0.4812
19607TIP3    H280313   3.567   1.163   5.372 -1.6174 -0.8725 -0.5746
19608TIP3   OH280314   0.013   6.255   1.236 -0.2081 -0.2949 -0.7437
19608TIP3    H180315   0.096   6.283   1.273 -0.4429 -0.3740 -0.1264
19608TIP3    H280316  -0.020   6.330   1.188  0.5546 -0.4964 -1.6071
19609TIP3   OH280317   5.093   5.787  14.477  0.5814  0.0677 -0.4091
19609TIP3    H180318   5.033   5.719  14.447  0.3732 -0.3523  0.8796
19609TIP3    H280319   5.118   5.834  14.398 -1.5472  0.3541 -0.9627
19610TIP3   OH280320   3.824   0.560   3.430  0.5094  0.2771  0.7383
19610TIP3    H180321   3.795   0.507   3.357  2.3267 -0.8010  0.7351
19610TIP3    H280322   3.823   0.650   3.397 -0.5059  0.0203  0.0340
19611TIP3   OH280323   0.855   4.074   2.140  0.2895  0.0111  0.4392
19611TIP3    H180324   0.836   4.159   2.181  2.1615  1.0100 -0.6309
19611TIP3    H280325   0.867   4.015   2.214 -2.1839  0.3443  1.2053
19612TIP3   OH280326   3.468   6.732  16.158 -0.5045  0.6296 -0.2120
19612TIP3    H180327   3.447   6.643  16.131  0.4050  0.8262 -1.6986
19612TIP3    H280328   3.386   6.767  16.193 -1.2316 -0.3243 -0.9099
19613TIP3   OH280329   4.281   4.795   2.597 -0.0469 -0.8512 -0.3638
19613TIP3    H180330   4.292   4.862   2.665 -1.0454 -1.5397  0.5160
19613TIP3    H280331   4.311   4.714   2.639  0.8281 -1.0291 -1.3037
19614TIP3   OH280332   0.064   0.929  10.694 -0.0413 -0.1371  0.3109
19614TIP3    H180333  -0.006   0.889  10.746 -1.4576  1.1780 -0.5113
19614TIP3    H280334   0.021   0.955  10.613  1.2257  1.3858  0.0867
19615TIP3   OH280335   0.548   6.611  13.466  0.4623 -0.1336 -0.2003
19615TIP3    H180336   0.468   6.620  13.518  1.0996  2.0021  0.5320
19615TIP3    H280337   0.532   6.535  13.410 -1.2231 -1.0391  1.3851
19616TIP3   OH280338   0.271   0.123  14.417 -0.0697  0.5907 -0.4859
19616TIP3    H180339   0.196   0.075  14.383 -0.4080 -0.1574  1.2053
19616TIP3    H280340   0.246   0.215  14.411 -2.4340  0.3126  2.6652
19617TIP3   OH280341   4.248   4.447  10.722  0.1984 -0.3189  0.2121
19617TIP3    H180342   4.171   4.471  10.670  0.4002  0.3392  0.2073
19617TIP3    H280343   4.263   4.355  10.701 -0.1419 -0.2491 -0.3633
19618TIP3   OH280344   5.724   0.120  15.938 -0.4041 -0.0208  0.3008
19618TIP3    H180345   5.681   0.166  15.867 -0.5764 -1.4294 -0.5355
19618TIP3    H280346   5.798   0.175  15.961  0.8229 -0.4206 -2.3088
19619TIP3   OH280347   2.058   3.190   3.650  0.4154 -0.4008 -0.0584
19619TIP3    H180348   2.061   3.281   3.622 -0.9508 -0.5702 -0.8347
19619TIP3    H280349   2.149   3.162   3.654  0.7745  0.5917 -1.1660
19620TIP3   OH280350   2.810   4.742  10.108 -0.7410 -0.2002  0.0132
19620TIP3    H180351   2.905   4.755  10.108 -0.9029  1.3503 -1.3753
19620TIP3    H280352   2.790   4.708  10.196  0.9272  0.8944  0.8600
19621TIP3   OH280353   4.843   0.046  15.524 -0.3178 -0.1896 -0.0137
19621TIP3    H180354   4.829   0.115  15.459  0.3352 -0.9807 -1.0339
19621TIP3    H280355   4.769  -0.014  15.510 -0.8627  0.2639  0.8428
19622TIP3   OH280356   1.544   2.115   1.324  0.1848  0.7508  0.5183
19622TIP3    H180357   1.554   2.023   1.351 -0.4451  0.4966 -0.0933
19622TIP3    H280358   1.452   2.135   1.340 -0.3020  0.5046 -1.6060
19623TIP3   OH280359   5.041   2.073  14.293 -0.1541  0.0843 -0.5157
19623TIP3    H180360   5.014   2.145  14.236 -0.4506 -0.1884 -0.7236
19623TIP3    H280361   4.973   2.069  14.361 -0.6573 -0.5966 -1.0333
19624TIP3   OH280362   0.360   0.745   0.256  0.3205 -0.4954  0.4836
19624TIP3    H180363   0.427   0.738   0.324 -0.3359 -4.0392  0.9580
19624TIP3    H280364   0.312   0.824   0.278  2.6340  0.6855  1.6906
19625TIP3   OH280365   6.283   0.149   0.233  0.7264  0.0315  0.0725
19625TIP3    H180366   6.258   0.194   0.153  0.3246 -0.5486 -0.1272
19625TIP3    H280367   6.204   0.147   0.286  0.3141 -1.7978 -0.5589
19626TIP3   OH280368   1.773   4.161  14.269  0.0564 -0.4201 -0.6656
19626TIP3    H180369   1.747   4.243  14.310  2.6980 -0.6519  1.7873
19626TIP3    H280370   1.724   4.094  14.317  0.8494 -0.4889  0.0724
19627TIP3   OH280371   6.348   1.071   2.608 -0.5185 -0.4600 -0.5046
19627TIP3    H180372   6.403   1.130   2.659 -0.8105  1.1065 -1.8857
19627TIP3    H280373   6.269   1.059   2.661  0.6131 -1.7888  0.9631
19628TIP3   OH280374   3.707   0.896   3.580  0.2620 -0.1311 -0.2535
19628TIP3    H180375   3.687   0.984   3.613 -0.5241 -0.3851 -0.0195
19628TIP3    H280376   3.622   0.860   3.554  0.6891 -0.4628 -1.2752
19629TIP3   OH280377   5.436   5.140   3.303  0.1864 -0.1404 -0.1625
19629TIP3    H180378   5.512   5.189   3.336 -0.1396  1.8435 -2.1070
19629TIP3    H280379   5.375   5.138   3.377  0.6047  1.6525  0.2878
19630TIP3   OH280380   1.880   0.237   3.995 -0.1889  1.4311  0.4328
19630TIP3    H180381   1.905   0.161   3.942  0.7725  2.1581 -0.1926
19630TIP3    H280382   1.790   0.219   4.022  0.2482 -0.2213  0.8417
19631TIP3   OH280383   6.403   3.438   4.140  0.2154  0.1095 -0.0428
19631TIP3    H180384   6.423   3.379   4.068 -1.1931 -0.1704 -0.2375
19631TIP3    H280385   6.456   3.516   4.123  0.8168 -0.4323 -0.6997
19632TIP3   OH280386   0.383   4.512  14.592  0.1095  0.0300  0.1763
19632TIP3    H180387   0.344   4.534  14.676 -0.3043  0.0108 -0.0113
19632TIP3    H280388   0.358   4.583  14.534  1.8329  0.9573  0.4813
19633TIP3   OH280389   2.637   5.209  16.793 -0.7099  0.3441  0.5040
19633TIP3    H180390   2.701   5.142  16.817 -0.7836 -0.0183 -0.2788
19633TIP3    H280391   2.563   5.194  16.853 -0.5051  0.0707  0.6879
19634TIP3   OH280392   3.329   3.766  12.082 -0.4438 -0.4064  0.6130
19634TIP3    H180393   3.381   3.743  12.005  1.0320  1.8363  0.8308
19634TIP3    H280394   3.346   3.695  12.144  0.0481 -1.1712 -0.3708
19635TIP3   OH280395   3.824   6.571   4.102  0.2865  0.0969  0.3502
19635TIP3    H180396   3.915   6.552   4.127 -0.2266  0.0478  2.3956
19635TIP3    H280397   3.799   6.645   4.157 -2.3625 -2.8687  3.7023
19636TIP3   OH280398   1.065   3.149  16.609 -0.0133  0.2128 -0.0255
19636TIP3    H180399   1.016   3.072  16.580  0.1482 -0.1826  0.7013
19636TIP3    H280400   1.047   3.155  16.703 -0.6287  1.5236 -0.2065
19637TIP3   OH280401   0.209   4.785  11.247 -0.0041  0.5303  0.2496
19637TIP3    H180402   0.203   4.725  11.322  2.9692 -0.4415 -0.1411
19637TIP3    H280403   0.171   4.736  11.174  0.7486 -0.1712  0.3179
19638TIP3   OH280404   5.734   1.186  16.526 -0.0277 -0.3665  0.1800
19638TIP3    H180405   5.714   1.184  16.433  1.0224 -0.6855 -0.0517
19638TIP3    H280406   5.809   1.127  16.536  0.2097  0.0746  1.1373
19639TIP3   OH280407   4.201   1.444   5.594 -0.4762  0.6185 -0.8756
19639TIP3    H180408   4.251   1.412   5.519  2.1090  0.3337  0.8320
19639TIP3    H280409   4.155   1.521   5.562  1.7474  1.3985 -2.4395
19640TIP3   OH280410   2.946   1.523   4.971  0.3831 -0.2291  0.2498
19640TIP3    H180411   2.952   1.460   5.042  0.1782 -0.6557 -0.1081
19640TIP3    H280412   2.904   1.475   4.900 -1.2422  0.7554  0.4885
19641TIP3   OH280413   6.518   2.777   4.111 -0.9400  0.6892  0.9954
19641TIP3    H180414   6.465   2.763   4.189  0.1990  1.5082  1.9542
19641TIP3    H280415   6.490   2.863   4.079 -2.9892 -0.5491 -0.8570
19642TIP3   OH280416   0.233   5.165  16.738  0.0874  0.0193 -0.6708
19642TIP3    H180417   0.264   5.111  16.666 -0.1993 -1.0010 -0.0472
19642TIP3    H280418   0.154   5.207  16.704  0.2575 -0.0264 -1.1287
19643TIP3   OH280419   3.974   6.550   5.394 -0.2723  0.1209  0.2922
19643TIP3    H180420   4.030   6.526   5.468 -1.1511  0.3182  1.0387
19643TIP3    H280421   4.023   6.620   5.350 -0.3444  0.9505  1.4866
19644TIP3   OH280422   4.921   0.191  11.985 -0.1900  0.0278 -0.8393
19644TIP3    H180423   4.907   0.144  12.067 -1.2804 -0.4071 -1.2607
19644TIP3    H280424   5.010   0.226  11.992 -0.6621  0.9412  0.9883
19645TIP3   OH280425   2.440   0.023   1.796 -0.1355  0.2026  0.6685
19645TIP3    H180426   2.395  -0.044   1.744 -1.1804  2.4528 -1.5354
19645TIP3    H280427   2.387   0.031   1.875 -1.0365 -0.3035  0.1314
19646TIP3   OH280428   5.586   6.183  14.504 -0.1432 -0.3251  0.0086
19646TIP3    H180429   5.650   6.186  14.575 -0.0861 -1.8992  0.0601
19646TIP3    H280430   5.577   6.274  14.476  0.3008  0.2441  1.6018
19647TIP3   OH280431   3.320   3.345  12.754 -0.4669  0.4253 -0.1580
19647TIP3    H180432   3.380   3.312  12.821 -2.1207 -0.6927  0.8606
19647TIP3    H280433   3.321   3.279  12.686 -0.4726  0.4537 -0.1861
19648TIP3   OH280434   4.159   2.681   5.732  0.7912  0.1197  0.0911
19648TIP3    H180435   4.065   2.671   5.749  0.5590  0.5389 -0.8927
19648TIP3    H280436   4.187   2.747   5.796  0.0215  1.3569 -0.7977
19649TIP3   OH280437   5.909   1.623  14.477 -0.2185 -0.5197 -0.1795
19649TIP3    H180438   5.976   1.687  14.455 -1.1104  0.0387 -1.3711
19649TIP3    H280439   5.870   1.655  14.558 -2.2403  1.8058 -1.9381
19650TIP3   OH280440   3.137   3.054   2.236 -0.1079  0.1180 -0.0479
19650TIP3    H180441   3.127   2.995   2.310  0.4903  1.1887  0.9269
19650TIP3    H280442   3.048   3.067   2.204 -0.0634 -3.7577 -2.3867
19651TIP3   OH280443   1.207   2.867  11.721 -0.1275 -0.0275 -0.5366
19651TIP3    H180444   1.270   2.884  11.790 -1.1581  2.2856 -0.0401
19651TIP3    H280445   1.259   2.868  11.640  0.6098  1.0572 -0.0766
19652TIP3   OH280446   4.640   6.538   4.296 -0.4734  0.1468 -0.3650
19652TIP3    H180447   4.590   6.465   4.259  0.3995 -0.7440  0.1639
19652TIP3    H280448   4.596   6.616   4.263 -1.6070 -0.6107 -0.7142
19653TIP3   OH280449   2.489   5.716  14.197  0.0017  0.3690  0.2681
19653TIP3    H180450   2.466   5.755  14.281 -0.2348 -0.4673  0.6043
19653TIP3    H280451   2.576   5.678  14.211 -1.2815 -2.5458  1.1605
19654TIP3   OH280452   0.663   1.851   4.044  0.4495 -0.6726  0.2113
19654TIP3    H180453   0.744   1.801   4.060  1.5490  0.8982 -0.2322
19654TIP3    H280454   0.638   1.883   4.131  0.9985 -0.1742  0.1972
19655TIP3   OH280455   3.287   0.778  16.228 -0.1761 -0.1707 -0.1349
19655TIP3    H180456   3.219   0.817  16.284 -0.9222  1.0209 -1.7835
19655TIP3    H280457   3.361   0.839  16.234  1.3215 -2.0409  2.5660
19656TIP3   OH280458   2.665   5.489  14.545 -0.2158  0.4421 -0.3155
19656TIP3    H180459   2.737   5.430  14.524  0.7392  0.8510  1.5601
19656TIP3    H280460   2.640   5.528  14.461  3.2689  1.9892 -0.8097
19657TIP3   OH280461   2.351   1.961  14.837  0.5067 -0.9555  0.2805
19657TIP3    H180462   2.342   1.949  14.743 -0.5410 -0.1751  0.2615
19657TIP3    H280463   2.267   1.932  14.873  0.4763 -0.2091  0.8515
19658TIP3   OH280464   4.767   5.576  12.370 -0.0109 -0.1288  0.2202
19658TIP3    H180465   4.828   5.649  12.374  1.1476 -1.1200  1.5838
19658TIP3    H280466   4.686   5.610  12.407  0.5394  0.4491  0.9099
19659TIP3   OH280467   5.050   3.211  16.170 -0.0410  0.3242 -0.2078
19659TIP3    H180468   4.962   3.240  16.144  0.2746  2.1699  0.6299
19659TIP3    H280469   5.059   3.239  16.261  0.0635 -3.1754  0.9901
19660TIP3   OH280470   3.586   3.617  11.000  0.4383  0.3018 -0.4033
19660TIP3    H180471   3.521   3.571  11.054  0.8578  1.3131  1.0389
19660TIP3    H280472   3.560   3.598  10.910 -0.5568 -1.1038  0.1375
19661TIP3   OH280473   6.568   2.538  15.293  0.4252  0.0101  0.2829
19661TIP3    H180474   6.587   2.613  15.349 -0.0911 -0.7400  1.4946
19661TIP3    H280475   6.489   2.563  15.245  1.4923  1.1057 -1.0104
19662TIP3   OH280476   3.707   3.114  12.160  0.4535 -0.9845  0.1222
19662TIP3    H180477   3.705   3.151  12.248 -0.6151 -1.1314  0.1744
19662TIP3    H280478   3.787   3.063  12.157  1.4073  0.4499  0.4043
19663TIP3   OH280479   0.511   1.410  13.486 -0.2876  0.0079  0.4479
19663TIP3    H180480   0.503   1.380  13.576  2.0448 -1.3095  0.3129
19663TIP3    H280481   0.493   1.504  13.490  0.7980  0.1873  2.4958
19664TIP3   OH280482   2.782   2.587   0.611 -0.7617 -0.4460 -0.4921
19664TIP3    H180483   2.822   2.662   0.567 -0.2546  0.2486  1.0919
19664TIP3    H280484   2.696   2.579   0.571 -0.9741  1.2200 -0.4397
19665TIP3   OH280485   6.751   5.872  16.880 -1.0328 -0.2045 -0.1953
19665TIP3    H180486   6.690   5.873  16.806 -1.3731  0.5756  0.0943
19665TIP3    H280487   6.711   5.929  16.945 -0.7073 -0.8467  0.5773
19666TIP3   OH280488   4.884   0.238   5.694 -0.7170  0.3264  0.2441
19666TIP3    H180489   4.890   0.324   5.652 -0.3256 -0.3145 -1.0752
19666TIP3    H280490   4.951   0.185   5.650  0.4029 -0.1331  2.3869
19667TIP3   OH280491   3.499   4.074   1.600  0.1411 -0.3545  0.1992
19667TIP3    H180492   3.411   4.110   1.593  0.5983  0.6488 -0.6764
19667TIP3    H280493   3.557   4.148   1.581  1.1486 -1.2281 -0.2202
19668TIP3   OH280494   4.146   2.444   5.326  0.3240 -0.1383  0.2786
19668TIP3    H180495   4.182   2.508   5.387 -1.8390  0.8269  0.6517
19668TIP3    H280496   4.107   2.497   5.256 -2.1550 -0.9087  0.9507
19669TIP3   OH280497   6.829   5.068  10.726  0.5659  0.0603  0.2207
19669TIP3    H180498   6.912   5.087  10.681  0.7359  0.1488  0.5664
19669TIP3    H280499   6.821   4.973  10.722  0.8663  0.0211  0.5006
19670TIP3   OH280500   5.846   1.691   5.309 -0.2127  0.4381  0.0498
19670TIP3    H180501   5.933   1.711   5.345  0.0695  0.8871 -0.8614
19670TIP3    H280502   5.786   1.738   5.367  0.3562  2.8266 -1.1815
19671TIP3   OH280503   2.002   4.873  16.241  0.1301 -0.2117  0.3970
19671TIP3    H180504   1.915   4.837  16.220  0.1428 -0.5411  0.8725
19671TIP3    H280505   1.984   4.944  16.302  0.3433 -2.8694  3.9123
19672TIP3   OH280506   6.709   6.678   5.259 -0.4662  0.3257 -0.2412
19672TIP3    H180507   6.656   6.758   5.253 -0.5880  0.2310 -0.4274
19672TIP3    H280508   6.667   6.617   5.199 -1.4766 -0.5102  1.2838
19673TIP3   OH280509   1.696   5.024   6.235 -0.1441  0.0723 -0.0751
19673TIP3    H180510   1.613   5.054   6.270 -0.8830 -1.3498 -0.5315
19673TIP3    H280511   1.712   5.081   6.160  0.5183  1.8989  1.3606
19674TIP3   OH280512   3.783   3.144  12.681 -0.4681 -0.6965 -0.2948
19674TIP3    H180513   3.831   3.208  12.734  0.2916 -1.3329 -0.1923
19674TIP3    H280514   3.710   3.116  12.737 -2.7205  2.3405 -1.4689
19675TIP3   OH280515   1.945   6.555   0.148  0.0419 -0.4221  0.2141
19675TIP3    H180516   2.036   6.535   0.172 -0.7139 -1.1644  2.8939
19675TIP3    H280517   1.927   6.639   0.191 -0.4039 -0.0273 -0.7236
19676TIP3   OH280518   1.174   1.321   0.003 -0.7153  0.0245 -0.7219
19676TIP3    H180519   1.202   1.391  -0.056  0.4497 -0.0992 -0.3512
19676TIP3    H280520   1.246   1.258   0.001 -0.0490  0.6038  1.7362
19677TIP3   OH280521   3.965   1.616  12.629 -0.2461 -0.4562  0.6310
19677TIP3    H180522   4.014   1.688  12.668  0.2196  0.1156 -0.8981
19677TIP3    H280523   3.975   1.543  12.689  3.2895 -0.6430  0.0051
19678TIP3   OH280524   5.603   2.820   7.059  0.2829  0.1852 -0.0807
19678TIP3    H180525   5.515   2.857   7.065  0.3054  0.3351 -0.6332
19678TIP3    H280526   5.589   2.726   7.073 -0.0568  0.1178 -0.8206
19679TIP3   OH280527   0.984   2.634  15.707  0.4051  0.1149 -0.2802
19679TIP3    H180528   1.013   2.625  15.616 -0.5400  0.2331 -0.5961
19679TIP3    H280529   1.055   2.595  15.758  0.2934 -1.2933 -1.1497
19680TIP3   OH280530   1.689   3.231  16.594  0.1226  0.6009  0.4264
19680TIP3    H180531   1.784   3.246  16.599  0.1419  0.4247  0.6590
19680TIP3    H280532   1.667   3.194  16.680 -0.0888  0.2735  0.2314
19681TIP3   OH280533   4.929   3.541   4.232  0.2796 -0.8558  0.1023
19681TIP3    H180534   4.911   3.487   4.309 -0.5256  0.3468  0.8023
19681TIP3    H280535   4.929   3.631   4.266  1.1426 -0.3777 -1.0968
19682TIP3   OH280536   5.842   4.400  12.617 -0.0305  0.3136  0.2007
19682TIP3    H180537   5.903   4.354  12.559  1.5626 -0.2481  2.2203
19682TIP3    H280538   5.886   4.483  12.636 -0.2879  0.2621  1.0265
19683TIP3   OH280539   0.004   3.514  12.834 -0.1198 -0.1099  0.1408
19683TIP3    H180540   0.020   3.608  12.823  0.4098 -0.1008  0.9275
19683TIP3    H280541  -0.090   3.504  12.817 -0.0617  0.4580 -0.5787
19684TIP3   OH280542   5.384   4.413  12.416  0.0456  0.2561 -0.4821
19684TIP3    H180543   5.373   4.438  12.324 -1.3777 -0.3577 -0.5031
19684TIP3    H280544   5.353   4.489  12.465 -0.1440  0.2067 -0.5224
19685TIP3   OH280545   4.733   4.975   0.880 -0.2654 -0.0882  0.1351
19685TIP3    H180546   4.672   5.043   0.910  0.2806 -0.3188  1.9119
19685TIP3    H280547   4.820   5.013   0.894  0.0553 -1.1763  1.3347
19686TIP3   OH280548   4.033   1.052  12.468  0.7403 -0.2101 -0.3348
19686TIP3    H180549   4.033   1.145  12.445 -2.1089  0.3507  1.4560
19686TIP3    H280550   4.112   1.040  12.520 -0.3426  2.0735  2.0671
19687TIP3   OH280551   5.159   5.690   4.881  0.0630 -0.2479 -0.1034
19687TIP3    H180552   5.067   5.684   4.906  0.0697 -1.2367 -0.2749
19687TIP3    H280553   5.158   5.742   4.801 -0.2594  0.3853  0.3000
19688TIP3   OH280554   4.914   2.890   1.228 -0.4003  0.3447 -0.0160
19688TIP3    H180555   4.825   2.876   1.260 -0.6508  1.9103  0.0575
19688TIP3    H280556   4.905   2.903   1.134 -0.0940 -0.6095 -0.1920
19689TIP3   OH280557   1.786   2.998  11.972  0.2153 -0.1341 -0.2161
19689TIP3    H180558   1.722   2.949  12.024  1.4521 -0.3127  1.1927
19689TIP3    H280559   1.766   3.090  11.990  0.6329 -0.1927  0.6224
19690TIP3   OH280560   4.798   2.158   3.382  1.0804  0.7416 -0.1832
19690TIP3    H180561   4.753   2.204   3.311 -0.0968  0.1215  0.1381
19690TIP3    H280562   4.755   2.189   3.462  1.3963  0.3324  0.1505
19691TIP3   OH280563   5.248   4.482  11.337 -0.4899  0.7868  0.0491
19691TIP3    H180564   5.190   4.409  11.318 -0.0489  1.0925 -2.8831
19691TIP3    H280565   5.189   4.554  11.361 -0.9983 -0.1100  1.5731
19692TIP3   OH280566   2.431   0.643  15.207  0.8943  0.8021  0.5878
19692TIP3    H180567   2.411   0.722  15.157  0.5897  1.1943  1.3256
19692TIP3    H280568   2.524   0.650  15.228  1.0917  0.5016 -0.1453
19693TIP3   OH280569   4.048   3.838   1.108  0.0278 -0.6961  0.4501
19693TIP3    H180570   4.030   3.907   1.172  1.4816  0.2746 -0.1284
19693TIP3    H280571   4.013   3.759   1.148  0.9631 -0.1468  2.5147
19694TIP3   OH280572   6.052   1.158   0.515 -0.3076  0.1290 -0.3238
19694TIP3    H180573   5.982   1.215   0.481 -0.0264 -0.4867 -2.0151
19694TIP3    H280574   6.006   1.082   0.549 -0.4858 -0.2763 -1.4363
19695TIP3   OH280575   2.774   2.563  14.955  0.5690  0.5613 -0.6349
19695TIP3    H180576   2.812   2.580  15.041  2.1401  2.0619 -1.5503
19695TIP3    H280577   2.680   2.561  14.971  0.7465  2.0167  0.9669
19696TIP3   OH280578   2.139   6.216  13.417  0.5904  0.4083  0.2446
19696TIP3    H180579   2.183   6.278  13.359 -0.7778 -0.2290 -1.5533
19696TIP3    H280580   2.046   6.225  13.396  0.0177  0.2185  2.4421
19697TIP3   OH280581   4.609   5.527   1.477 -0.5854 -1.1336 -0.0256
19697TIP3    H180582   4.676   5.530   1.546  0.2733 -0.5597 -0.8549
19697TIP3    H280583   4.526   5.532   1.524 -0.0259  2.8629  0.8956
19698TIP3   OH280584   0.381   0.100  13.280  0.0551 -0.3073 -0.2560
19698TIP3    H180585   0.367   0.153  13.201 -0.7237  1.1374  0.8120
19698TIP3    H280586   0.293   0.083  13.314  0.4049 -0.4661  0.6024
19699TIP3   OH280587   3.210   0.703  12.102  0.4162 -0.4659 -0.5036
19699TIP3    H180588   3.166   0.760  12.165  1.0371  0.3343 -0.7877
19699TIP3    H280589   3.159   0.712  12.021  1.3097  0.7765 -0.9517
19700TIP3   OH280590   5.451   2.069   4.381  0.2789  0.1609  0.0601
19700TIP3    H180591   5.365   2.037   4.408  0.0875  0.4444 -0.2130
19700TIP3    H280592   5.502   2.071   4.462  0.0735 -0.1410  0.1993
19701TIP3   OH280593   6.355   3.212   3.672 -0.9728  0.2509  0.5178
19701TIP3    H180594   6.325   3.273   3.605 -0.5163 -1.6878 -1.5911
19701TIP3    H280595   6.296   3.136   3.662  0.9171 -1.2578  0.2538
19702TIP3   OH280596   4.226   3.625  12.140 -0.0842  0.2054  0.2394
19702TIP3    H180597   4.319   3.607  12.130  0.3467  0.3990  3.0205
19702TIP3    H280598   4.216   3.718  12.120  0.1505  0.0001 -0.8634
19703TIP3   OH280599   1.788   5.919   1.224  0.1085  0.0249 -0.4857
19703TIP3    H180600   1.847   5.972   1.278  0.8690 -0.5974 -0.6862
19703TIP3    H280601   1.765   5.976   1.151 -1.2428  1.0179  0.6458
19704TIP3   OH280602   4.572   2.127  16.113 -0.1459 -0.2711 -0.3618
19704TIP3    H180603   4.529   2.210  16.090 -1.3386 -0.8055 -0.1031
19704TIP3    H280604   4.616   2.145  16.196  1.1098  0.5994 -1.1612
19705TIP3   OH280605   1.090   3.524   6.376  0.5762  0.0353 -0.5941
19705TIP3    H180606   1.148   3.450   6.398 -0.5614 -0.4409  0.9231
19705TIP3    H280607   1.132   3.600   6.417 -0.1167 -0.3978  0.9731
19706TIP3   OH280608   2.620   3.454   5.075  0.1918  0.2989  0.3991
19706TIP3    H180609   2.644   3.415   5.159 -0.0557 -1.8270 -0.4616
19706TIP3    H280610   2.544   3.509   5.095  0.9367  0.8850  1.7657
19707TIP3   OH280611   3.397   6.045   0.795  0.2220  0.2265 -0.0704
19707TIP3    H180612   3.384   6.053   0.700  0.5446 -1.8837 -0.3383
19707TIP3    H280613   3.351   5.965   0.819  0.4051  0.5689  1.5214
19708TIP3   OH280614   4.136   0.586  12.069  0.8096 -0.1307 -0.1890
19708TIP3    H180615   4.190   0.564  12.144  0.1920  0.5289  0.4708
19708TIP3    H280616   4.064   0.522  12.072  1.1164 -0.4964 -0.5875
19709TIP3   OH280617   3.399   4.724  14.159 -0.2127  0.0545  0.3692
19709TIP3    H180618   3.390   4.683  14.073 -0.8230  0.6133  0.1494
19709TIP3    H280619   3.492   4.741  14.168 -0.0610 -0.6126  0.1081
19710TIP3   OH280620   3.250   4.744   0.797  0.1260  0.1518  0.7049
19710TIP3    H180621   3.155   4.737   0.782  0.1204  1.0955  0.1781
19710TIP3    H280622   3.265   4.700   0.880 -1.0472  1.3986  1.6303
19711TIP3   OH280623   3.566   2.868  15.575 -0.7892  0.5955  0.1289
19711TIP3    H180624   3.551   2.824  15.658 -0.4755  0.1317 -0.0594
19711TIP3    H280625   3.588   2.958  15.599  0.0234  0.2878  0.5832
19712TIP3   OH280626   5.772   2.497  10.705 -0.2499 -0.3223  0.2230
19712TIP3    H180627   5.776   2.486  10.800 -3.0127 -1.4379  0.2982
19712TIP3    H280628   5.737   2.585  10.692 -0.2864 -0.3309  0.2623
19713TIP3   OH280629   3.208   3.834  13.227 -0.3353 -0.5155 -1.1360
19713TIP3    H180630   3.177   3.866  13.142 -0.4911  0.8246 -0.5980
19713TIP3    H280631   3.140   3.773  13.254 -1.4728  0.7568 -0.9670
19714TIP3   OH280632   3.499   6.468  14.339  0.5408 -0.3017  0.0228
19714TIP3    H180633   3.465   6.546  14.383  1.0316  0.2991 -0.6429
19714TIP3    H280634   3.441   6.457  14.264  1.0579  0.0073 -0.4303
19715TIP3   OH280635   2.349   2.985  10.509 -0.4761 -0.0434  0.0619
19715TIP3    H180636   2.261   3.016  10.490  0.0012  0.6692 -1.0332
19715TIP3    H280637   2.335   2.902  10.556 -1.7246  0.5700  0.8287
19716TIP3   OH280638   6.263   3.412  14.612  0.2725 -0.3207  0.2992
19716TIP3    H180639   6.300   3.387  14.527  2.5341  0.5903  0.9587
19716TIP3    H280640   6.168   3.418  14.595  0.7611  1.4547 -2.6413
19717TIP3   OH280641   2.370   4.969  15.535 -0.1848  0.1009  0.2408
19717TIP3    H180642   2.332   4.904  15.476 -0.1510 -2.0557  2.4420
19717TIP3    H280643   2.295   5.013  15.573 -0.4197 -1.3902  1.6029
19718TIP3   OH280644   6.637   3.027   1.082 -0.6476 -0.1360  0.1931
19718TIP3    H180645   6.699   3.098   1.067 -1.3819  0.3104 -0.9316
19718TIP3    H280646   6.571   3.064   1.140 -1.1564  0.2061 -0.5801
19719TIP3   OH280647   0.042   3.906   0.902 -0.3318  0.5941  0.9211
19719TIP3    H180648  -0.030   3.903   0.839 -0.0932  2.2473  0.5113
19719TIP3    H280649   0.111   3.853   0.863 -0.1369  1.7035 -0.3185
19720TIP3   OH280650   5.754   3.149  12.469  0.2449 -0.2273 -0.7916
19720TIP3    H180651   5.824   3.176  12.528 -1.0807 -0.0353  0.7755
19720TIP3    H280652   5.674   3.187  12.507 -0.8079 -1.0483 -2.0851
19721TIP3   OH280653   2.924   0.947  16.626 -0.5989 -0.0728 -0.0583
19721TIP3    H180654   2.934   1.024  16.682 -1.4605 -0.2433  0.3478
19721TIP3    H280655   2.849   0.900  16.663 -0.7153 -0.5746 -0.9075
19722TIP3   OH280656   1.414   3.965   5.672 -0.3805 -0.0684 -0.1019
19722TIP3    H180657   1.409   4.034   5.605  2.1449  0.0205 -0.2734
19722TIP3    H280658   1.420   4.013   5.755  1.8586  0.0296 -0.2523
19723TIP3   OH280659   1.235   4.647  14.866  0.0762  0.5643  0.0729
19723TIP3    H180660   1.273   4.728  14.831  1.1263 -0.2683 -0.7953
19723TIP3    H280661   1.219   4.666  14.959  2.2001  1.1511  0.3833
19724TIP3   OH280662   5.197   2.661   4.985  0.4355  0.3301  0.1745
19724TIP3    H180663   5.181   2.729   4.919  1.7773  1.6773  1.1698
19724TIP3    H280664   5.110   2.624   5.002 -0.1575  0.9427 -1.2661
19725TIP3   OH280665   5.478   3.853  12.525 -0.4413 -0.2717  0.2185
19725TIP3    H180666   5.393   3.896  12.533  0.6781  2.3851 -0.9478
19725TIP3    H280667   5.509   3.845  12.615 -1.2161  0.2382  0.5387
19726TIP3   OH280668   0.920   0.844  16.740 -0.2364 -0.2071 -0.1704
19726TIP3    H180669   0.874   0.875  16.818 -1.9778 -0.3839 -1.0746
19726TIP3    H280670   0.948   0.923  16.695 -1.3250 -0.0030 -0.5368
19727TIP3   OH280671   5.760   1.556   1.077 -0.4942  0.1306 -0.2772
19727TIP3    H180672   5.719   1.611   1.010 -2.3502  1.1354  1.5661
19727TIP3    H280673   5.807   1.618   1.133 -0.4271 -0.4770  0.3496
19728TIP3   OH280674   0.847   6.421  11.784  0.3357  0.0990  0.5380
19728TIP3    H180675   0.839   6.416  11.879  0.5784  1.0830  0.6170
19728TIP3    H280676   0.923   6.478  11.769  0.9518 -0.8908 -0.2433
19729TIP3   OH280677   1.040   0.124   2.610  0.5814 -0.4780 -0.1095
19729TIP3    H180678   1.063   0.101   2.520  2.2340  0.1722  0.1066
19729TIP3    H280679   0.945   0.112   2.615  0.6785 -2.0795 -1.4576
19730TIP3   OH280680   0.873   3.432  14.090 -0.0197 -0.0486 -0.0757
19730TIP3    H180681   0.781   3.426  14.066  0.0310 -0.4006 -0.1909
19730TIP3    H280682   0.907   3.343  14.078 -0.0208 -0.2835  1.4006
19731TIP3   OH280683   5.143   3.657  17.010 -0.5634  1.1190  0.3137
19731TIP3    H180684   5.164   3.695  16.924  0.6257 -2.1855 -1.0271
19731TIP3    H280685   5.209   3.694  17.069  1.9293 -0.2971 -1.3770
19732TIP3   OH280686   0.837   4.539  14.962 -0.4721 -0.2602 -0.3817
19732TIP3    H180687   0.858   4.590  14.884  0.6889  1.2489  0.8332
19732TIP3    H280688   0.763   4.586  15.002  0.1845  0.1329  0.4060
19733TIP3   OH280689   2.515   6.347  13.418  0.2314 -0.0233  0.6800
19733TIP3    H180690   2.450   6.291  13.461 -0.7263 -0.8777 -1.7163
19733TIP3    H280691   2.499   6.434  13.455 -1.8708 -0.3296  0.6201
19734TIP3   OH280692   6.729   0.332  10.903 -0.0735 -0.2583  0.0940
19734TIP3    H180693   6.702   0.249  10.943 -0.9421 -0.2849 -0.5040
19734TIP3    H280694   6.789   0.306  10.833 -1.6841 -0.5574 -1.2339
19735TIP3   OH280695   2.508   6.044  15.307  0.3468 -0.0283  0.0971
19735TIP3    H180696   2.536   6.101  15.237  4.1600  0.0224  1.4217
19735TIP3    H280697   2.586   5.991  15.327 -2.1045 -3.6977  0.8543
19736TIP3   OH280698   3.279   0.872  15.755  0.2398  0.2898  0.3285
19736TIP3    H180699   3.319   0.945  15.708 -1.7027  1.6973  0.7525
19736TIP3    H280700   3.267   0.905  15.844 -1.2674 -0.2954  0.3610
19737TIP3   OH280701   2.067   2.840   1.715 -0.4204  0.2437  0.3867
19737TIP3    H180702   1.994   2.872   1.663  1.4271  3.2336 -0.6817
19737TIP3    H280703   2.091   2.757   1.675 -2.0814  0.1102 -0.3916
19738TIP3   OH280704   1.618   2.907   3.927 -0.3230 -0.5372  0.4967
19738TIP3    H180705   1.629   2.952   3.843 -1.7341 -2.5982 -0.9019
19738TIP3    H280706   1.694   2.849   3.934 -0.0426 -0.1366  0.8185
19739TIP3   OH280707   0.462   6.190  12.392 -0.2711  0.0585  0.0121
19739TIP3    H180708   0.403   6.165  12.321  0.3030  0.0978 -0.4894
19739TIP3    H280709   0.547   6.202  12.349  0.2850 -0.7607  0.8340
19740TIP3   OH280710   5.416   1.440   3.320 -0.1706  0.0138 -0.4026
19740TIP3    H180711   5.355   1.479   3.257  1.1077  0.5943 -1.3223
19740TIP3    H280712   5.475   1.511   3.344  0.6984 -0.7368 -0.2364
19741TIP3   OH280713   5.511   5.551  15.707 -0.3288 -0.6037  0.4862
19741TIP3    H180714   5.527   5.642  15.684  0.9541 -0.6342  1.1670
19741TIP3    H280715   5.545   5.500  15.633 -0.7501 -0.5447  0.2504
19742TIP3   OH280716   2.052   4.791  13.310  0.1876  0.7165 -0.2681
19742TIP3    H180717   2.035   4.884  13.330  1.7451  0.9537  0.1314
19742TIP3    H280718   2.115   4.794  13.238 -1.5429 -0.0966 -1.8782
19743TIP3   OH280719   4.970   2.200   1.450 -0.8327  0.1925  0.2437
19743TIP3    H180720   4.983   2.291   1.427 -0.9115  0.1810  0.1541
19743TIP3    H280721   5.053   2.173   1.490 -0.0859 -0.2515 -1.5060
19744TIP3   OH280722   6.827   1.095   1.698 -0.1839  0.1764  0.1546
19744TIP3    H180723   6.878   1.038   1.755 -1.2111  0.1747  1.1024
19744TIP3    H280724   6.870   1.089   1.613  0.3934 -1.1231  0.5206
19745TIP3   OH280725   3.418   1.543  13.503  0.0740 -0.6406 -0.1199
19745TIP3    H180726   3.434   1.637  13.498  2.5799 -1.0197 -0.5440
19745TIP3    H280727   3.356   1.533  13.575 -1.9516  1.4607 -1.4341
19746TIP3   OH280728   4.058   6.783   2.987 -0.2355 -0.2376  0.1747
19746TIP3    H180729   3.981   6.837   3.003 -0.0363  0.3383 -0.7233
19746TIP3    H280730   4.126   6.845   2.962  0.1428 -0.8615 -0.3705
19747TIP3   OH280731   0.056   6.287   4.630 -0.0494  0.3403 -0.4511
19747TIP3    H180732   0.044   6.312   4.538  0.7474  0.3162 -0.5694
19747TIP3    H280733   0.009   6.204   4.638 -0.6199  0.6305 -0.6830
19748TIP3   OH280734   6.810   6.010   2.586 -0.3231 -0.2877 -0.0176
19748TIP3    H180735   6.718   5.985   2.599  0.0391 -1.4850  0.4269
19748TIP3    H280736   6.848   5.936   2.537  0.6542 -0.3339  0.7762
19749TIP3   OH280737   2.435   4.198   0.680  0.0214 -0.2278  0.2823
19749TIP3    H180738   2.403   4.112   0.709 -0.2685  0.0483  0.7885
19749TIP3    H280739   2.451   4.246   0.761 -0.8196  0.5716 -0.0085
19750TIP3   OH280740   4.031   1.905   0.679  1.0906 -0.5217  0.3910
19750TIP3    H180741   3.966   1.963   0.720  1.4717  2.7724 -3.0342
19750TIP3    H280742   4.110   1.916   0.732  0.4851  0.3010  1.1587
19751TIP3   OH280743   3.067   2.349   6.121 -0.0152 -0.2060 -0.1589
19751TIP3    H180744   3.019   2.409   6.178  1.1250 -0.1812  0.8062
19751TIP3    H280745   3.040   2.373   6.032  0.3616  1.6926  0.2066
19752TIP3   OH280746   1.797   4.173  13.006  0.2803 -0.6821  0.3648
19752TIP3    H180747   1.822   4.245  13.063  1.0310  0.5726 -1.4485
19752TIP3    H280748   1.844   4.190  12.924  1.7923 -4.1219  0.3695
19753TIP3   OH280749   4.561   5.525  14.620  0.2398  0.0638 -0.2427
19753TIP3    H180750   4.502   5.522  14.546 -0.1491  1.5040 -0.0118
19753TIP3    H280751   4.603   5.439  14.620 -1.2625 -0.7148 -0.8766
19754TIP3   OH280752   6.533   5.704   2.868  0.7966  0.2881 -0.2934
19754TIP3    H180753   6.608   5.645   2.882  1.0229  0.9101  1.2524
19754TIP3    H280754   6.471   5.680   2.937 -0.6652 -0.5118 -1.8159
19755TIP3   OH280755   6.378   5.122  12.549  0.1069  0.2033 -0.0985
19755TIP3    H180756   6.299   5.152  12.504  0.4399  0.7392 -0.3460
19755TIP3    H280757   6.369   5.155  12.639  0.0861  0.3405 -0.1503
19756TIP3   OH280758   5.028   1.425   1.233  0.0624  0.2805  0.1851
19756TIP3    H180759   5.123   1.435   1.221  0.4145 -0.0227  2.3061
19756TIP3    H280760   5.012   1.331   1.226  0.3001  0.0790  1.9314
19757TIP3   OH280761   4.188   4.262   1.715 -0.2997 -0.1631 -0.1072
19757TIP3    H180762   4.244   4.243   1.790 -1.4634 -1.3956  0.5086
19757TIP3    H280763   4.248   4.270   1.641  0.9292  1.5883  1.0016
19758TIP3   OH280764   3.779   6.140  14.327 -0.0678  0.0232 -0.0066
19758TIP3    H180765   3.802   6.210  14.388  2.1343 -1.0548  0.4818
19758TIP3    H280766   3.685   6.150  14.314  0.0195  2.4757  0.7723
19759TIP3   OH280767   1.422   4.921  13.718  0.6383 -0.9969  0.1032
19759TIP3    H180768   1.458   4.845  13.671 -2.2891 -3.0081  0.8332
19759TIP3    H280769   1.387   4.884  13.799  0.1015  1.3688  1.0068
19760TIP3   OH280770   3.279   5.970  13.889 -0.1358  0.3744  0.6685
19760TIP3    H180771   3.199   5.957  13.940  0.4293  0.9298  1.7393
19760TIP3    H280772   3.253   5.952  13.799 -0.7238 -2.5048  1.3192
19761TIP3   OH280773   1.420   6.631   5.117 -0.2429  0.4774  0.4424
19761TIP3    H180774   1.504   6.628   5.164 -0.8482  0.7250  1.5607
19761TIP3    H280775   1.441   6.597   5.030  0.8684 -0.1413  0.9266
19762TIP3   OH280776   3.519   6.283  15.192 -0.0552 -0.2795  0.4143
19762TIP3    H180777   3.430   6.277  15.158  0.1695 -1.2283 -0.0395
19762TIP3    H280778   3.562   6.203  15.162  0.6447 -0.3424  1.5189
19763TIP3   OH280779   3.259   1.265   5.210 -0.2350 -0.3282  0.1924
19763TIP3    H180780   3.249   1.356   5.180  0.1771 -0.0551  0.8528
19763TIP3    H280781   3.224   1.265   5.299  0.5247 -0.6096  0.5058
19764TIP3   OH280782   0.021   6.220  13.986 -0.2005  0.0475  0.4820
19764TIP3    H180783   0.066   6.157  13.929 -1.5276 -0.5455  0.0471
19764TIP3    H280784   0.091   6.263  14.035  0.8948 -0.2451 -0.7715
19765TIP3   OH280785   0.675   2.413   0.369 -0.0283 -0.1532 -0.7156
19765TIP3    H180786   0.705   2.504   0.371 -0.4704  0.0160 -1.3939
19765TIP3    H280787   0.634   2.400   0.454 -1.7429  0.9284 -1.3120
19766TIP3   OH280788   6.303   5.188   2.060  0.5303  0.1793  0.6739
19766TIP3    H180789   6.386   5.216   2.099  0.1555  2.1420  0.2031
19766TIP3    H280790   6.242   5.184   2.134  0.7602 -0.0952  0.8501
19767TIP3   OH280791   5.111   1.540   1.768 -0.5388  0.1190 -0.1203
19767TIP3    H180792   5.064   1.606   1.717 -0.1890 -0.0399 -0.6700
19767TIP3    H280793   5.064   1.535   1.851 -2.3435 -1.0066 -1.1391
19768TIP3   OH280794   3.585   6.853  13.091  0.0276 -0.0790  1.0573
19768TIP3    H180795   3.509   6.795  13.094  1.0387 -1.6881 -1.3570
19768TIP3    H280796   3.563   6.919  13.025  1.1680 -1.3831 -0.7191
19769TIP3   OH280797   0.060   2.320   6.051  0.3374  0.1166 -0.3009
19769TIP3    H180798   0.057   2.329   6.147 -1.5927 -2.3412 -0.0230
19769TIP3    H280799   0.139   2.268   6.035 -1.0029 -2.3184  0.3963
19770TIP3   OH280800   4.761   3.302  13.528 -0.3516  0.3995 -0.4933
19770TIP3    H180801   4.731   3.354  13.603 -0.2610  0.9865 -0.8574
19770TIP3    H280802   4.796   3.367  13.467  1.1146 -0.2090 -0.3355
19771TIP3   OH280803   5.664   3.001  13.611 -0.3242  0.4493 -0.0156
19771TIP3    H180804   5.651   3.095  13.600  1.7513  0.8294  0.4665
19771TIP3    H280805   5.603   2.977  13.680 -1.2552  1.3190 -0.5063
19772TIP3   OH280806   4.407   1.959  10.689  0.3745  0.1378 -0.4414
19772TIP3    H180807   4.401   1.984  10.781  1.2125  0.5079 -0.4749
19772TIP3    H280808   4.478   2.013  10.654 -0.4135  0.5257 -1.4867
19773TIP3   OH280809   6.163   1.574   3.689  0.0254 -0.5239 -0.1148
19773TIP3    H180810   6.138   1.485   3.713  2.1997 -0.6353  2.1229
19773TIP3    H280811   6.249   1.565   3.648  1.1783  0.6507  1.9146
19774TIP3   OH280812   0.768   5.823   3.136 -0.3401 -0.0700 -0.3372
19774TIP3    H180813   0.683   5.838   3.178  0.2243  0.2017  0.7558
19774TIP3    H280814   0.828   5.880   3.184  0.1312  1.1749 -2.3160
19775TIP3   OH280815   2.939   1.393  14.665 -0.1868 -0.6199 -0.0943
19775TIP3    H180816   2.990   1.465  14.702  1.7377 -1.1825 -1.5130
19775TIP3    H280817   2.984   1.314  14.694 -1.6068 -1.2423  0.4943
19776TIP3   OH280818   0.548   4.479  15.288 -0.0860 -0.1413 -0.3407
19776TIP3    H180819   0.600   4.559  15.278 -0.6094  0.2049 -0.3104
19776TIP3    H280820   0.602   4.411  15.248 -0.2532  0.4700 -1.6583
19777TIP3   OH280821   4.793   2.818   4.836 -0.2112  0.4356  0.1250
19777TIP3    H180822   4.732   2.891   4.826  1.7060  2.0626 -0.5642
19777TIP3    H280823   4.825   2.826   4.926  0.3060  0.7376 -0.0779
19778TIP3   OH280824   1.883   0.286  12.853 -0.7283 -0.4903 -0.1695
19778TIP3    H180825   1.895   0.235  12.772 -0.7304  1.2035 -1.2736
19778TIP3    H280826   1.877   0.219  12.921  0.4180 -1.9528 -1.3997
19779TIP3   OH280827   6.051   0.064  13.642 -0.5610 -0.0998  0.7773
19779TIP3    H180828   5.958   0.044  13.636 -0.3040 -1.1851  0.3018
19779TIP3    H280829   6.088   0.034  13.559  0.0743  1.1558  0.5842
19780TIP3   OH280830   3.260   3.638  12.695  0.0060 -0.0820  0.3503
19780TIP3    H180831   3.201   3.702  12.653 -1.8645 -2.0117 -0.1790
19780TIP3    H280832   3.338   3.637  12.639 -0.0492  1.4826  0.2031
19781TIP3   OH280833   0.482   4.359   1.110 -0.1268 -0.1905 -0.1142
19781TIP3    H180834   0.542   4.289   1.133 -0.9338 -0.5447  1.0184
19781TIP3    H280835   0.497   4.375   1.017  0.6024 -1.3372 -0.2084
19782TIP3   OH280836   4.845   3.491  15.198 -0.2246  0.4098 -0.0472
19782TIP3    H180837   4.897   3.487  15.278 -1.0158  1.0748  0.5121
19782TIP3    H280838   4.839   3.399  15.170 -1.0495 -0.0078  1.3838
19783TIP3   OH280839   2.447   0.904  12.520 -0.5785 -0.4527  0.0709
19783TIP3    H180840   2.413   0.823  12.559 -1.4953  0.1957  0.6731
19783TIP3    H280841   2.505   0.875  12.450 -0.6017 -1.6340  0.5172
19784TIP3   OH280842   4.041   0.359   4.015 -0.6289 -0.3480  0.6276
19784TIP3    H180843   3.968   0.390   3.961 -0.0381  3.5651  1.7355
19784TIP3    H280844   4.119   0.379   3.964 -0.1713  1.1090  1.8227
19785TIP3   OH280845   1.777   6.567  16.360 -0.0182  0.4578  0.1842
19785TIP3    H180846   1.769   6.652  16.403  1.0265 -0.4689  2.3980
19785TIP3    H280847   1.761   6.503  16.430  0.6088 -1.1699 -1.0780
19786TIP3   OH280848   0.508   1.659  16.460 -0.2113 -0.0862  0.4494
19786TIP3    H180849   0.464   1.707  16.531  0.1020  1.1759 -0.1820
19786TIP3    H280850   0.543   1.728  16.403 -0.4334 -1.0787 -0.9203
19787TIP3   OH280851   5.858   1.688  10.674  0.4289  0.3556 -0.9572
19787TIP3    H180852   5.830   1.779  10.687  1.2739  0.6052 -0.8333
19787TIP3    H280853   5.789   1.636  10.717  0.6459  0.9938  0.2263
19788TIP3   OH280854   2.386   3.944   5.389  0.3237  0.3007  0.0649
19788TIP3    H180855   2.407   3.974   5.300 -0.8017  0.8766 -0.0257
19788TIP3    H280856   2.401   4.021   5.444  0.6456  0.0573  0.3206
19789TIP3   OH280857   5.582   4.362  17.008  0.0283 -0.4585 -0.2858
19789TIP3    H180858   5.596   4.269  17.024  0.3967 -0.7012 -1.8817
19789TIP3    H280859   5.638   4.406  17.072 -0.5246 -1.3046  0.8135
19790TIP3   OH280860   5.021   2.917  14.726  0.0592  0.1418 -0.4915
19790TIP3    H180861   4.943   2.876  14.688  0.3313 -0.5232 -0.3392
19790TIP3    H280862   5.072   2.844  14.762  0.3798  0.6457  0.0984
19791TIP3   OH280863   0.232   1.636   4.019 -0.0944 -1.1803  0.7000
19791TIP3    H180864   0.316   1.607   3.985  0.1171 -1.0106  1.0748
19791TIP3    H280865   0.168   1.580   3.975  0.1303 -0.6211 -0.3764
19792TIP3   OH280866   1.122   6.459   0.842 -0.1922  0.3811 -0.1534
19792TIP3    H180867   1.056   6.525   0.822 -0.8059 -0.3717 -0.6735
19792TIP3    H280868   1.176   6.453   0.763  0.5355  1.0178  0.2812
19793TIP3   OH280869   3.438   3.345   0.639 -0.4428  0.4628  0.2067
19793TIP3    H180870   3.458   3.427   0.683 -1.1618  0.9852 -0.4093
19793TIP3    H280871   3.388   3.371   0.562 -3.1114 -0.7086  1.4265
19794TIP3   OH280872   3.305   4.576  12.585  0.0585  0.2542  0.5460
19794TIP3    H180873   3.385   4.628  12.577 -1.9358  3.2879 -2.6081
19794TIP3    H280874   3.309   4.514  12.512 -0.4106  0.4095  0.3833
19795TIP3   OH280875   2.548   2.773  12.291 -0.2657  0.0196  0.1862
19795TIP3    H180876   2.588   2.692  12.321 -1.5314 -0.4876  0.5569
19795TIP3    H280877   2.596   2.795  12.211  0.5190 -0.7278  0.4273
19796TIP3   OH280878   0.998   4.186   0.202 -0.1018 -0.0937  0.3733
19796TIP3    H180879   1.065   4.211   0.138 -0.3901  1.6019  0.6943
19796TIP3    H280880   1.045   4.131   0.265  0.5381 -0.5035 -0.4356
19797TIP3   OH280881   3.726   0.182  13.906  0.6668  0.0371  0.1096
19797TIP3    H180882   3.687   0.107  13.952  0.2126 -0.3321 -0.8619
19797TIP3    H280883   3.694   0.175  13.816  2.9044 -0.2463 -0.7274
19798TIP3   OH280884   3.695   0.437  11.676 -0.2944 -0.0417 -0.0078
19798TIP3    H180885   3.707   0.348  11.710  1.8517  0.1002 -0.2307
19798TIP3    H280886   3.604   0.440  11.647 -1.5316 -0.9641  3.3804
19799TIP3   OH280887   3.387   0.946   6.571  0.0766  0.1658  0.4258
19799TIP3    H180888   3.480   0.950   6.548 -0.1574 -0.5873 -0.7026
19799TIP3    H280889   3.360   0.857   6.547 -1.3238  0.8880 -0.7879
19800TIP3   OH280890   3.591   3.779   1.566  0.4959 -0.2943  0.2485
19800TIP3    H180891   3.541   3.855   1.537 -1.8965 -2.1403 -0.8149
19800TIP3    H280892   3.642   3.753   1.490  2.6055  1.1381  1.1064
19801TIP3   OH280893   6.526   2.044  14.200 -0.3949  0.2279 -0.3008
19801TIP3    H180894   6.434   2.038  14.174 -0.3877 -0.3826 -0.1954
19801TIP3    H280895   6.526   2.026  14.294 -0.5701  3.6535  0.4872
19802TIP3   OH280896   4.252   2.009  11.437 -0.3687  0.1032  0.1936
19802TIP3    H180897   4.345   2.020  11.415 -0.7192  0.3809 -1.2171
19802TIP3    H280898   4.239   2.067  11.512  0.6382 -0.0814  0.5240
19803TIP3   OH280899   5.685   5.070  12.507 -0.1241  0.2197 -0.4994
19803TIP3    H180900   5.704   5.014  12.432  1.3660  0.0161 -0.0077
19803TIP3    H280901   5.713   5.019  12.583 -2.4583  0.0342  0.3223
19804TIP3   OH280902   1.537   2.962   1.152  0.2118 -0.0878  0.1721
19804TIP3    H180903   1.546   3.034   1.214  0.6673  0.0753 -0.0803
19804TIP3    H280904   1.624   2.923   1.148  0.2913  0.1591 -0.6728
19805TIP3   OH280905   5.568   0.491   0.574 -0.0538  0.1327 -0.4255
19805TIP3    H180906   5.586   0.405   0.537  2.1669  0.7160 -0.8540
19805TIP3    H280907   5.497   0.475   0.637  0.1215 -1.9532 -0.6658
19806TIP3   OH280908   0.603   2.708   5.221  0.3619  0.5659  0.6712
19806TIP3    H180909   0.608   2.717   5.126 -1.6402  1.0974  0.5724
19806TIP3    H280910   0.548   2.631   5.235 -2.0495  2.3094  1.3180
19807TIP3   OH280911   5.471   1.480  13.985 -1.1284  0.2907  0.5530
19807TIP3    H180912   5.531   1.509  14.053  1.9791 -1.3371 -1.2424
19807TIP3    H280913   5.472   1.384  13.991 -2.1844  0.1678 -0.6866
19808TIP3   OH280914   4.388   1.352  16.028 -0.0175  0.1752 -0.6180
19808TIP3    H180915   4.435   1.355  16.111 -2.6644  1.9230  0.9931
19808TIP3    H280916   4.385   1.443  15.999 -2.6286  0.2522 -0.3779
19809TIP3   OH280917   4.351   4.883  15.695 -0.3342 -0.0145 -0.4723
19809TIP3    H180918   4.257   4.883  15.710 -0.5776  0.6996 -1.9304
19809TIP3    H280919   4.362   4.909  15.604  1.0647 -4.0910 -1.7059
19810TIP3   OH280920   4.817   4.010   0.999 -0.2852  0.1492  0.1255
19810TIP3    H180921   4.909   4.033   0.987  0.3273 -1.7636  0.8666
19810TIP3    H280922   4.818   3.926   1.045 -2.3614 -1.0786 -1.8181
19811TIP3   OH280923   4.636   0.023   4.723 -0.0356  0.3863  0.0371
19811TIP3    H180924   4.717   0.062   4.692  0.2005 -1.7400 -2.3699
19811TIP3    H280925   4.650   0.008   4.816  1.2502  2.4742  0.2293
19812TIP3   OH280926   4.363   0.036   5.436 -0.1806 -0.5194 -0.1949
19812TIP3    H180927   4.427  -0.024   5.397 -0.1191  0.9979 -2.6362
19812TIP3    H280928   4.323   0.080   5.361 -0.5944  2.1021  1.4455
19813TIP3   OH280929   0.575   0.864   5.912  0.7490 -0.0535  0.1056
19813TIP3    H180930   0.540   0.944   5.950 -0.2366 -0.5432  0.2582
19813TIP3    H280931   0.654   0.845   5.963 -0.2349 -0.3779  1.5502
19814TIP3   OH280932   4.082   0.976  16.733  0.3784 -0.1200 -0.6511
19814TIP3    H180933   4.127   0.909  16.785  0.1091 -0.1071 -0.4002
19814TIP3    H280934   3.989   0.955  16.742  0.2927  0.2890 -0.5736
19815TIP3   OH280935   2.267   5.712   0.232  0.1895  0.0026 -0.1864
19815TIP3    H180936   2.186   5.752   0.200  0.4770  0.7997  0.0452
19815TIP3    H280937   2.277   5.632   0.179 -2.7746 -2.2977  2.3664
19816TIP3   OH280938   6.320   3.075   5.326 -0.4830  0.7175 -0.1301
19816TIP3    H180939   6.373   3.127   5.387 -0.1270  0.9618 -0.6386
19816TIP3    H280940   6.342   3.110   5.240  1.8343 -2.0060 -0.7959
19817TIP3   OH280941   1.336   3.135   6.106 -0.8149 -0.1880 -0.2928
19817TIP3    H180942   1.370   3.056   6.147  0.3903  0.5238  0.1367
19817TIP3    H280943   1.319   3.195   6.179  2.6188  1.5963 -0.7277
19818TIP3   OH280944   3.268   6.640  16.903 -0.8866 -0.3203 -0.3547
19818TIP3    H180945   3.342   6.591  16.868  0.9485 -0.3601  3.0969
19818TIP3    H280946   3.214   6.575  16.947 -2.2750 -0.0780 -1.6049
19819TIP3   OH280947   0.568   6.030  11.759 -0.4201 -0.2725 -0.0406
19819TIP3    H180948   0.568   5.935  11.769  0.0077 -0.1809  0.9827
19819TIP3    H280949   0.659   6.052  11.741 -0.5506 -0.0711 -0.4539
19820TIP3   OH280950   1.150   6.276   3.320 -0.0790 -0.9234  0.0876
19820TIP3    H180951   1.232   6.282   3.272  0.0498 -0.0780  0.3828
19820TIP3    H280952   1.084   6.310   3.260  0.1942  0.8376  0.7319
19821TIP3   OH280953   6.204   4.194  16.621  0.0919  0.0976  0.0849
19821TIP3    H180954   6.123   4.143  16.629  0.4303 -0.5896 -0.7454
19821TIP3    H280955   6.236   4.175  16.533  2.1327 -1.1238  1.0142
19822TIP3   OH280956   4.847   6.297   0.269  0.3063  0.0263 -0.1292
19822TIP3    H180957   4.910   6.318   0.338  1.1110 -0.1663 -0.7958
19822TIP3    H280958   4.761   6.310   0.310  0.7539 -0.8871  1.1772
19823TIP3   OH280959   6.497   6.737   3.068  0.3314 -0.3004  0.1921
19823TIP3    H180960   6.548   6.699   3.140 -0.7195 -2.4102 -0.1009
19823TIP3    H280961   6.427   6.673   3.053 -0.2720  0.7719 -1.7951
19824TIP3   OH280962   2.408   3.939   4.841  0.0806 -0.3478  0.3891
19824TIP3    H180963   2.479   3.923   4.778  1.5475 -0.5307  2.0194
19824TIP3    H280964   2.339   3.877   4.814  1.1250 -1.2427 -0.3501
19825TIP3   OH280965   0.109   0.384   1.379  0.2369  0.2076  0.7532
19825TIP3    H180966   0.017   0.383   1.404  0.1511 -1.0405  0.4523
19825TIP3    H280967   0.113   0.329   1.301  0.9969  1.5247 -0.1915
19826TIP3   OH280968   5.746   6.541   2.295 -0.1373 -0.2590  0.5800
19826TIP3    H180969   5.838   6.518   2.305  0.0008 -0.0199 -0.0982
19826TIP3    H280970   5.743   6.594   2.215 -0.9515 -0.7620  0.2717
19827TIP3   OH280971   5.761   6.788  11.259 -0.1566  0.6623 -0.1354
19827TIP3    H180972   5.717   6.712  11.221  0.5723  0.3458 -0.3714
19827TIP3    H280973   5.728   6.792  11.349  0.0893 -0.1720  0.0050
19828TIP3   OH280974   6.171   0.732   3.731  0.1085 -0.1667  0.5420
19828TIP3    H180975   6.142   0.693   3.814 -1.1244 -1.3145 -0.3790
19828TIP3    H280976   6.122   0.814   3.725  1.3424  0.6839  1.6325
19829TIP3   OH280977   6.284   2.649  16.457 -0.1924 -0.3283 -0.2457
19829TIP3    H180978   6.343   2.675  16.528  1.5708 -2.8784 -0.6650
19829TIP3    H280979   6.222   2.589  16.497 -1.1165  0.5466 -0.3033
19830TIP3   OH280980   5.323   3.236  11.564  0.2173  0.1697 -0.1834
19830TIP3    H180981   5.303   3.272  11.650 -2.1726  0.5643 -0.8064
19830TIP3    H280982   5.284   3.149  11.565 -0.0963  0.2916 -0.9484
19831TIP3   OH280983   2.725   2.916   0.947  0.2107  0.3636  0.2526
19831TIP3    H180984   2.746   2.934   0.856 -2.1982  3.9939  0.1934
19831TIP3    H280985   2.661   2.845   0.943  1.1001 -0.4082 -0.7420
19832TIP3   OH280986   3.434   1.560  12.317 -0.3837  0.4431  0.2975
19832TIP3    H180987   3.384   1.522  12.244  0.4902 -0.0293 -0.0849
19832TIP3    H280988   3.489   1.488  12.347 -0.0590  0.9017  0.8157
19833TIP3   OH280989   5.569   0.458  12.978 -0.3945 -0.9062 -0.1644
19833TIP3    H180990   5.524   0.535  13.012 -1.5465 -1.9840  0.8419
19833TIP3    H280991   5.557   0.464  12.883  1.5278  1.3189 -0.3548
19834TIP3   OH280992   2.223   1.947  16.393  0.2647 -0.0431  0.2343
19834TIP3    H180993   2.135   1.971  16.423  0.6755  1.0921  0.6121
19834TIP3    H280994   2.234   1.857  16.422 -0.8670 -0.2930 -0.0446
19835TIP3   OH280995   4.053   0.377  14.787  0.7745 -0.9811  0.3879
19835TIP3    H180996   4.047   0.450  14.848  0.1364 -0.4674 -0.2653
19835TIP3    H280997   4.094   0.306  14.837 -0.9747 -1.0339  1.8365
19836TIP3   OH280998   4.805   5.264  16.559 -0.6524  0.3308 -0.6822
19836TIP3    H180999   4.769   5.353  16.565  2.5803  1.7568 -0.4117
19836TIP3    H281000   4.859   5.265  16.480 -0.1034 -1.2256 -0.3666
19837TIP3   OH281001   4.455   6.553  16.865  0.1529 -0.2197 -0.3197
19837TIP3    H181002   4.498   6.485  16.813 -0.6493 -0.2655 -0.9443
19837TIP3    H281003   4.364   6.525  16.869  0.0169  0.3054  0.2745
19838TIP3   OH281004   0.744   6.123  12.990  0.3718 -0.1804 -0.0337
19838TIP3    H181005   0.828   6.144  13.032 -0.1765  0.3471  0.8324
19838TIP3    H281006   0.754   6.153  12.899  1.3378 -0.7004 -0.1100
19839TIP3   OH281007   2.939   2.937  13.985 -0.2722 -0.2869 -0.1594
19839TIP3    H181008   2.885   2.940  13.906 -2.6758  0.0307  1.4025
19839TIP3    H281009   2.911   2.858  14.030 -2.1359  1.6831  2.4143
19840TIP3   OH281010   5.557   1.131  16.784  0.5708 -0.5538 -0.1052
19840TIP3    H181011   5.620   1.144  16.713  0.7398  1.1476  0.3271
19840TIP3    H281012   5.574   1.203  16.844 -2.6914  0.7984 -0.6329
19841TIP3   OH281013   0.828   2.225   2.315 -0.8509  0.7895  0.1827
19841TIP3    H181014   0.900   2.279   2.282  0.3842 -1.3830 -0.9281
19841TIP3    H281015   0.841   2.224   2.410  0.5546  0.5255  0.0176
19842TIP3   OH281016   1.185   3.825   0.310 -0.3145 -0.1431  0.0436
19842TIP3    H181017   1.127   3.749   0.303 -0.6966  0.2069 -0.7832
19842TIP3    H281018   1.128   3.896   0.340  0.0261 -0.1623  0.7466
19843TIP3   OH281019   2.390   2.115   3.105 -0.7945 -0.8338  0.2796
19843TIP3    H181020   2.339   2.045   3.065  1.9875 -2.0606 -1.4478
19843TIP3    H281021   2.481   2.091   3.088  0.4052  1.5657  2.5092
19844TIP3   OH281022   1.081   4.585   1.613 -0.0466 -0.7929  0.0906
19844TIP3    H181023   0.998   4.586   1.660  1.0111 -1.2057  2.0969
19844TIP3    H281024   1.079   4.503   1.563 -1.2206 -0.3145 -0.6919
19845TIP3   OH281025   0.135   6.048   3.977 -0.0590  0.3194 -0.4351
19845TIP3    H181026   0.063   6.051   3.914  0.0604  1.1402 -0.5444
19845TIP3    H281027   0.173   5.961   3.966 -1.0488 -0.1379 -0.3570
19846TIP3   OH281028   1.293   6.257  11.575  0.4961 -0.0523  0.4980
19846TIP3    H181029   1.381   6.296  11.573  0.8952 -0.9136 -1.4899
19846TIP3    H281030   1.234   6.332  11.583  1.3283  0.8511 -1.1092
19847TIP3   OH281031   3.488   1.912   2.668  0.0226 -0.2885 -0.3371
19847TIP3    H181032   3.413   1.940   2.721  1.3949 -0.2088  1.7054
19847TIP3    H281033   3.558   1.899   2.732  1.8846  0.0502 -2.2030
19848TIP3   OH281034   0.721   6.748   2.549 -0.6239 -0.4335 -0.1329
19848TIP3    H181035   0.715   6.709   2.636 -0.0154 -1.3177 -0.4624
19848TIP3    H281036   0.786   6.694   2.503 -0.9216  0.0206 -1.1281
19849TIP3   OH281037   5.727   6.805   6.452 -0.0508  0.5992  0.1359
19849TIP3    H181038   5.758   6.716   6.434  0.8536  1.1815 -1.3762
19849TIP3    H281039   5.634   6.802   6.432 -0.7794 -0.7306  3.0689
19850TIP3   OH281040   6.676   5.493  12.206  0.0300  0.1001  0.0672
19850TIP3    H181041   6.667   5.463  12.115 -0.1633 -1.4479  0.5706
19850TIP3    H281042   6.754   5.447  12.238  0.9361  1.7165  0.2890
19851TIP3   OH281043   3.185   3.029  12.118 -0.5940  0.2970 -0.1605
19851TIP3    H181044   3.276   3.016  12.142 -0.9377 -0.4881  0.7839
19851TIP3    H281045   3.175   2.986  12.033 -0.0391  0.5761 -0.3657
19852TIP3   OH281046   5.689   1.078   6.189  0.7023  0.0596  0.3545
19852TIP3    H181047   5.702   0.999   6.241  2.8758 -0.5605 -0.9965
19852TIP3    H281048   5.732   1.147   6.239 -1.8219  0.6349  1.8942
19853TIP3   OH281049   1.447   2.761   5.830  0.1410  0.5306  0.0932
19853TIP3    H181050   1.463   2.807   5.912 -0.6303 -1.1399  1.2459
19853TIP3    H281051   1.531   2.722   5.807 -0.1704 -1.1439  1.5476
19854TIP3   OH281052   4.120   1.766   5.258  0.3214 -0.3739  0.1393
19854TIP3    H181053   4.185   1.743   5.324  0.2663 -0.0583  0.3092
19854TIP3    H281054   4.131   1.861   5.246 -0.6541 -0.1630  0.7816
19855TIP3   OH281055   3.281   2.996  14.601 -0.5391 -0.0160  0.1687
19855TIP3    H181056   3.373   3.005  14.626  0.3519 -1.4394 -2.3222
19855TIP3    H281057   3.263   2.902  14.605 -1.7487  0.1942  0.1381
19856TIP3   OH281058   2.883   6.546  14.479 -0.0703  0.2290 -0.4721
19856TIP3    H181059   2.921   6.582  14.559 -0.6125  2.1049 -0.9960
19856TIP3    H281060   2.921   6.599  14.409 -0.0110 -1.0321 -1.4318
19857TIP3   OH281061   4.115   2.007  10.752 -0.9379 -0.7510  0.2703
19857TIP3    H181062   4.056   2.012  10.676  0.0790 -1.4667 -0.5896
19857TIP3    H281063   4.202   1.995  10.715  0.0848  2.2013  1.4645
19858TIP3   OH281064   5.798   0.878  11.175  0.5106 -0.4465 -0.4362
19858TIP3    H181065   5.821   0.948  11.236 -0.0718 -0.4344 -0.2201
19858TIP3    H281066   5.846   0.899  11.095  0.7935 -0.1199 -0.1833
19859TIP3   OH281067   4.132   1.231  11.306 -0.1957  0.9498  0.1605
19859TIP3    H181068   4.220   1.212  11.339 -0.8112  1.2784  2.0893
19859TIP3    H281069   4.117   1.323  11.329 -0.6565  1.2164 -1.1155
19860TIP3   OH281070   3.611   4.506   1.735  0.9315  0.1084 -0.2163
19860TIP3    H181071   3.671   4.580   1.729 -0.2488  1.0954 -0.1093
19860TIP3    H281072   3.604   4.488   1.829 -0.9842  1.7416 -0.0005
19861TIP3   OH281073   1.348   6.165  15.745  0.2307  0.4059 -0.3663
19861TIP3    H181074   1.340   6.186  15.651 -0.4342 -0.9923 -0.6445
19861TIP3    H281075   1.274   6.210  15.785 -1.2809 -1.3923 -0.9830
19862TIP3   OH281076   5.687   1.499   1.769  0.3326 -0.4062  0.0309
19862TIP3    H181077   5.604   1.536   1.799  0.8641 -0.1186  1.1767
19862TIP3    H281078   5.667   1.406   1.754 -0.5071 -0.0807 -0.9623
19863TIP3   OH281079   1.071   4.798  15.853  0.5435  0.1679  0.2781
19863TIP3    H181080   0.986   4.810  15.811  0.5867  3.5695  0.8876
19863TIP3    H281081   1.126   4.757  15.785 -0.7701  0.6862 -1.1370
19864TIP3   OH281082   2.576   2.178   4.048  1.0586  0.2057  0.3402
19864TIP3    H181083   2.520   2.210   4.119 -1.1225 -1.5558 -0.4512
19864TIP3    H281084   2.595   2.087   4.073 -0.1980 -0.6213 -1.5094
19865TIP3   OH281085   4.823   0.790  16.635 -0.0886 -0.2030  0.1190
19865TIP3    H181086   4.914   0.813  16.651  0.4297  0.1999 -2.7918
19865TIP3    H281087   4.826   0.730  16.560 -2.2882  2.5702 -2.4477
19866TIP3   OH281088   6.812   0.172  15.296  0.0887 -0.4320  0.4157
19866TIP3    H181089   6.853   0.136  15.374  2.1637 -0.1342 -0.4765
19866TIP3    H281090   6.761   0.246  15.328  0.4815 -0.6289  1.5483
19867TIP3   OH281091   6.598   5.384  15.568  0.0216  0.0228  0.5754
19867TIP3    H181092   6.504   5.367  15.560 -0.0779  1.1193 -1.0522
19867TIP3    H281093   6.606   5.442  15.643 -0.4466 -0.9810  1.4335
19868TIP3   OH281094   0.848   4.360   5.751  0.4200  0.0432 -0.2752
19868TIP3    H181095   0.867   4.274   5.787 -0.5677 -0.3134 -0.5691
19868TIP3    H281096   0.763   4.350   5.709 -0.3755  1.5136  0.8831
19869TIP3   OH281097   2.238   6.437   3.317  0.6352  0.2613 -0.5753
19869TIP3    H181098   2.266   6.347   3.334 -2.7912 -0.7502  0.4498
19869TIP3    H281099   2.251   6.482   3.400 -1.8445 -0.5799  0.3369
19870TIP3   OH281100   5.763   6.426   4.836 -0.1634 -0.3404 -0.0508
19870TIP3    H181101   5.700   6.398   4.903 -0.4142 -0.8286 -0.4850
19870TIP3    H281102   5.837   6.366   4.847  0.8398  1.0587  1.3432
19871TIP3   OH281103   6.841   3.463   3.412  0.1142 -0.1424 -0.0592
19871TIP3    H181104   6.847   3.447   3.506  0.9900 -0.2099 -0.1184
19871TIP3    H281105   6.747   3.458   3.393 -0.2753  1.7685  1.1349
19872TIP3   OH281106   2.944   4.574  14.956 -0.5337 -0.5763 -0.1894
19872TIP3    H181107   2.955   4.658  15.000  0.8081 -0.8640  0.0659
19872TIP3    H281108   2.962   4.508  15.023 -0.9549 -1.0712 -0.5448
19873TIP3   OH281109   0.743   4.762   1.521 -0.7236  0.0191 -0.4894
19873TIP3    H181110   0.819   4.730   1.569 -0.6764  2.2885  1.1059
19873TIP3    H281111   0.778   4.824   1.458 -1.1242 -0.2338 -0.9710
19874TIP3   OH281112   3.290   5.669  11.566  0.3839  0.1189  0.3425
19874TIP3    H181113   3.250   5.657  11.652  0.7497  0.0685  0.5074
19874TIP3    H281114   3.216   5.691  11.508  0.5008  3.6686  1.3239
19875TIP3   OH281115   5.057   3.039   6.177  0.0300 -0.8019  0.1877
19875TIP3    H181116   4.990   3.106   6.165  1.1011  0.1417 -0.8870
19875TIP3    H281117   5.022   2.981   6.245 -0.8112  1.0174  1.3958
19876TIP3   OH281118   2.468   0.656   5.536  0.9271 -0.8366 -0.9706
19876TIP3    H181119   2.493   0.649   5.628  0.0597 -1.2491 -0.7487
19876TIP3    H281120   2.516   0.732   5.504  0.5636 -0.1323  0.0699
19877TIP3   OH281121   6.323   5.856  13.158  0.1622  0.0223  0.0478
19877TIP3    H181122   6.230   5.837  13.173  0.5367 -0.0178  2.6775
19877TIP3    H281123   6.330   5.951  13.163  0.2548  0.0357 -0.2948
19878TIP3   OH281124   1.445   6.312  14.010  0.2070 -0.2919  0.2647
19878TIP3    H181125   1.460   6.352  13.924  3.6538  0.8685  1.2446
19878TIP3    H281126   1.496   6.231  14.007  0.6702 -0.0541  1.3044
19879TIP3   OH281127   5.899   3.026   1.344  0.1390  0.1568 -0.7561
19879TIP3    H181128   5.880   3.026   1.437 -2.2856 -1.2381 -1.1598
19879TIP3    H281129   5.954   2.949   1.330  0.1509  0.1293 -0.5519
19880TIP3   OH281130   1.956   1.697   6.120 -0.1609 -0.2859  0.1169
19880TIP3    H181131   1.936   1.719   6.029  0.0316  0.9571  0.3511
19880TIP3    H281132   1.879   1.650   6.151 -0.1811 -0.8137 -0.7149
19881TIP3   OH281133   3.456   2.638   4.778  0.0651 -0.3217  0.2565
19881TIP3    H181134   3.506   2.684   4.711  1.8696 -0.9860  1.1046
19881TIP3    H281135   3.367   2.674   4.770  0.3674  0.0721 -2.0324
19882TIP3   OH281136   6.411   2.216   3.003 -0.5689 -0.5900 -0.3045
19882TIP3    H181137   6.413   2.271   3.082 -1.9922  0.0163 -0.6640
19882TIP3    H281138   6.322   2.224   2.970 -0.1484 -1.2614 -1.6923
19883TIP3   OH281139   4.412   1.647  14.279  0.3227 -0.2149  0.5471
19883TIP3    H181140   4.385   1.624  14.368 -0.7556  0.4364  0.4087
19883TIP3    H281141   4.441   1.738  14.285  0.6649 -0.3050  0.3134
19884TIP3   OH281142   3.316   0.369   3.797 -0.3144 -0.3925 -0.2198
19884TIP3    H181143   3.370   0.341   3.723 -0.1045 -0.9153  0.1243
19884TIP3    H281144   3.228   0.378   3.761 -0.1324 -0.2229 -0.6280
19885TIP3   OH281145   0.272   3.500   5.872  0.3740  0.0033  0.1438
19885TIP3    H181146   0.272   3.537   5.784 -0.7065 -0.4763 -0.0765
19885TIP3    H281147   0.342   3.546   5.918  0.7805  0.4363 -0.8893
19886TIP3   OH281148   0.351   3.902  15.512 -0.1544 -0.3521 -0.1041
19886TIP3    H181149   0.342   3.808  15.525  0.4314 -0.4091 -0.1194
19886TIP3    H281150   0.422   3.911  15.449  1.9546  0.2170  2.1928
19887TIP3   OH281151   2.693   3.144   1.319 -0.4060  0.0176 -0.7665
19887TIP3    H181152   2.770   3.087   1.327 -1.6370 -1.8818 -1.7130
19887TIP3    H281153   2.720   3.226   1.360  1.3323 -1.3623  1.0636
19888TIP3   OH281154   5.755   4.352  15.370 -0.2813  0.3052 -0.0467
19888TIP3    H181155   5.834   4.310  15.337 -0.5152  0.2906 -0.5961
19888TIP3    H281156   5.754   4.331  15.464  0.9176  1.1842  0.1873
19889TIP3   OH281157   4.206   5.460   2.855 -0.2974  0.2307 -0.3050
19889TIP3    H181158   4.265   5.413   2.796  1.2075  1.0443  0.4801
19889TIP3    H281159   4.227   5.552   2.841  0.4957  0.4344  1.8220
19890TIP3   OH281160   3.550   0.877  14.337 -0.3670  0.4093 -0.2855
19890TIP3    H181161   3.591   0.938  14.275 -0.0003  1.1560  0.6662
19890TIP3    H281162   3.622   0.849  14.393 -0.8371  0.3671  0.2994
19891TIP3   OH281163   3.370   5.978   2.254 -0.6634 -0.0925  0.3524
19891TIP3    H181164   3.368   5.995   2.348  1.7539  0.6965  0.3209
19891TIP3    H281165   3.460   5.954   2.235 -1.4255 -1.7142 -1.5679
19892TIP3   OH281166   6.079   5.811   1.802  0.0800  0.5121  0.0026
19892TIP3    H181167   6.161   5.845   1.837  0.5747  1.8191 -2.2227
19892TIP3    H281168   6.027   5.790   1.879  3.1125 -2.1269  1.5841
19893TIP3   OH281169   5.635   5.768   4.872 -0.4103  0.3315 -0.4528
19893TIP3    H181170   5.551   5.770   4.919 -0.7619  0.0656 -1.0584
19893TIP3    H281171   5.661   5.860   4.865 -0.8006  0.4405 -0.5216
19894TIP3   OH281172   4.629   1.377   1.554 -0.7941 -0.1776 -0.2209
19894TIP3    H181173   4.683   1.372   1.632 -0.6213  0.0743 -0.3233
19894TIP3    H281174   4.659   1.457   1.509 -0.1224 -0.9016 -1.1079
19895TIP3   OH281175   3.935   5.197   5.803 -0.1583 -0.4181  0.3517
19895TIP3    H181176   3.941   5.118   5.749 -0.5682  0.7537 -1.5309
19895TIP3    H281177   4.025   5.214   5.832 -0.0567 -1.5019  0.6876
19896TIP3   OH281178   3.300   2.900   4.204  0.3465 -0.7801 -0.2713
19896TIP3    H181179   3.341   2.914   4.289 -1.1051 -0.0611  0.3466
19896TIP3    H281180   3.319   2.980   4.155  0.8294 -1.0218 -0.4881
19897TIP3   OH281181   5.763   4.080  12.215 -0.1824  0.5736  0.3991
19897TIP3    H181182   5.704   4.008  12.238 -0.1661  0.4817  0.1606
19897TIP3    H281183   5.708   4.140  12.164 -0.1172  0.5761  0.3310
19898TIP3   OH281184   3.765   5.779  16.038  0.0146  0.3961  0.5700
19898TIP3    H181185   3.701   5.838  15.999 -0.4573 -0.7757 -0.5133
19898TIP3    H281186   3.713   5.709  16.078  0.5669  0.4746  1.4536
19899TIP3   OH281187   3.570   6.602  12.892  0.0603  0.1303  0.2658
19899TIP3    H181188   3.532   6.601  12.979 -0.5239 -0.5468  0.0117
19899TIP3    H281189   3.586   6.695  12.874 -1.6964  0.4738  0.2959
19900TIP3   OH281190   1.492   0.327   2.427 -0.6744  1.1574  0.2896
19900TIP3    H181191   1.427   0.307   2.494 -0.2292  0.2876  0.4637
19900TIP3    H281192   1.441   0.330   2.345 -1.1401  1.7819  0.5929
19901TIP3   OH281193   4.003   3.709   2.952  0.6137  0.1645  0.2286
19901TIP3    H181194   4.015   3.637   2.890 -1.2857  1.9059 -2.3710
19901TIP3    H281195   4.077   3.702   3.012  0.6894 -3.7063 -0.0667
19902TIP3   OH281196   1.674   5.829  11.001  0.4369 -0.1147  0.7664
19902TIP3    H181197   1.673   5.752  11.058  2.9267  0.3439  1.5438
19902TIP3    H281198   1.755   5.874  11.023  0.9496  0.7214 -2.3574
19903TIP3   OH281199   2.962   1.004  13.044  0.8734 -0.3112  0.2033
19903TIP3    H181200   3.048   1.038  13.018  0.8391 -0.0838  0.3788
19903TIP3    H281201   2.903   1.079  13.035  0.4237 -0.8156 -1.2183
19904TIP3   OH281202   1.555   4.106  11.506  0.0524  0.1384 -0.0142
19904TIP3    H181203   1.606   4.166  11.451  0.0563 -2.0162 -2.5247
19904TIP3    H281204   1.584   4.126  11.595 -0.2256  4.0627 -0.6136
19905TIP3   OH281205   6.189   2.372   1.974 -0.4301 -0.4611  0.0054
19905TIP3    H181206   6.251   2.371   1.901  0.6171  3.3354  0.6293
19905TIP3    H281207   6.240   2.339   2.048 -0.6952 -1.8037 -0.3723
19906TIP3   OH281208   4.128   3.147   3.197  0.5586 -0.4818  0.5153
19906TIP3    H181209   4.063   3.186   3.139  0.0970  0.4743  1.6327
19906TIP3    H281210   4.212   3.167   3.155  0.2091 -0.5140 -0.2205
19907TIP3   OH281211   0.678   1.144  13.449 -0.0253  0.5922 -0.3471
19907TIP3    H181212   0.721   1.155  13.534 -0.1791 -0.7375 -0.0767
19907TIP3    H281213   0.631   1.227  13.434 -0.2888  0.7001  1.0211
19908TIP3   OH281214   2.185   4.535   1.963 -0.0124  0.4293 -0.0603
19908TIP3    H181215   2.118   4.559   1.899 -0.5143 -1.8701 -0.4570
19908TIP3    H281216   2.155   4.574   2.045 -2.7229 -1.7940  0.1350
19909TIP3   OH281217   1.217   5.560  11.925 -0.6164 -0.8288 -0.0143
19909TIP3    H181218   1.173   5.549  12.009  0.3031  0.3725  0.6550
19909TIP3    H281219   1.201   5.651  11.901  3.3777  0.5266  1.4736
19910TIP3   OH281220   6.681   2.638  11.779 -0.0738  0.3897 -0.3995
19910TIP3    H181221   6.748   2.583  11.738  0.4746  1.5898 -1.1671
19910TIP3    H281222   6.631   2.674  11.705 -0.5755  0.7360  0.0989
19911TIP3   OH281223   5.224   0.478  12.366  0.4170  0.3768 -0.0448
19911TIP3    H181224   5.142   0.460  12.319  0.2287  0.4276  0.2614
19911TIP3    H281225   5.268   0.544  12.313  0.6499 -0.2487 -0.6545
19912TIP3   OH281226   3.184   6.617   3.755 -0.1632 -0.6326  0.0245
19912TIP3    H181227   3.205   6.544   3.813 -0.2301 -1.0208 -0.4285
19912TIP3    H281228   3.148   6.576   3.676 -0.4766 -0.0944 -0.1238
19913TIP3   OH281229   2.748   4.133   5.184  0.2408 -0.1694 -0.1199
19913TIP3    H181230   2.835   4.095   5.174  1.0943  1.9995 -1.6233
19913TIP3    H281231   2.695   4.091   5.115  0.4709 -0.4853 -0.1038
19914TIP3   OH281232   2.368   4.741   3.372 -0.3496 -0.0861 -0.1913
19914TIP3    H181233   2.398   4.681   3.440 -0.4546  1.6085  1.4535
19914TIP3    H281234   2.331   4.685   3.304 -2.4652 -1.8368  2.2129
19915TIP3   OH281235   5.701   0.736  14.517  0.0916  0.0000  0.7960
19915TIP3    H181236   5.753   0.662  14.549 -1.4580 -1.2752  0.4734
19915TIP3    H281237   5.611   0.715  14.542 -0.4688  1.4890  0.1427
19916TIP3   OH281238   2.799   1.815  14.840  0.3806 -0.4770  0.8016
19916TIP3    H181239   2.794   1.787  14.931  0.0362 -2.2303  0.2780
19916TIP3    H281240   2.877   1.771  14.805  0.4110  0.0376  0.1955
19917TIP3   OH281241   1.484   2.781  16.253 -0.4132  0.6559  0.2128
19917TIP3    H181242   1.432   2.774  16.333  1.3599 -2.7713  1.2387
19917TIP3    H281243   1.449   2.712  16.195 -0.2954  1.7041 -1.1687
19918TIP3   OH281244   3.476   0.322  13.678  0.1656 -0.7429  0.7725
19918TIP3    H181245   3.535   0.249  13.658 -0.4051 -1.4819  1.7163
19918TIP3    H281246   3.428   0.294  13.756 -1.6582 -0.3020 -0.1363
19919TIP3   OH281247   6.680   0.677  15.694 -0.2049 -0.0503 -0.9293
19919TIP3    H181248   6.708   0.768  15.687 -0.0726 -0.1425 -1.5723
19919TIP3    H281249   6.589   0.682  15.724 -1.4210  0.4249 -4.3148
19920TIP3   OH281250   5.170   1.119   6.364  0.3272  0.3580 -0.0133
19920TIP3    H181251   5.143   1.046   6.420  2.1432 -0.0169  0.4220
19920TIP3    H281252   5.093   1.136   6.309 -2.7420  2.5577  4.3242
19921TIP3   OH281253   5.985   6.502  10.269  0.2980  0.3900 -0.7106
19921TIP3    H181254   6.014   6.545  10.349 -0.2073 -0.1599 -0.2278
19921TIP3    H281255   5.975   6.574  10.206 -0.3949  0.9737  0.0429
19922TIP3   OH281256   3.733   2.150   6.003  0.7616 -0.0179  1.2144
19922TIP3    H181257   3.651   2.153   6.052  1.0500 -0.3579  1.7249
19922TIP3    H281258   3.748   2.056   5.988  1.4788 -0.0176  1.8556
19923TIP3   OH281259   5.913   5.200  14.405  0.5156  0.0766  0.3977
19923TIP3    H181260   5.828   5.233  14.435 -0.3537 -0.5760 -1.1583
19923TIP3    H281261   5.931   5.125  14.463 -1.2899 -1.3864 -0.8008
19924TIP3   OH281262   0.258   6.594  12.706 -0.6133  0.2663 -1.0825
19924TIP3    H181263   0.297   6.559  12.626 -0.9524  1.0057 -1.5911
19924TIP3    H281264   0.325   6.582  12.773 -0.2563 -0.2064 -1.5153
19925TIP3   OH281265   3.478   4.339   5.380 -0.5052 -0.3003  0.4431
19925TIP3    H181266   3.485   4.435   5.373  1.6923 -0.4384  0.1568
19925TIP3    H281267   3.417   4.325   5.452 -0.8682  1.3190  0.4945
19926TIP3   OH281268   5.197   2.887   1.317 -0.0424 -0.5313  0.1086
19926TIP3    H181269   5.126   2.916   1.260 -1.1450 -2.4200  0.4157
19926TIP3    H281270   5.152   2.849   1.393  1.3593  2.4911  2.6600
19927TIP3   OH281271   1.205   5.709   1.602 -0.0143  0.1729  0.1678
19927TIP3    H181272   1.147   5.753   1.540  1.3824 -0.0764 -1.3832
19927TIP3    H281273   1.293   5.732   1.573  0.7033 -1.4329  0.9768
19928TIP3   OH281274   4.624   5.295  15.358  0.3304  0.2735  0.3394
19928TIP3    H181275   4.675   5.282  15.278 -0.8415  1.4630 -0.6593
19928TIP3    H281276   4.685   5.333  15.420  0.8900  0.8781 -0.5477
19929TIP3   OH281277   5.577   0.577  11.158  0.5860  0.4748  0.2185
19929TIP3    H181278   5.620   0.512  11.103 -1.0105 -0.1691 -0.3423
19929TIP3    H281279   5.484   0.569  11.135  0.0228  1.0266  2.1451
19930TIP3   OH281280   2.061   4.605  16.944  0.0957  0.4711 -0.4668
19930TIP3    H181281   1.976   4.635  16.912 -0.2913  0.9727  0.9593
19930TIP3    H281282   2.117   4.683  16.939  0.2311  0.3659 -0.5951
19931TIP3   OH281283   4.326   3.711  13.936 -0.4571  0.3145 -0.4985
19931TIP3    H181284   4.301   3.790  13.985 -1.5564  0.3133 -1.0259
19931TIP3    H281285   4.408   3.736  13.892 -0.6440  1.0788 -0.4385
19932TIP3   OH281286   0.367   0.599  13.314 -0.3843 -0.2612  0.1717
19932TIP3    H181287   0.299   0.552  13.362  0.5381 -1.0601  0.7408
19932TIP3    H281288   0.320   0.647  13.246 -1.3945 -1.7264 -0.2019
19933TIP3   OH281289   6.472   4.358   4.134  0.2548  0.2246  0.1443
19933TIP3    H181290   6.434   4.365   4.221 -0.2194 -1.4540  0.1078
19933TIP3    H281291   6.566   4.351   4.149  0.1402 -0.5125  0.5695
19934TIP3   OH281292   5.121   2.086  12.170  0.1595 -0.5825 -0.8871
19934TIP3    H181293   5.213   2.063  12.155  0.1435 -1.0816 -0.2452
19934TIP3    H281294   5.077   2.002  12.184  0.3353 -0.2426  2.8417
19935TIP3   OH281295   6.445   3.379   4.898 -0.3646  0.0285  0.3829
19935TIP3    H181296   6.399   3.460   4.877  1.3949  0.6867 -1.2165
19935TIP3    H281297   6.468   3.341   4.813  1.4860 -0.5644  1.0986
19936TIP3   OH281298   4.147   3.963   0.315 -0.0457 -0.2895 -0.6308
19936TIP3    H181299   4.197   4.041   0.293 -0.1775 -0.3782 -1.2750
19936TIP3    H281300   4.087   3.951   0.242  1.0108 -1.8556 -1.3099
19937TIP3   OH281301   0.592   0.422  11.230 -0.2750  0.0899 -0.1522
19937TIP3    H181302   0.502   0.415  11.199 -0.0405 -1.0326 -0.6427
19937TIP3    H281303   0.643   0.444  11.152 -0.1188  0.6826  0.1140
19938TIP3   OH281304   5.406   1.754  12.160 -0.1185  0.2650 -0.1866
19938TIP3    H181305   5.430   1.691  12.093 -1.1175 -0.6303  0.2597
19938TIP3    H281306   5.437   1.715  12.242 -0.8430  0.2833  0.1052
19939TIP3   OH281307   0.587   4.757  14.357 -0.8590 -0.1139 -0.4995
19939TIP3    H181308   0.620   4.739  14.269  1.6311  1.6178 -0.0336
19939TIP3    H281309   0.623   4.687  14.411 -0.7856 -0.1288 -0.5668
19940TIP3   OH281310   1.932   1.893  12.759 -0.5359  0.1775  0.4836
19940TIP3    H181311   1.980   1.943  12.825  1.3148 -0.9721  0.0628
19940TIP3    H281312   2.000   1.854  12.704 -1.9659 -1.4727 -0.1876
19941TIP3   OH281313   2.200   6.027  16.604 -0.1316 -0.2058 -0.0993
19941TIP3    H181314   2.188   6.046  16.510 -0.4013 -0.5716 -0.1399
19941TIP3    H281315   2.207   6.113  16.645  0.6843 -0.0496 -0.5461
19942TIP3   OH281316   3.180   4.399  11.679 -0.0527  0.0267  1.0107
19942TIP3    H181317   3.084   4.397  11.682 -0.3424  2.9152 -1.6218
19942TIP3    H281318   3.202   4.368  11.591  1.5629 -1.2567  1.8035
19943TIP3   OH281319   5.067   2.256  15.217 -0.0980 -0.5079 -0.5076
19943TIP3    H181320   4.988   2.306  15.238 -1.5093 -1.3112 -3.4171
19943TIP3    H281321   5.136   2.322  15.213 -0.8061  0.3828  1.0071
19944TIP3   OH281322   5.743   0.874  16.694 -0.3225  0.7218  0.2116
19944TIP3    H181323   5.823   0.925  16.686  0.6717 -0.4345  1.9577
19944TIP3    H281324   5.704   0.876  16.607  2.5624 -0.1615 -1.2294
19945TIP3   OH281325   0.124   4.661   5.535 -0.2330  0.7188  0.2254
19945TIP3    H181326   0.120   4.621   5.448 -0.4692  0.7180  0.2357
19945TIP3    H281327   0.141   4.753   5.518 -0.5892  0.7751  0.1638
19946TIP3   OH281328   3.420   2.169   1.979 -0.4214  0.6538 -0.2091
19946TIP3    H181329   3.388   2.171   2.069  1.0412  1.5117  0.3172
19946TIP3    H281330   3.416   2.260   1.950 -2.3529  0.2030 -1.6017
19947TIP3   OH281331   1.318   3.746   6.007 -0.0952  0.5158  0.2412
19947TIP3    H181332   1.341   3.705   5.924 -2.3711 -0.4725  0.0297
19947TIP3    H281333   1.326   3.676   6.072  1.0444  1.1192  0.7756
19948TIP3   OH281334   2.656   5.699  12.300  0.0973 -0.1146 -0.2434
19948TIP3    H181335   2.681   5.767  12.237  0.3571  0.7524  0.7848
19948TIP3    H281336   2.637   5.746  12.381 -3.0268 -0.9162 -0.3873
19949TIP3   OH281337   6.347   2.587   5.810  0.2078  0.0362  0.0024
19949TIP3    H181338   6.313   2.667   5.770  1.8506 -0.4346 -2.5482
19949TIP3    H281339   6.336   2.601   5.904 -0.0360  3.0191 -0.3817
19950TIP3   OH281340   3.668   0.714  16.107 -0.1926  0.2386 -0.0755
19950TIP3    H181341   3.749   0.666  16.087 -0.9715 -2.3022  2.2929
19950TIP3    H281342   3.598   0.656  16.078 -1.1772  0.3385  1.9882
19951TIP3   OH281343   5.879   3.682   4.203 -0.0617 -0.1935  0.5438
19951TIP3    H181344   5.910   3.619   4.138 -2.5625 -0.9659  0.0164
19951TIP3    H281345   5.821   3.632   4.260 -0.6416  1.2361  1.2702
19952TIP3   OH281346   4.018   6.332  11.891 -0.3150  0.2141 -0.2826
19952TIP3    H181347   3.992   6.423  11.885 -1.4332 -0.0697 -0.0405
19952TIP3    H281348   3.975   6.289  11.816  0.1992 -0.1078 -0.3979
19953TIP3   OH281349   0.745   0.225  11.027  0.5816  0.5959 -0.1281
19953TIP3    H181350   0.754   0.313  10.990  1.9104  0.3444 -0.4433
19953TIP3    H281351   0.734   0.168  10.951  1.7796  0.2564 -0.0551
19954TIP3   OH281352   3.830   1.460  15.887  0.3163  0.2343  0.3597
19954TIP3    H181353   3.881   1.381  15.869  1.5471  1.2427 -0.7231
19954TIP3    H281354   3.815   1.500  15.801 -0.3351  1.1569  0.8808
19955TIP3   OH281355   3.636   4.966  11.744  0.1588  0.1154 -0.1925
19955TIP3    H181356   3.593   4.885  11.772 -0.1186  0.0526 -0.7767
19955TIP3    H281357   3.567   5.016  11.699  0.3056  0.7155  0.2385
19956TIP3   OH281358   0.420   3.546   1.487 -0.1458  0.1122 -0.6068
19956TIP3    H181359   0.326   3.546   1.503 -0.4453  0.9691 -2.1814
19956TIP3    H281360   0.439   3.458   1.452  0.0804 -0.8631  1.7786
19957TIP3   OH281361   4.960   1.967   0.784 -0.0569 -0.4542  0.2733
19957TIP3    H181362   4.871   1.953   0.814 -0.1974  1.0142  0.6010
19957TIP3    H281363   5.015   1.931   0.854 -0.3687 -1.5021 -0.0005
19958TIP3   OH281364   3.556   1.640  11.517 -0.1400 -0.2755  0.3165
19958TIP3    H181365   3.588   1.613  11.603  0.6071  2.1204  0.8788
19958TIP3    H281366   3.499   1.715  11.536 -1.3479 -0.7845 -1.1693
19959TIP3   OH281367   3.792   3.548  12.779  0.2468 -0.0013  0.0425
19959TIP3    H181368   3.841   3.623  12.814  0.7441 -0.7487  1.0098
19959TIP3    H281369   3.854   3.475  12.782 -0.2783 -0.4970 -0.7271
19960TIP3   OH281370   6.545   2.166  13.297 -0.2882  0.3798 -0.6584
19960TIP3    H181371   6.500   2.234  13.246 -1.5096 -1.1658 -1.7314
19960TIP3    H281372   6.485   2.145  13.368  0.1956  0.5637 -0.1835
19961TIP3   OH281373   6.224   0.755   5.056  0.1859 -0.3084 -0.4559
19961TIP3    H181374   6.183   0.842   5.061  1.4111  0.3719 -1.6837
19961TIP3    H281375   6.238   0.731   5.147 -0.9084  0.4058 -0.0649
19962TIP3   OH281376   3.363   2.159   2.487 -0.1920 -0.0757  0.2233
19962TIP3    H181377   3.441   2.109   2.513 -0.0431 -0.4685 -0.9039
19962TIP3    H281378   3.378   2.179   2.395 -1.2024  0.2809  0.1286
19963TIP3   OH281379   2.024   5.372   4.394 -0.4185 -0.2897  0.5727
19963TIP3    H181380   1.949   5.315   4.410 -0.4417 -0.9332 -1.5055
19963TIP3    H281381   1.986   5.460   4.390 -1.3115 -0.6987 -1.4711
19964TIP3   OH281382   6.647   4.732  14.534 -0.1326  0.2683  0.4585
19964TIP3    H181383   6.713   4.725  14.465 -0.3146  0.5524  0.2549
19964TIP3    H281384   6.635   4.642  14.565 -1.2536 -0.1409 -1.0091
19965TIP3   OH281385   5.679   0.324   3.211 -0.2080  0.4995  0.2534
19965TIP3    H181386   5.712   0.413   3.195  2.6571 -0.5933 -0.5580
19965TIP3    H281387   5.735   0.291   3.282 -0.6061 -0.9656 -0.0902
19966TIP3   OH281388   1.606   6.162   3.630 -0.5093  0.7003  0.3778
19966TIP3    H181389   1.626   6.211   3.709  0.0481  2.2389 -0.6757
19966TIP3    H281390   1.626   6.071   3.652  0.4985  1.2219  1.7048
19967TIP3   OH281391   0.779   0.297  12.690 -0.3118  0.5807 -0.2242
19967TIP3    H181392   0.721   0.335  12.756  0.3198 -0.9455  1.2965
19967TIP3    H281393   0.768   0.202  12.701  2.1926  0.2549 -0.1135
19968TIP3   OH281394   0.112   0.995   4.676  0.0379  0.0503 -0.2848
19968TIP3    H181395   0.147   0.906   4.675  0.8438  0.3485  0.2260
19968TIP3    H281396   0.146   1.035   4.595 -0.0590 -0.0029 -0.3523
19969TIP3   OH281397   3.112   0.662   0.350 -0.4106  0.3154 -0.1227
19969TIP3    H181398   3.017   0.657   0.352 -0.5727  2.1653 -0.9669
19969TIP3    H281399   3.134   0.668   0.256  0.7143 -2.1464 -0.0945
19970TIP3   OH281400   3.408   4.952  14.462  0.3610 -0.2059  0.0452
19970TIP3    H181401   3.359   4.881  14.505  0.6244  0.4919  1.5801
19970TIP3    H281402   3.415   5.019  14.529 -2.0167  2.3841 -2.0775
19971TIP3   OH281403   4.141   5.540  14.648  0.5971  0.2733  0.3056
19971TIP3    H181404   4.055   5.504  14.670  1.2415 -1.5089  0.0601
19971TIP3    H281405   4.128   5.635  14.649 -1.3939  0.0473  0.1772
19972TIP3   OH281406   0.892   3.715  15.241  0.1566  0.1799  0.7661
19972TIP3    H181407   0.845   3.646  15.287  2.8415 -1.4089  1.3234
19972TIP3    H281408   0.897   3.787  15.303  1.7565 -1.0943  2.2141
19973TIP3   OH281409   1.311   3.513   5.172  0.7115  0.0403 -0.0508
19973TIP3    H181410   1.373   3.544   5.238  2.3878 -0.2976 -1.3697
19973TIP3    H281411   1.330   3.420   5.163  0.8634  0.1672 -1.3138
19974TIP3   OH281412   4.448   4.050   3.945 -0.2204  0.4984  0.3746
19974TIP3    H181413   4.520   4.096   3.989 -0.7963  2.3426 -0.5168
19974TIP3    H281414   4.465   4.064   3.852 -1.1823  0.0799  0.1315
19975TIP3   OH281415   4.795   0.573  16.465 -0.0732 -0.2993  0.4276
19975TIP3    H181416   4.755   0.522  16.395 -0.4756 -0.0072  0.4445
19975TIP3    H281417   4.857   0.513  16.506 -1.5792 -1.2605  1.3878
19976TIP3   OH281418   6.386   1.690  15.211 -0.0804  0.3065 -0.4273
19976TIP3    H181419   6.368   1.784  15.213  1.4460  0.6405  1.3282
19976TIP3    H281420   6.416   1.673  15.122  0.9095  1.8053 -0.4254
19977TIP3   OH281421   1.891   1.980   3.883 -0.7395 -0.1325 -0.3191
19977TIP3    H181422   1.810   1.985   3.934  0.2927  0.5058  1.3479
19977TIP3    H281423   1.895   1.890   3.853 -2.0531 -0.1767 -0.3898
19978TIP3   OH281424   0.736   5.310  14.180 -0.3767  0.8185  0.3720
19978TIP3    H181425   0.710   5.318  14.272  1.8995  0.3982  1.1181
19978TIP3    H281426   0.820   5.355  14.175  0.0337 -0.0497 -1.2701
19979TIP3   OH281427   2.937   2.408   5.092 -0.2858 -0.4834  0.3299
19979TIP3    H181428   3.007   2.467   5.065  0.6274 -0.4931  2.4809
19979TIP3    H281429   2.859   2.440   5.046  0.6176  1.0387 -0.2035
19980TIP3   OH281430   4.491   0.545   1.302 -0.3875 -0.0689 -0.0452
19980TIP3    H181431   4.404   0.550   1.264 -0.1809 -0.5864 -0.5972
19980TIP3    H281432   4.476   0.531   1.396 -0.8953 -0.1378 -0.1378
19981TIP3   OH281433   1.333   1.645   1.392 -0.3830  0.3947 -0.3184
19981TIP3    H181434   1.428   1.642   1.401 -0.3089  0.1043 -1.0617
19981TIP3    H281435   1.313   1.573   1.331 -1.3713 -1.3854  1.9600
19982TIP3   OH281436   2.274   0.288   4.116 -0.0689 -0.7257  0.9582
19982TIP3    H181437   2.287   0.381   4.097  0.4738 -0.6592  1.6131
19982TIP3    H281438   2.335   0.243   4.056  0.2326 -0.6185  1.1827
19983TIP3   OH281439   5.981   6.253   4.922 -0.7296 -0.7741  0.4705
19983TIP3    H181440   5.977   6.168   4.877  1.3174 -0.2144 -0.9207
19983TIP3    H281441   6.072   6.260   4.950 -0.5481  1.4645 -0.5073
19984TIP3   OH281442   6.065   5.888   3.398  0.5816 -0.1271 -0.0216
19984TIP3    H181443   6.030   5.878   3.309  1.4487  1.7132 -0.6246
19984TIP3    H281444   6.159   5.899   3.384  0.8906 -0.9635  1.2512
19985TIP3   OH281445   2.497   0.728   6.021  0.8058  0.7048 -0.1625
19985TIP3    H181446   2.498   0.679   6.103  1.1221  2.7402  1.1128
19985TIP3    H281447   2.423   0.789   6.030  1.1954  1.3504 -1.1405
19986TIP3   OH281448   4.430   2.482  14.615  0.5386 -0.4102 -0.0795
19986TIP3    H181449   4.392   2.452  14.698  0.1809  1.1866  0.3611
19986TIP3    H281450   4.374   2.554  14.588  0.5680 -0.9908 -1.8094
19987TIP3   OH281451   1.315   5.440  10.645 -0.0024  0.4490  0.1778
19987TIP3    H181452   1.362   5.405  10.569  1.7125 -0.2899  1.5326
19987TIP3    H281453   1.294   5.530  10.620 -0.2371 -0.0391 -1.4953
19988TIP3   OH281454   5.510   5.922  16.410 -0.2908  0.3764 -0.4720
19988TIP3    H181455   5.583   5.894  16.465 -0.6637  1.7465  0.7688
19988TIP3    H281456   5.532   5.889  16.322  1.3512 -0.0188  0.0577
19989TIP3   OH281457   5.780   6.088   5.104 -0.2795  0.0677 -0.2615
19989TIP3    H181458   5.865   6.083   5.146  1.0079  0.6547 -2.6159
19989TIP3    H281459   5.758   6.181   5.104 -2.2531 -0.2750  2.6358
19990TIP3   OH281460   1.558   1.747   5.015  0.0948  0.1081  0.3615
19990TIP3    H181461   1.608   1.711   4.942  1.1487 -1.7115  1.9015
19990TIP3    H281462   1.477   1.777   4.975 -0.0378 -2.2563 -1.3952
19991TIP3   OH281463   3.506   5.362   3.140  0.0962 -0.3496  0.0553
19991TIP3    H181464   3.465   5.446   3.120  0.5165 -0.3455 -0.8611
19991TIP3    H281465   3.598   5.383   3.157 -0.1248 -0.4343  1.4958
19992TIP3   OH281466   6.778   5.636   0.830  0.1497 -0.0708 -0.2726
19992TIP3    H181467   6.733   5.575   0.888  0.6371  0.2204  0.4230
19992TIP3    H281468   6.831   5.690   0.888 -0.8752  1.5649 -0.7751
19993TIP3   OH281469   6.011   0.525  10.671  0.2093 -0.7247  0.4363
19993TIP3    H181470   6.039   0.603  10.622  0.6223 -0.4589  1.0869
19993TIP3    H281471   6.048   0.452  10.622 -0.9603 -0.5785 -0.7061
19994TIP3   OH281472   4.914   5.069   0.448 -0.2472 -0.1002 -0.1127
19994TIP3    H181473   4.862   5.125   0.506 -0.5917  0.5845 -1.0523
19994TIP3    H281474   5.003   5.102   0.458 -0.7750  2.5123 -2.6302
19995TIP3   OH281475   1.082   0.019   2.059 -0.2487 -0.0607 -0.2896
19995TIP3    H181476   1.033   0.094   2.026  0.0084 -0.1766 -0.9437
19995TIP3    H281477   1.148   0.001   1.992  0.5465 -0.0564  0.4578
19996TIP3   OH281478   5.894   4.394   3.797  0.7975  0.3098  0.1755
19996TIP3    H181479   5.803   4.365   3.793  0.6742  0.8087 -1.1222
19996TIP3    H281480   5.902   4.458   3.726  2.6317 -1.1250 -1.0179
19997TIP3   OH281481   5.087   5.988  15.280  0.6555  0.2246 -0.7949
19997TIP3    H181482   5.081   5.945  15.195  0.3495  0.0888 -0.7037
19997TIP3    H281483   5.154   6.056  15.268 -0.4630  1.2311 -1.5766
19998TIP3   OH281484   0.605   5.355   0.791 -0.2936  0.2899 -0.5372
19998TIP3    H181485   0.681   5.413   0.781 -1.5515  2.2179  0.3418
19998TIP3    H281486   0.557   5.392   0.865 -0.9994 -2.1659  0.3405
19999TIP3   OH281487   1.464   4.127  11.144  0.3774 -0.2597 -0.4225
19999TIP3    H181488   1.432   4.038  11.134  0.7804 -0.4208 -0.3007
19999TIP3    H281489   1.390   4.176  11.179 -0.4488 -0.1235 -2.2363
20000TIP3   OH281490   1.064   2.858   1.337  0.4343  0.0557 -0.0395
20000TIP3    H181491   1.088   2.889   1.425  0.9967 -0.3761 -0.0392
20000TIP3    H281492   1.138   2.805   1.309  1.0100  1.5040 -1.4563
20001TIP3   OH281493   4.079   6.795  14.981 -0.9281 -0.5418  0.5935
20001TIP3    H181494   4.055   6.834  14.897  0.0378  1.6806  1.2702
20001TIP3    H281495   4.171   6.769  14.971 -0.3371  1.1107  1.3648
20002TIP3   OH281496   4.801   0.023  14.581 -0.2813  0.0680  0.1142
20002TIP3    H181497   4.862   0.043  14.511 -0.5892 -1.5529 -0.6477
20002TIP3    H281498   4.831   0.077  14.655  3.3397 -2.0624  0.4378
20003TIP3   OH281499   4.924   6.507  13.188  0.0549  0.0027  0.2423
20003TIP3    H181500   4.923   6.456  13.269 -1.3693  0.6438  0.6496
20003TIP3    H281501   4.951   6.444  13.121  2.6022 -0.2464  1.3529
20004TIP3   OH281502   5.914   3.342   2.238 -0.1589 -0.1183 -0.0949
20004TIP3    H181503   5.837   3.335   2.182 -2.3495  1.2223  2.4615
20004TIP3    H281504   5.897   3.280   2.310  2.4329 -1.6424 -0.6574
20005TIP3   OH281505   2.747   0.148  14.033  0.0628  0.6454  0.3644
20005TIP3    H181506   2.712   0.146  14.123 -1.2699  1.3799 -0.1162
20005TIP3    H281507   2.701   0.076  13.989  1.0268  0.0147  0.3585
20006TIP3   OH281508   2.837   5.716   2.688  0.2909  0.0935 -0.2223
20006TIP3    H181509   2.853   5.685   2.777  2.8924 -2.4983 -1.4410
20006TIP3    H281510   2.741   5.716   2.680  0.0171 -0.6758  2.1976
20007TIP3   OH281511   4.417   0.739   5.176  0.0689  0.2197  0.3471
20007TIP3    H181512   4.356   0.705   5.241 -2.7543  0.8663 -1.7201
20007TIP3    H281513   4.392   0.831   5.166  2.0031  0.7382  0.0326
20008TIP3   OH281514   2.934   1.583   1.300 -0.2931 -0.5433  0.0240
20008TIP3    H181515   2.987   1.640   1.355 -0.9476  0.2998 -0.1989
20008TIP3    H281516   2.910   1.510   1.357 -0.8206  0.2347  0.8122
20009TIP3   OH281517   0.616   5.556   1.014 -0.0011  0.2669  0.0466
20009TIP3    H181518   0.611   5.634   0.958 -0.2201  0.9225  0.9660
20009TIP3    H281519   0.572   5.581   1.095 -0.1568 -0.8515  0.3234
20010TIP3   OH281520   0.009   2.217   2.381 -0.1414 -0.6858 -0.2358
20010TIP3    H181521   0.032   2.148   2.318 -1.8852 -1.6433  0.1083
20010TIP3    H281522   0.093   2.247   2.416  0.7145 -1.8838 -1.1803
20011TIP3   OH281523   3.570   6.176   4.286  0.1493  0.0410  0.4358
20011TIP3    H181524   3.611   6.167   4.372  2.0787  1.8813 -0.2248
20011TIP3    H281525   3.567   6.271   4.270 -3.7157  0.0420  0.0583
20012TIP3   OH281526   5.461   1.589   3.060  0.3424 -0.1175 -0.0943
20012TIP3    H181527   5.373   1.614   3.088  0.2587  1.6014 -1.6139
20012TIP3    H281528   5.467   1.621   2.969  1.8168 -2.0544 -0.7539
20013TIP3   OH281529   3.577   0.475   2.945  0.2297  0.2370  0.2203
20013TIP3    H181530   3.557   0.568   2.959  1.0267  0.7098 -1.4554
20013TIP3    H281531   3.502   0.428   2.980 -2.0375  1.7202 -2.2518
20014TIP3   OH281532   4.352   1.408   2.685  0.0688 -0.3797 -0.9204
20014TIP3    H181533   4.287   1.478   2.682 -0.1393 -0.4896  0.5205
20014TIP3    H281534   4.436   1.454   2.686 -0.0821 -0.0105  1.7973
20015TIP3   OH281535   0.545   5.249   4.584  0.2723 -0.1806 -0.2084
20015TIP3    H181536   0.613   5.236   4.650  2.1255  1.1519 -1.7272
20015TIP3    H281537   0.529   5.343   4.585  0.3652 -0.1299 -1.6336
20016TIP3   OH281538   6.397   6.739  11.775  0.3095 -0.3228  0.1831
20016TIP3    H181539   6.368   6.829  11.758  1.2555  0.3445  1.8193
20016TIP3    H281540   6.322   6.685  11.753 -0.9523  1.0440  0.9504
20017TIP3   OH281541   5.708   2.329   0.690  0.1610  0.2891  0.2400
20017TIP3    H181542   5.677   2.409   0.648  0.9879  0.8038  0.5767
20017TIP3    H281543   5.629   2.290   0.729 -0.5682 -0.0769 -1.5334
20018TIP3   OH281544   3.658   2.756  15.110  0.2531 -0.1224 -0.1399
20018TIP3    H181545   3.689   2.846  15.106  2.1529 -0.6919  0.4379
20018TIP3    H281546   3.577   2.755  15.059  0.4941  1.7744 -0.6132
20019TIP3   OH281547   6.848   3.908  11.248 -0.8979  0.3789 -0.2762
20019TIP3    H181548   6.761   3.919  11.208 -1.4751 -0.8137  0.5923
20019TIP3    H281549   6.878   3.998  11.263 -2.4912  0.8367  0.4447
20020TIP3   OH281550   4.717   0.912  14.562  0.0908 -0.0460 -0.1123
20020TIP3    H181551   4.692   0.882  14.474  1.0221  0.4920 -0.5735
20020TIP3    H281552   4.641   0.891  14.617 -1.5406  1.8582 -1.5164
20021TIP3   OH281553   2.967   5.650  13.640 -0.0785 -0.1808  0.1540
20021TIP3    H181554   3.061   5.634  13.650 -0.1114 -0.7106 -0.3705
20021TIP3    H281555   2.956   5.675  13.548 -0.1654  1.9466  0.6781
20022TIP3   OH281556   1.241   5.129  11.963 -0.1219 -0.2784 -0.0891
20022TIP3    H181557   1.229   5.055  11.903  2.2863 -0.3200 -0.6194
20022TIP3    H281558   1.242   5.205  11.905  0.3505 -0.1343  0.1082
20023TIP3   OH281559   2.693   0.561   0.440  0.0106 -0.3769 -0.1120
20023TIP3    H181560   2.625   0.607   0.490  0.7038 -1.0593  1.5449
20023TIP3    H281561   2.750   0.631   0.409  0.0023  0.0394  0.7599
20024TIP3   OH281562   0.811   2.335  13.066  0.6215 -0.1078  0.3781
20024TIP3    H181563   0.775   2.419  13.039  1.4563  0.1725  0.1199
20024TIP3    H281564   0.741   2.295  13.118  0.1927  0.7141  0.4521
20025TIP3   OH281565   5.360   2.709   5.329 -0.2006 -0.5893 -0.0185
20025TIP3    H181566   5.349   2.782   5.389  1.4393 -0.2763 -0.0361
20025TIP3    H281567   5.284   2.712   5.271  0.0961  1.4144 -0.3482
20026TIP3   OH281568   2.148   5.582   4.574 -0.2323 -0.2721  0.2949
20026TIP3    H181569   2.213   5.574   4.644  0.2947 -1.5228 -0.3138
20026TIP3    H281570   2.156   5.501   4.525 -0.2157  0.8012 -1.5523
20027TIP3   OH281571   6.351   6.515  12.542  0.3050 -0.2081 -0.5235
20027TIP3    H181572   6.364   6.431  12.498  1.3769 -0.3649  0.0438
20027TIP3    H281573   6.333   6.577  12.471 -0.3617 -0.8839 -0.9583
20028TIP3   OH281574   1.553   6.306   4.978 -0.0252 -0.1610 -0.3050
20028TIP3    H181575   1.527   6.290   5.069  2.5958 -0.7036  0.4378
20028TIP3    H281576   1.638   6.349   4.985 -0.4944  1.2755 -2.5348
20029TIP3   OH281577   6.691   5.616  14.227  0.0129 -0.1163  0.2774
20029TIP3    H181578   6.726   5.603  14.315  0.4117 -0.2542  0.0983
20029TIP3    H281579   6.596   5.619  14.240  0.0468 -0.5334  0.6604
20030TIP3   OH281580   5.157   2.296   2.580  0.1042 -0.0922 -0.3653
20030TIP3    H181581   5.142   2.275   2.488  1.9314 -0.3820 -0.6360
20030TIP3    H281582   5.222   2.232   2.609 -0.4997 -0.0543  1.1614
20031TIP3   OH281583   5.410   0.609  13.157 -0.2332 -0.2845  0.0511
20031TIP3    H181584   5.367   0.685  13.118  1.5037  0.4349 -0.5751
20031TIP3    H281585   5.472   0.647  13.220  0.2779 -1.1980  0.1141
20032TIP3   OH281586   5.097   0.330  16.341 -0.0707  0.3009  0.2604
20032TIP3    H181587   5.155   0.398  16.375 -1.8014  2.2929 -0.5347
20032TIP3    H281588   5.109   0.333  16.246 -0.0853 -0.6267  0.2174
20033TIP3   OH281589   0.619   2.426   6.273  0.1783 -0.2397  0.2430
20033TIP3    H181590   0.641   2.343   6.313 -0.8031 -0.1369  1.0323
20033TIP3    H281591   0.680   2.489   6.312  0.8288 -0.5528 -0.2528
20034TIP3   OH281592   3.593   3.609   1.178 -0.4482  0.0577  0.6187
20034TIP3    H181593   3.628   3.536   1.128 -1.3019 -0.0412  0.1447
20034TIP3    H281594   3.528   3.649   1.121  1.3445  2.4384  0.0634
20035TIP3   OH281595   0.551   6.270   4.184  0.2168 -0.1801 -0.0701
20035TIP3    H181596   0.522   6.362   4.191 -0.5032 -0.3823 -0.2852
20035TIP3    H281597   0.643   6.276   4.159  0.4761  0.4961  0.9615
20036TIP3   OH281598   0.733   2.547  14.534  0.1109 -0.5235 -0.0160
20036TIP3    H181599   0.659   2.607  14.526 -1.0707 -1.9406 -0.1654
20036TIP3    H281600   0.792   2.571  14.464 -0.1948  0.6440  0.1107
20037TIP3   OH281601   1.970   5.557  12.694  0.6667  0.0508 -0.1018
20037TIP3    H181602   1.974   5.496  12.620  0.5214 -0.8716  0.6432
20037TIP3    H281603   1.881   5.592  12.692  0.9435  0.7564 -0.9205
20038TIP3   OH281604   3.838   5.318  15.143  0.2038  0.1455 -0.3942
20038TIP3    H181605   3.835   5.258  15.069 -0.2563 -1.1389  0.6329
20038TIP3    H281606   3.779   5.389  15.119  2.1169  1.1910 -2.4111
20039TIP3   OH281607   1.999   6.351  11.733  0.0171 -0.3035 -1.1948
20039TIP3    H181608   1.915   6.309  11.714 -0.2954  0.7965 -2.3968
20039TIP3    H281609   2.027   6.313  11.817 -1.4945 -0.9509 -0.9553
20040TIP3   OH281610   2.780   1.922  11.669 -0.1743  0.1983 -0.1594
20040TIP3    H181611   2.811   2.010  11.691 -0.6604 -0.3144  2.9230
20040TIP3    H281612   2.701   1.910  11.721 -0.5830 -1.8066 -1.1335
20041TIP3   OH281613   2.500   5.947   2.247  0.2796 -0.0070 -0.6895
20041TIP3    H181614   2.432   5.989   2.299  0.1650  0.0610 -0.8953
20041TIP3    H281615   2.499   5.855   2.274 -0.7614 -0.2895 -1.6051
20042TIP3   OH281616   6.084   4.792  11.147 -0.4756 -0.6316 -0.2070
20042TIP3    H181617   6.110   4.816  11.058  1.9875 -0.0737  0.5880
20042TIP3    H281618   6.165   4.763  11.189 -1.7907 -2.0459  1.5291
20043TIP3   OH281619   4.204   0.127  10.896 -0.2456 -0.2918  0.0511
20043TIP3    H181620   4.192   0.212  10.854  0.3222  0.4880  1.4037
20043TIP3    H281621   4.116   0.089  10.900 -1.1841  1.7959  2.5633
20044TIP3   OH281622   3.646   2.371   1.139 -0.3718  0.1271  0.3659
20044TIP3    H181623   3.606   2.309   1.199  1.2221  0.0494  1.4005
20044TIP3    H281624   3.576   2.393   1.077 -1.1735 -2.1683  0.3624
20045TIP3   OH281625   1.329   1.205  16.320 -0.0035  0.3616  0.1352
20045TIP3    H181626   1.419   1.201  16.353  0.9596  0.9069 -2.2036
20045TIP3    H281627   1.328   1.142  16.247 -2.0829 -0.9901  1.2172
20046TIP3   OH281628   5.194   6.459   4.844  0.2474  0.2628 -0.3005
20046TIP3    H181629   5.170   6.535   4.791 -0.8506 -1.8022 -3.0499
20046TIP3    H281630   5.118   6.445   4.901  0.5659  1.3220  0.4116
20047TIP3   OH281631   5.622   0.651   2.646 -0.3002 -0.2331 -0.4921
20047TIP3    H181632   5.707   0.618   2.676 -1.1060 -1.1128  0.9193
20047TIP3    H281633   5.644   0.705   2.570  1.5354 -0.3343 -0.1037
20048TIP3   OH281634   6.308   2.492  15.104  0.0201  0.1809 -0.6564
20048TIP3    H181635   6.257   2.423  15.062  0.2262 -0.7920  0.6406
20048TIP3    H281636   6.248   2.533  15.166 -0.1676  1.3506 -1.5774
20049TIP3   OH281637   4.837   6.087  14.417  0.2933 -0.1257 -0.2051
20049TIP3    H181638   4.810   6.178  14.424  0.6997 -0.0674  0.8777
20049TIP3    H281639   4.758   6.037  14.436  0.7969  0.0429  3.0181
20050TIP3   OH281640   0.205   3.163   5.983  0.6028  0.3024 -0.2187
20050TIP3    H181641   0.208   3.242   6.037  1.9306 -0.3983  0.8077
20050TIP3    H281642   0.205   3.091   6.047  0.1999 -0.5350 -1.1423
20051TIP3   OH281643   5.636   6.227   2.708  0.1484 -0.7007  0.2983
20051TIP3    H181644   5.639   6.282   2.787 -0.9351  0.6675 -0.5536
20051TIP3    H281645   5.664   6.285   2.637 -3.4551 -0.3611 -1.0382
20052TIP3   OH281646   0.334   2.156  13.427 -0.1950 -0.4178 -0.0056
20052TIP3    H181647   0.323   2.244  13.463 -2.4683 -1.3388  1.7789
20052TIP3    H281648   0.427   2.137  13.439  0.0787  1.2327  0.7833
20053TIP3   OH281649   3.864   6.524   6.308  0.3706 -0.3654  0.6398
20053TIP3    H181650   3.922   6.577   6.363 -0.1625  0.2115  0.6570
20053TIP3    H281651   3.923   6.468   6.258  0.9344  0.0737  0.8006
20054TIP3   OH281652   4.798   3.085  11.044  0.2702  0.5764  0.4581
20054TIP3    H181653   4.803   3.180  11.058  1.9734  0.2933  2.2877
20054TIP3    H281654   4.873   3.051  11.093  1.4742 -1.4805 -2.5897
20055TIP3   OH281655   4.916   0.790   2.529  0.5374 -0.0424  0.3496
20055TIP3    H181656   4.921   0.836   2.613 -0.3741 -0.6018  0.7202
20055TIP3    H281657   4.851   0.839   2.478  0.5316 -0.1587  0.2454
20056TIP3   OH281658   5.116   3.146   5.482 -0.5420  0.6513  0.5954
20056TIP3    H181659   5.173   3.136   5.405 -0.9582 -0.1307  0.3823
20056TIP3    H281660   5.152   3.084   5.546 -0.8269  0.5542  0.6590
20057TIP3   OH281661   4.376   5.405  12.524 -0.1146 -0.4865  1.0148
20057TIP3    H181662   4.287   5.385  12.552 -0.0094 -2.5771  0.0193
20057TIP3    H281663   4.364   5.464  12.449 -0.6445 -0.5799  1.0217
20058TIP3   OH281664   2.746   3.476   5.848  0.0563  0.5740  0.3429
20058TIP3    H181665   2.726   3.501   5.758 -0.6953 -0.5618  0.1722
20058TIP3    H281666   2.694   3.537   5.901 -1.2319 -0.1449 -0.0506
20059TIP3   OH281667   3.894   5.402  14.651 -0.7073 -0.1495 -0.0188
20059TIP3    H181668   3.827   5.380  14.586 -0.4502  0.1374 -0.3782
20059TIP3    H281669   3.854   5.378  14.735 -0.4410 -2.0366 -0.3836
20060TIP3   OH281670   4.909   4.685  16.080 -0.1251  0.7016  0.0121
20060TIP3    H181671   4.995   4.712  16.049 -1.2168  2.2097 -1.8892
20060TIP3    H281672   4.849   4.709  16.010 -2.1819  0.1021  1.4647
20061TIP3   OH281673   5.115   6.104   0.299 -0.0441 -0.4611  0.0522
20061TIP3    H181674   5.109   6.157   0.379  0.9618  0.1279 -0.2479
20061TIP3    H281675   5.189   6.045   0.315 -0.2751 -0.8141 -0.1724
20062TIP3   OH281676   1.438   6.851  12.656 -0.0169  0.6328 -0.0182
20062TIP3    H181677   1.516   6.876  12.705  0.2814  0.1453 -0.2301
20062TIP3    H281678   1.416   6.764  12.689  0.4987  0.0655 -1.0856
20063TIP3   OH281679   3.838   2.259  15.313 -0.1420 -0.3221 -0.1098
20063TIP3    H181680   3.745   2.254  15.291 -1.1092  3.1563  2.3624
20063TIP3    H281681   3.843   2.221  15.401  0.6363  0.0620  0.0178
20064TIP3   OH281682   5.601   2.619   2.398 -0.4517 -0.2067 -0.0909
20064TIP3    H181683   5.593   2.626   2.493 -1.7361 -0.1700 -0.1902
20064TIP3    H281684   5.547   2.544   2.374 -0.4760  0.0387 -0.8413
20065TIP3   OH281685   6.825   1.128  12.178  0.1785 -0.3580 -0.9853
20065TIP3    H181686   6.871   1.109  12.260 -1.5633 -0.6645 -0.0244
20065TIP3    H281687   6.856   1.215  12.153  0.2127  0.0604  0.4190
20066TIP3   OH281688   3.666   6.627  10.423 -0.6242 -0.3459 -0.4287
20066TIP3    H181689   3.715   6.545  10.421  0.1866  0.0949  0.3285
20066TIP3    H281690   3.582   6.604  10.463  0.3373 -0.4926  1.6749
20067TIP3   OH281691   4.189   1.337   2.984  0.1496  0.6612  0.1245
20067TIP3    H181692   4.147   1.376   2.907 -0.9160 -0.9824 -0.1779
20067TIP3    H281693   4.117   1.316   3.043  0.7382 -0.2745  0.5320
20068TIP3   OH281694   0.602   4.332   4.344  0.0361  0.3566 -0.4764
20068TIP3    H181695   0.549   4.409   4.364  0.8024  0.5469  0.9278
20068TIP3    H281696   0.676   4.365   4.294  0.0452  0.4346 -0.4102
20069TIP3   OH281697   5.883   4.929  16.437 -0.0293 -0.2424 -0.1221
20069TIP3    H181698   5.942   4.855  16.451 -1.0058 -1.4682 -1.9709
20069TIP3    H281699   5.937   5.006  16.451  1.2015 -1.2985  1.2381
20070TIP3   OH281700   3.063   3.710   0.657 -0.0135  0.1425 -0.2837
20070TIP3    H181701   3.064   3.781   0.592  2.5796  0.3282 -0.1774
20070TIP3    H281702   3.013   3.746   0.730  0.4365  1.5351 -0.6109
20071TIP3   OH281703   2.828   3.058  12.397 -0.1548 -0.4813 -0.0793
20071TIP3    H181704   2.849   2.970  12.366 -0.5372 -0.2206 -1.1123
20071TIP3    H281705   2.790   3.102  12.321 -1.2647  0.1379  0.8017
20072TIP3   OH281706   1.407   3.662   3.717  0.5039 -0.4332 -0.2024
20072TIP3    H181707   1.473   3.617   3.770  0.2552 -0.2384  0.2846
20072TIP3    H281708   1.411   3.753   3.747  0.0318 -0.4138 -0.1859
20073TIP3   OH281709   1.384   4.590  13.776 -0.3695  0.2394  0.1283
20073TIP3    H181710   1.308   4.535  13.759  0.2554 -0.2844 -1.1440
20073TIP3    H281711   1.348   4.670  13.816 -1.5405 -0.1114 -0.1878
20074TIP3   OH281712   4.176   0.163  16.302 -0.7330 -0.0559 -0.2908
20074TIP3    H181713   4.265   0.197  16.300 -0.9049  0.3833 -0.5375
20074TIP3    H281714   4.183   0.080  16.349 -0.1386 -0.1807 -0.5895
20075TIP3   OH281715   6.489   4.994  11.391  0.6216 -0.4757  0.1392
20075TIP3    H181716   6.511   4.903  11.371  3.1795  0.2753 -0.8088
20075TIP3    H281717   6.469   5.033  11.306 -0.7688 -0.1767  0.5739
20076TIP3   OH281718   1.842   1.696  14.798  0.2890 -0.3571  0.4474
20076TIP3    H181719   1.814   1.661  14.714 -3.6853  0.6450  1.1132
20076TIP3    H281720   1.829   1.624  14.860  2.3933 -0.8312  0.4036
20077TIP3   OH281721   0.771   4.971  16.951  0.8678 -0.1406 -0.1982
20077TIP3    H181722   0.713   4.942  17.022 -0.3551  0.0587 -1.0977
20077TIP3    H281723   0.780   5.065  16.965 -0.7562  0.2122 -1.2458
20078TIP3   OH281724   1.660   0.971  13.712 -0.3317 -0.0678  0.0558
20078TIP3    H181725   1.610   0.940  13.787  0.2930 -0.3938  0.3463
20078TIP3    H281726   1.735   1.017  13.750 -0.6046  0.7585 -0.3689
20079TIP3   OH281727   3.447   5.736   1.108 -0.1278  0.2205  0.0266
20079TIP3    H181728   3.447   5.734   1.012 -0.9396  1.1251 -0.0035
20079TIP3    H281729   3.416   5.649   1.133  1.1744 -0.4301 -0.4915
20080TIP3   OH281730   2.054   5.144  14.499  0.8074  0.4376  0.0095
20080TIP3    H181731   2.058   5.147  14.403 -0.7707  2.4255 -0.0628
20080TIP3    H281732   1.961   5.142  14.519  1.1007  0.5917  1.5236
20081TIP3   OH281733   5.451   1.738  16.243  0.3612 -0.1371  0.4763
20081TIP3    H181734   5.542   1.760  16.224  0.5971 -1.0379  0.5129
20081TIP3    H281735   5.445   1.644  16.226 -0.9236  0.1569 -0.9782
20082TIP3   OH281736   3.426   4.926  15.973 -0.3009 -0.4518  0.1002
20082TIP3    H181737   3.514   4.956  15.993 -0.8212  0.7634  0.7170
20082TIP3    H281738   3.405   4.965  15.888 -0.4508 -0.2581  0.2244
20083TIP3   OH281739   5.385   3.470  12.376  0.0728 -0.0681  0.0365
20083TIP3    H181740   5.331   3.527  12.431  0.4296 -0.0111  0.3329
20083TIP3    H281741   5.369   3.382  12.409  3.9019  0.2602  3.5662
20084TIP3   OH281742   4.797   4.824  12.814  0.1139 -0.2983  0.1325
20084TIP3    H181743   4.755   4.910  12.819  0.1496 -0.3160  0.7611
20084TIP3    H281744   4.745   4.769  12.872 -0.0497 -0.7665 -0.4439
20085TIP3   OH281745   6.828   4.836  14.089  0.1105 -0.2904  0.5503
20085TIP3    H181746   6.915   4.797  14.085  0.0379 -0.5351  1.1675
20085TIP3    H281747   6.770   4.764  14.116 -0.0172  0.2361  1.7501
20086TIP3   OH281748   4.893   5.086   2.150  0.4861 -0.5304  0.3891
20086TIP3    H181749   4.832   5.047   2.213  1.6634  0.5034  2.2994
20086TIP3    H281750   4.893   5.179   2.172 -1.0155  0.3791 -2.9565
20087TIP3   OH281751   1.845   4.053   0.289  0.0435 -0.0040  0.0398
20087TIP3    H181752   1.778   4.093   0.345 -1.5510 -0.7909 -1.2167
20087TIP3    H281753   1.923   4.107   0.302 -1.1032  1.5413  0.8325
20088TIP3   OH281754   2.479   5.323   4.140 -0.0219 -0.5160 -0.2346
20088TIP3    H181755   2.456   5.397   4.084  1.9399  0.5644  0.3003
20088TIP3    H281756   2.445   5.347   4.226  2.0513  0.6359  0.3343
20089TIP3   OH281757   5.774   1.341   4.412 -0.0446 -0.3344 -0.2799
20089TIP3    H181758   5.797   1.356   4.504  1.5476  2.2463 -1.0022
20089TIP3    H281759   5.858   1.335   4.367 -0.7874  0.1004 -1.7946
20090TIP3   OH281760   0.534   2.614   0.936  0.2040 -0.4961 -0.5775
20090TIP3    H181761   0.523   2.525   0.905 -2.9240 -0.1132 -0.8490
20090TIP3    H281762   0.545   2.606   1.031  0.3661 -1.1729 -0.6501
20091TIP3   OH281763   1.621   0.461   1.563 -0.0665  0.5370 -0.2993
20091TIP3    H181764   1.583   0.453   1.476  0.0167  0.9376 -0.3768
20091TIP3    H281765   1.715   0.470   1.547  0.0292 -0.1327 -0.1263
20092TIP3   OH281766   4.845   1.563   3.526 -0.2088 -0.3532  0.1012
20092TIP3    H181767   4.776   1.606   3.575  0.5089  1.4385 -0.3725
20092TIP3    H281768   4.926   1.585   3.573  0.0141 -3.3616  1.3148
20093TIP3   OH281769   6.741   4.931  16.978 -0.2899 -0.3572  0.9105
20093TIP3    H181770   6.753   4.935  16.883  0.5812  0.3320  1.0404
20093TIP3    H281771   6.647   4.916  16.989 -1.1107  3.0229 -0.0443
20094TIP3   OH281772   3.063   2.580   6.722  0.0951  0.1066  0.1991
20094TIP3    H181773   3.076   2.647   6.655  0.2175  0.2894  0.4046
20094TIP3    H281774   3.151   2.552   6.746  0.0991  0.7820  1.0265
20095TIP3   OH281775   5.973   5.126   3.087 -0.6742 -0.2197  0.4968
20095TIP3    H181776   5.921   5.059   3.042 -2.3838  0.0406  1.9695
20095TIP3    H281777   5.945   5.209   3.049  0.9923 -0.2244 -0.8847
20096TIP3   OH281778   3.058   3.478  12.415  0.4537  0.4615 -0.0016
20096TIP3    H181779   3.040   3.569  12.391  1.1804  1.1932  1.9869
20096TIP3    H281780   3.128   3.451  12.356 -1.5979  0.2192 -2.4592
20097TIP3   OH281781   0.583   5.967   2.667 -0.0088 -0.0981  0.2525
20097TIP3    H181782   0.652   5.980   2.732 -0.5806  5.0039  0.1982
20097TIP3    H281783   0.507   5.937   2.718  1.0190 -1.7472  0.9066
20098TIP3   OH281784   5.162   4.702   1.680  0.0899 -0.2362  0.0410
20098TIP3    H181785   5.242   4.753   1.689  0.6387 -1.1573  0.4824
20098TIP3    H281786   5.172   4.655   1.598 -0.1318 -0.1186 -0.0536
20099TIP3   OH281787   4.257   3.548   4.148  0.1103 -0.6039  0.2518
20099TIP3    H181788   4.337   3.500   4.169  0.1175 -0.4301  0.6268
20099TIP3    H281789   4.288   3.629   4.109  0.1244 -0.4217  0.6392
20100TIP3   OH281790   0.372   4.322  10.685 -0.1344  0.5061 -0.4021
20100TIP3    H181791   0.312   4.307  10.758 -1.8035  0.4022 -1.7151
20100TIP3    H281792   0.457   4.341  10.726 -1.1209  0.9790  1.5394
20101TIP3   OH281793   4.781   0.622   2.843 -0.1206  0.3388  0.0931
20101TIP3    H181794   4.838   0.545   2.843  2.0167  1.8532 -0.1357
20101TIP3    H281795   4.740   0.621   2.930 -0.2562 -1.0986  0.0447
20102TIP3   OH281796   5.878   3.264  15.593 -0.6987  0.5943 -0.1087
20102TIP3    H181797   5.797   3.309  15.618 -1.0630 -0.0357 -0.1497
20102TIP3    H281798   5.917   3.238  15.676 -1.1729 -0.2058 -0.1294
20103TIP3   OH281799   4.539   2.593  12.260  0.4390 -0.1815 -0.4952
20103TIP3    H181800   4.468   2.625  12.316  1.0168  0.5856 -0.1866
20103TIP3    H281801   4.513   2.617  12.172  0.2845  0.0520 -0.3876
20104TIP3   OH281802   0.917   1.832  15.960 -0.5932 -0.3000 -0.0697
20104TIP3    H181803   0.998   1.850  15.913 -0.6968  1.2322  0.3059
20104TIP3    H281804   0.924   1.883  16.041 -0.7146 -2.3167  1.3113
20105TIP3   OH281805   6.041   4.674   3.893 -0.4128 -0.3329 -0.0911
20105TIP3    H181806   6.095   4.621   3.833  1.3112  1.1404  0.0566
20105TIP3    H281807   6.012   4.748   3.839 -2.0872 -0.9355 -0.0732
20106TIP3   OH281808   6.128   1.254   1.518  0.1501  0.1355 -0.0904
20106TIP3    H181809   6.084   1.308   1.584 -0.0776 -1.0014  0.7263
20106TIP3    H281810   6.200   1.308   1.486 -0.1671  0.9727  0.5713
20107TIP3   OH281811   1.639   2.345  16.165  0.5425 -0.0937 -0.7421
20107TIP3    H181812   1.646   2.348  16.260  2.2962 -2.3632 -0.7178
20107TIP3    H281813   1.546   2.360  16.147  0.2611  0.9625  1.2405
20108TIP3   OH281814   1.259   3.781  12.076  0.0183 -0.1297  0.4458
20108TIP3    H181815   1.196   3.752  12.009  0.1375  1.0624 -0.2156
20108TIP3    H281816   1.214   3.852  12.122  0.8685  0.7545 -0.0522
20109TIP3   OH281817   6.182   5.780  16.637 -0.2597  0.1315  0.0229
20109TIP3    H181818   6.209   5.739  16.719 -0.2608 -1.0260 -0.5381
20109TIP3    H281819   6.146   5.865  16.663 -0.6709 -0.4052  1.2636
20110TIP3   OH281820   4.179   3.279  10.726 -0.2251 -0.1414  0.1065
20110TIP3    H181821   4.114   3.223  10.684 -1.3438 -0.1901  1.8309
20110TIP3    H281822   4.202   3.343  10.658 -3.0321  0.6616 -0.2239
20111TIP3   OH281823   2.103   6.710   4.688 -0.2314 -0.4439 -0.1192
20111TIP3    H181824   2.054   6.787   4.716  0.3669 -0.2720  0.4820
20111TIP3    H281825   2.194   6.739   4.683  0.1229 -1.3159  0.9502
20112TIP3   OH281826   0.105   1.095  11.343  0.1000  0.0463  0.6793
20112TIP3    H181827   0.106   1.169  11.403 -1.1197  0.2404  0.4749
20112TIP3    H281828   0.105   1.134  11.256 -2.3610 -0.0947  0.5475
20113TIP3   OH281829   4.973   2.039  15.380 -0.0562 -0.5843 -0.2109
20113TIP3    H181830   5.034   2.096  15.334 -0.5034 -0.1832 -0.3113
20113TIP3    H281831   5.029   1.970  15.417  0.3843 -0.5643 -0.8110
20114TIP3   OH281832   0.008   1.454   5.065  0.4742 -0.8042  0.3761
20114TIP3    H181833  -0.070   1.401   5.050  1.5178 -2.1756 -0.3755
20114TIP3    H281834   0.019   1.504   4.984 -0.0139 -0.0583  0.7570
20115TIP3   OH281835   0.067   2.968   4.320 -1.1556 -0.3290  0.9915
20115TIP3    H181836   0.125   3.028   4.367 -1.9529  0.4192  1.0556
20115TIP3    H281837   0.103   2.964   4.231 -2.5299  2.3785  0.1927
20116TIP3   OH281838   4.535   2.609   6.435 -0.2022 -0.1238  0.0012
20116TIP3    H181839   4.586   2.676   6.391  0.3685 -1.9051 -2.2547
20116TIP3    H281840   4.445   2.643   6.434  0.1722  0.8868 -0.5114
20117TIP3   OH281841   4.388   6.323  10.822 -0.0256 -0.1282  0.7455
20117TIP3    H181842   4.343   6.408  10.820 -0.1592 -0.2104 -0.7172
20117TIP3    H281843   4.364   6.281  10.739  1.4054 -0.8729  0.6714
20118TIP3   OH281844   3.110   3.316   4.552 -0.4244 -0.1851 -0.1040
20118TIP3    H181845   3.127   3.222   4.548  0.4971 -0.0914  1.1005
20118TIP3    H281846   3.028   3.323   4.600 -1.0110 -0.3981 -1.0472
20119TIP3   OH281847   1.322   3.088   1.950 -0.1402  0.4190 -0.4540
20119TIP3    H181848   1.257   3.018   1.944  0.9071 -0.5710 -0.8587
20119TIP3    H281849   1.388   3.052   2.010  0.3319  1.1335 -0.5397
20120TIP3   OH281850   3.514   0.544  15.956  0.4059  0.2007  0.5418
20120TIP3    H181851   3.420   0.559  15.958  0.0345 -1.9553  1.7112
20120TIP3    H281852   3.525   0.469  15.897  0.9400 -1.9180  3.1686
20121TIP3   OH281853   0.196   4.535  17.001  0.6248  0.2585 -0.2338
20121TIP3    H181854   0.209   4.551  16.907 -0.1361 -1.1463 -0.6024
20121TIP3    H281855   0.103   4.553  17.016  0.7011  0.2975  0.2070
20122TIP3   OH281856   3.984   4.261   4.984 -0.2603  0.8618  0.2588
20122TIP3    H181857   3.920   4.293   4.920 -1.9534  0.0627  1.4554
20122TIP3    H281858   3.931   4.234   5.059  1.6362  1.6908  1.9979
20123TIP3   OH281859   0.426   6.205  13.885 -0.1648 -0.4449  0.2799
20123TIP3    H181860   0.421   6.294  13.918 -0.5660 -0.5942  0.6209
20123TIP3    H281861   0.515   6.198  13.849  0.4216 -0.4154  1.6862
20124TIP3   OH281862   4.574   0.840  12.373  0.4977 -0.4566 -0.3406
20124TIP3    H181863   4.600   0.762  12.323 -0.2103 -1.7876  1.2370
20124TIP3    H281864   4.655   0.868  12.416  1.0090  0.4200 -1.8239
20125TIP3   OH281865   3.029   6.354   2.303  0.2839 -0.8762 -0.2669
20125TIP3    H181866   3.053   6.353   2.211  2.1204 -2.4607  0.1742
20125TIP3    H281867   3.094   6.298   2.346  0.0842  0.6140  2.1494
20126TIP3   OH281868   6.124   6.832   0.037  0.2810 -0.6253 -0.2064
20126TIP3    H181869   6.068   6.754   0.042  0.0843 -0.6429 -1.9701
20126TIP3    H281870   6.077   6.898   0.087 -1.6514 -0.4987 -2.0442
20127TIP3   OH281871   3.393   5.958  15.475 -0.1681  0.1435  0.0919
20127TIP3    H181872   3.360   6.008  15.550 -1.2423 -0.2986 -0.0603
20127TIP3    H281873   3.354   6.001  15.399  0.6318  0.3743 -0.1951
20128TIP3   OH281874   2.888   6.464   6.077 -0.1058  0.0851  0.1174
20128TIP3    H181875   2.826   6.413   6.129  0.0474  1.6694  1.9481
20128TIP3    H281876   2.971   6.454   6.123  0.3171  0.5050 -0.5432
20129TIP3   OH281877   0.746   5.875  14.438 -0.6073 -0.1904 -0.8622
20129TIP3    H181878   0.687   5.950  14.447  0.2165  0.2429  2.6377
20129TIP3    H281879   0.730   5.823  14.517  1.1725 -1.9474 -1.5880
20130TIP3   OH281880   5.101   0.710   3.648  0.3679 -0.6688 -0.2960
20130TIP3    H181881   5.048   0.727   3.570 -1.1773 -0.6333  0.7094
20130TIP3    H281882   5.122   0.617   3.642  0.7525 -0.5420 -1.0335
20131TIP3   OH281883   6.855   4.809   0.271  0.1390 -0.2346  0.1336
20131TIP3    H181884   6.933   4.829   0.219  0.7826 -0.5509  0.9527
20131TIP3    H281885   6.783   4.849   0.223  0.7409 -0.3723 -0.9035
20132TIP3   OH281886   6.214   5.518  10.950  0.0051 -0.4371 -0.1916
20132TIP3    H181887   6.119   5.532  10.956  0.3184  1.3191  4.3562
20132TIP3    H281888   6.236   5.465  11.026  2.9270  1.3408  0.3688
20133TIP3   OH281889   2.634   1.510  14.019  0.1004  0.3347 -0.3634
20133TIP3    H181890   2.696   1.537  14.087 -1.0375 -0.1274  0.8762
20133TIP3    H281891   2.563   1.574  14.024 -1.8145 -1.7591  1.4839
20134TIP3   OH281892   1.744   1.236  15.241  0.0175  0.6599 -0.0751
20134TIP3    H181893   1.775   1.244  15.331  0.6624 -3.3667  0.2459
20134TIP3    H281894   1.654   1.269  15.243 -0.0203  0.5485  2.0657
20135TIP3   OH281895   1.404   3.327   3.193 -0.4495 -0.4125 -0.4133
20135TIP3    H181896   1.489   3.361   3.221  0.5241 -0.0338 -3.5037
20135TIP3    H281897   1.347   3.404   3.193  0.1300  0.0326 -1.5409
20136TIP3   OH281898   2.793   2.663  11.229  0.3143  0.1381  0.2151
20136TIP3    H181899   2.814   2.751  11.260  1.0209  0.2878 -0.6717
20136TIP3    H281900   2.872   2.633  11.185  0.3392 -1.2449  1.1473
20137TIP3   OH281901   5.537   2.198   2.190 -0.1669  0.3517 -0.0065
20137TIP3    H181902   5.630   2.192   2.207 -0.2746 -1.2241  0.1388
20137TIP3    H281903   5.529   2.262   2.119  1.4175 -2.2575 -2.7838
20138TIP3   OH281904   3.694   2.884   1.219  0.5634  0.4150 -0.7762
20138TIP3    H181905   3.630   2.862   1.287  1.6853  0.8347  0.4745
20138TIP3    H281906   3.648   2.870   1.137 -1.2796  1.1373  0.0714
20139TIP3   OH281907   6.220   3.617  15.087 -0.7537 -0.5867  0.1198
20139TIP3    H181908   6.273   3.623  15.167  1.0046 -1.0443 -0.9581
20139TIP3    H281909   6.203   3.523  15.077  0.1526 -0.6884 -0.6922
20140TIP3   OH281910   1.354   1.498   5.369 -0.1337  0.0272  0.2271
20140TIP3    H181911   1.263   1.504   5.400 -0.4515 -1.3166 -0.3647
20140TIP3    H281912   1.368   1.577   5.318 -0.4005  1.0888  1.7543
20141TIP3   OH281913   5.680   2.678  11.929  0.2965 -0.1829 -0.0700
20141TIP3    H181914   5.585   2.689  11.937  0.4895  0.7358  1.3090
20141TIP3    H281915   5.698   2.692  11.836 -0.7787  0.9119 -0.1427
20142TIP3   OH281916   2.630   3.049   1.730 -1.0618 -0.3712  0.2226
20142TIP3    H181917   2.602   2.958   1.733  1.4102 -1.3457 -2.1781
20142TIP3    H281918   2.562   3.093   1.679 -0.3695 -1.8232 -2.1056
20143TIP3   OH281919   6.258   2.961   3.879 -0.0726 -0.4786 -0.6112
20143TIP3    H181920   6.169   2.996   3.878  0.6320  1.3828 -1.2309
20143TIP3    H281921   6.283   2.954   3.787  0.8869  0.3007 -0.4279
20144TIP3   OH281922   2.412   3.245  13.132  0.3098 -0.6025 -0.3180
20144TIP3    H181923   2.366   3.180  13.185  0.3063 -0.3624 -0.0308
20144TIP3    H281924   2.437   3.197  13.053  0.2445 -0.9371 -0.1372
20145TIP3   OH281925   5.659   4.228  12.734 -0.0996  0.5296  0.5657
20145TIP3    H181926   5.693   4.138  12.729  0.2813  0.6524  0.8707
20145TIP3    H281927   5.736   4.283  12.721 -0.5354  0.8194 -0.8931
20146TIP3   OH281928   4.209   3.236   3.513  0.0096  0.0742  0.1360
20146TIP3    H181929   4.199   3.325   3.481  1.6642  0.1691 -0.1930
20146TIP3    H281930   4.206   3.181   3.434  1.0515  0.0414  0.1045
20147TIP3   OH281931   2.599   3.094  10.526 -0.1924  0.4037 -0.8553
20147TIP3    H181932   2.519   3.042  10.520 -0.5907  0.8450  0.3628
20147TIP3    H281933   2.656   3.045  10.585 -1.3366  2.2010  1.9494
20148TIP3   OH281934   3.725   0.911   4.885 -0.1980  0.1200  0.5394
20148TIP3    H181935   3.707   0.865   4.803  1.6692 -1.9179  1.1731
20148TIP3    H281936   3.671   0.866   4.950  0.4476 -0.1645  0.8898
20149TIP3   OH281937   2.580   0.153  14.481  0.4096  0.5534  0.1845
20149TIP3    H181938   2.505   0.212  14.486  0.8764  1.1626  0.1441
20149TIP3    H281939   2.653   0.204  14.517  0.4193 -0.6742  2.0871
20150TIP3   OH281940   6.602   0.055  12.393  0.0548 -0.3112  0.2162
20150TIP3    H181941   6.540  -0.015  12.411  0.4575 -0.5813  0.5653
20150TIP3    H281942   6.551   0.121  12.346 -0.5455 -0.4306  0.6938
20151TIP3   OH281943   4.598   2.565  14.102 -1.2704  0.4190 -0.6761
20151TIP3    H181944   4.605   2.497  14.170  0.6011 -0.5188 -1.7330
20151TIP3    H281945   4.513   2.606  14.118 -1.4871 -0.6862  1.3696
20152TIP3   OH281946   2.965   2.242  14.922 -0.2530 -0.0143 -0.0136
20152TIP3    H181947   3.019   2.305  14.873  0.5906  2.4423  3.6923
20152TIP3    H281948   2.875   2.273  14.909 -0.4045 -1.1977 -2.2521
20153TIP3   OH281949   4.037   4.566  15.624 -0.5031 -0.6134 -0.2285
20153TIP3    H181950   4.038   4.571  15.719 -1.9389 -1.5840 -0.1351
20153TIP3    H281951   3.949   4.594  15.599  0.5051  1.8168 -1.4682
20154TIP3   OH281952   3.488   4.932   2.298 -0.0827 -0.1253 -0.4067
20154TIP3    H181953   3.563   4.991   2.302  0.7598 -1.0860 -1.3561
20154TIP3    H281954   3.509   4.863   2.361 -0.0194 -0.5600 -0.9034
20155TIP3   OH281955   3.116   6.015  13.018  0.1429 -0.6210  0.0899
20155TIP3    H181956   3.065   6.070  12.958 -0.3382 -0.0412  0.9935
20155TIP3    H281957   3.198   6.063  13.031  0.0531 -0.5142  0.2608
20156TIP3   OH281958   2.940   0.729   3.268  0.4497  0.0184 -0.6300
20156TIP3    H181959   2.855   0.705   3.229  0.5342  0.0956 -0.8651
20156TIP3    H281960   2.984   0.645   3.282 -0.8101 -0.2558  2.1942
20157TIP3   OH281961   1.702   5.393  14.062 -0.0912  0.2804 -0.2282
20157TIP3    H181962   1.615   5.424  14.087 -0.1230  1.5478 -1.7173
20157TIP3    H281963   1.752   5.391  14.143 -0.6540  2.5143  0.2435
20158TIP3   OH281964   2.622   4.893  15.500 -0.2510  0.2206 -0.1272
20158TIP3    H181965   2.541   4.913  15.548  0.4673  0.1438  1.1664
20158TIP3    H281966   2.609   4.932  15.414 -0.7007  2.3637  0.8479
20159TIP3   OH281967   3.629   0.003  12.767 -0.2484  0.0209 -0.5560
20159TIP3    H181968   3.720   0.025  12.750  0.1575 -0.5207  0.8319
20159TIP3    H281969   3.584   0.088  12.772  0.4900  0.3633  0.4278
20160TIP3   OH281970   0.392   5.218  12.685  0.7136 -0.0145 -0.7085
20160TIP3    H181971   0.349   5.290  12.732 -0.6464 -2.8671  2.9469
20160TIP3    H281972   0.320   5.158  12.664  2.1432 -2.2237  0.3033
20161TIP3   OH281973   2.493   4.837  16.868 -0.8052  0.1989 -0.2907
20161TIP3    H181974   2.585   4.813  16.865 -0.8903 -0.1425 -0.2028
20161TIP3    H281975   2.493   4.933  16.874 -0.4356  0.1587  0.5239
20162TIP3   OH281976   6.766   0.056   3.167 -0.3674  0.0332 -0.1734
20162TIP3    H181977   6.824   0.105   3.108  2.6020 -0.2895  2.1927
20162TIP3    H281978   6.781  -0.035   3.144 -0.1993 -0.0382  0.2111
20163TIP3   OH281979   1.987   4.180  11.259 -0.4567 -0.0056  0.4555
20163TIP3    H181980   2.059   4.143  11.207  0.0170  0.7669  0.5534
20163TIP3    H281981   1.932   4.226  11.195 -0.1586  0.5004  0.5614
20164TIP3   OH281982   1.539   4.314  16.241  0.5907 -0.1271 -0.2615
20164TIP3    H181983   1.505   4.398  16.210 -1.0790 -0.6922 -0.0884
20164TIP3    H281984   1.598   4.336  16.313  0.2723  0.8976 -0.2994
20165TIP3   OH281985   5.466   1.365  12.509 -0.2180 -0.5455  0.2912
20165TIP3    H181986   5.403   1.391  12.442  0.9595 -0.5931 -0.8857
20165TIP3    H281987   5.456   1.270  12.516 -0.2845 -0.5529  0.1045
20166TIP3   OH281988   1.969   0.368   5.550 -0.3124 -0.1321  0.4753
20166TIP3    H181989   1.929   0.294   5.595 -1.8707 -0.3024 -1.0786
20166TIP3    H281990   1.943   0.444   5.601  0.4027 -0.5485  1.4837
20167TIP3   OH281991   4.244   5.942   3.826 -0.0582  0.2585 -0.5192
20167TIP3    H181992   4.279   5.925   3.739 -1.5359  0.1539 -1.1356
20167TIP3    H281993   4.249   5.858   3.871 -0.0044  0.1254 -0.7750
20168TIP3   OH281994   0.940   1.679  12.338 -0.3222 -0.2108 -0.3367
20168TIP3    H181995   0.930   1.584  12.332  0.5081 -0.3160 -0.1603
20168TIP3    H281996   0.934   1.697  12.432 -3.5980  0.3010 -0.5222
20169TIP3   OH281997   4.880   5.709   4.917  0.1641  0.5689  0.6069
20169TIP3    H181998   4.796   5.682   4.954  0.8807 -0.4361  1.6098
20169TIP3    H281999   4.870   5.696   4.823 -0.4921 -0.5023  0.8002
20170TIP3   OH282000   5.869   6.505  12.611  0.1340 -0.4495 -0.1744
20170TIP3    H182001   5.894   6.593  12.638  0.0335 -0.5828  0.3550
20170TIP3    H282002   5.899   6.448  12.681 -2.2044 -0.5588  0.8527
20171TIP3   OH282003   2.972   2.770  12.500 -0.1540  0.2072  0.4446
20171TIP3    H182004   3.028   2.738  12.430 -1.9335  1.7596 -1.8603
20171TIP3    H282005   3.032   2.806  12.565  1.5901 -1.8396  0.0623
20172TIP3   OH282006   0.339   3.033   0.967  0.4142 -0.3140 -0.2395
20172TIP3    H182007   0.372   3.118   0.997 -0.5844  0.1512 -0.4108
20172TIP3    H282008   0.369   3.027   0.876 -0.7153  0.5203 -0.6859
20173TIP3   OH282009   5.419   5.125   5.190  0.1585  0.1976  0.2034
20173TIP3    H182010   5.458   5.039   5.173 -1.3114 -0.3620 -0.5524
20173TIP3    H282011   5.467   5.185   5.133 -0.3466 -0.5459 -1.0436
20174TIP3   OH282012   1.298   3.553   3.391  0.5795  0.1777  0.5497
20174TIP3    H182013   1.276   3.638   3.430  0.4799 -0.8287  2.7805
20174TIP3    H282014   1.284   3.489   3.460  2.8797 -1.4351 -0.3331
20175TIP3   OH282015   6.589   6.173   6.011 -0.6424 -0.6169  0.6188
20175TIP3    H182016   6.630   6.257   6.033  0.3857 -1.0479  0.3908
20175TIP3    H282017   6.585   6.173   5.916  0.1269 -1.1707  0.5786
20176TIP3   OH282018   5.194   4.197   4.962 -0.1453  0.2439 -0.2025
20176TIP3    H182019   5.110   4.235   4.985 -0.6497 -1.3026  0.6034
20176TIP3    H282020   5.252   4.220   5.035 -0.7104 -1.2778  0.7868
20177TIP3   OH282021   3.277   3.752  15.832 -0.1032 -0.4638  0.0457
20177TIP3    H182022   3.360   3.756  15.880  0.4633 -0.1276 -0.9230
20177TIP3    H282023   3.293   3.690  15.761 -1.1439 -1.4786  0.6618
20178TIP3   OH282024   6.338   1.077   1.836  0.2518  0.1800 -1.1998
20178TIP3    H182025   6.312   1.155   1.883 -1.6246 -0.9716 -0.2004
20178TIP3    H282026   6.339   1.104   1.744 -0.1928  1.4185 -0.8605
20179TIP3   OH282027   5.122   5.503  12.235  0.4379  0.5296 -0.3908
20179TIP3    H182028   5.092   5.474  12.149  1.9995  3.7119 -2.1647
20179TIP3    H282029   5.148   5.594  12.223  3.9750  0.1869  2.6423
20180TIP3   OH282030   4.552   4.102   5.986 -0.7672 -0.4600 -0.3040
20180TIP3    H182031   4.478   4.157   6.013  1.2497  3.3825 -1.8574
20180TIP3    H282032   4.524   4.065   5.902 -1.2308  0.3453 -0.5166
20181TIP3   OH282033   4.756   1.363   1.825  0.3573 -0.5826  0.5353
20181TIP3    H182034   4.699   1.381   1.899  0.2965  0.8866  0.1689
20181TIP3    H282035   4.844   1.359   1.862  0.3611  0.4463  0.6639
20182TIP3   OH282036   2.050   6.098   5.579  0.0358 -0.2363  0.9015
20182TIP3    H182037   2.049   6.048   5.661  0.6158 -2.0926 -0.1619
20182TIP3    H282038   2.136   6.141   5.579  0.8746 -1.8189  0.4157
20183TIP3   OH282039   2.157   4.923   3.436 -0.0998 -0.0430 -0.1241
20183TIP3    H182040   2.192   4.848   3.388 -1.1274  0.9099 -2.5221
20183TIP3    H282041   2.230   4.985   3.440  0.1139 -0.2954 -0.0338
20184TIP3   OH282042   3.935   1.899   3.850 -0.1041 -0.1136  0.0284
20184TIP3    H182043   3.969   1.988   3.863  0.0153  0.1058 -1.5788
20184TIP3    H282044   3.992   1.843   3.903  1.4225  0.4914 -0.9204
20185TIP3   OH282045   3.159   6.741   1.355  0.3072 -0.2162  0.3448
20185TIP3    H182046   3.137   6.650   1.378 -0.3068  0.2118  1.5965
20185TIP3    H282047   3.078   6.776   1.317  0.9267 -0.5347 -1.3316
20186TIP3   OH282048   4.614   1.697   0.144 -0.1608  0.0708 -0.3468
20186TIP3    H182049   4.564   1.620   0.115 -0.5659  0.0013  0.4991
20186TIP3    H282050   4.697   1.661   0.176  0.3955  0.1721 -1.6162
20187TIP3   OH282051   3.445   5.196   4.387 -0.4263  0.4148 -0.5380
20187TIP3    H182052   3.376   5.152   4.337  0.3957  1.2850 -2.5553
20187TIP3    H282053   3.506   5.126   4.410 -1.6405 -0.2658  0.7570
20188TIP3   OH282054   5.765   1.201  12.231 -0.0686  0.1506  0.6299
20188TIP3    H182055   5.729   1.119  12.264  0.2601  0.0555  0.7499
20188TIP3    H282056   5.758   1.262  12.304  2.0855 -0.4689  1.4341
20189TIP3   OH282057   0.346   5.085  10.942 -0.4672  0.5110 -0.0716
20189TIP3    H182058   0.427   5.126  10.911 -0.1218  1.1041  1.5414
20189TIP3    H282059   0.312   5.145  11.008 -1.1677 -0.7016  0.7133
20190TIP3   OH282060   2.344   3.716   2.278 -0.4565 -0.1422 -0.8919
20190TIP3    H182061   2.294   3.791   2.246  0.3907  0.2454 -1.3347
20190TIP3    H282062   2.419   3.755   2.322 -0.9088 -0.7059  0.4139
20191TIP3   OH282063   0.926   5.086  16.286 -0.0763 -0.0403 -0.2211
20191TIP3    H182064   1.003   5.056  16.237  0.1880  0.2003  0.0453
20191TIP3    H282065   0.954   5.086  16.377 -0.1041  0.9075 -0.2037
20192TIP3   OH282066   6.654   1.134  11.415  0.1736  0.5431 -0.0417
20192TIP3    H182067   6.569   1.130  11.460  1.2757  0.1035  2.1298
20192TIP3    H282068   6.718   1.134  11.485  2.0989 -1.8458 -1.6349
20193TIP3   OH282069   2.944   1.944  13.472  0.0816  0.8344 -0.3001
20193TIP3    H182070   3.021   1.966  13.525  0.3501 -0.4975 -0.1053
20193TIP3    H282071   2.879   1.914  13.536 -0.3012  1.1406 -0.5426
20194TIP3   OH282072   3.722   2.380  14.504  0.4678  0.8186  0.4904
20194TIP3    H182073   3.784   2.312  14.477 -0.3471 -0.3956  1.5283
20194TIP3    H282074   3.764   2.421  14.580  1.3679  2.1514 -0.6621
20195TIP3   OH282075   4.492   1.707   5.134 -0.1582 -0.4785  0.3899
20195TIP3    H182076   4.398   1.725   5.136 -0.0479  0.5424 -1.1705
20195TIP3    H282077   4.532   1.794   5.129  0.9456 -0.8470  2.0773
20196TIP3   OH282078   0.388   2.624   4.646 -0.0914 -0.0447  0.0477
20196TIP3    H182079   0.361   2.657   4.561  1.1554 -0.7232 -0.6335
20196TIP3    H282080   0.431   2.698   4.689 -1.0880  0.4181  0.2836
20197TIP3   OH282081   2.493   2.538  14.905  0.1947  0.6193 -0.1373
20197TIP3    H182082   2.428   2.522  14.974  3.1718 -1.1388  2.5310
20197TIP3    H282083   2.469   2.476  14.835 -0.0628 -1.2664  1.5274
20198TIP3   OH282084   2.212   0.775  16.501 -0.1278  0.3656  0.2453
20198TIP3    H182085   2.305   0.758  16.518 -0.2612  0.4132  1.0646
20198TIP3    H282086   2.177   0.692  16.470 -0.0645  0.0268  1.0715
20199TIP3   OH282087   6.666   4.726  12.025 -0.1320  0.3186  0.2455
20199TIP3    H182088   6.600   4.686  12.082  1.3138 -0.3710  1.4737
20199TIP3    H282089   6.737   4.751  12.083  0.2185  2.1740 -0.8916
20200TIP3   OH282090   6.663   5.924  16.127 -0.3704  0.8080 -0.3257
20200TIP3    H182091   6.597   5.856  16.139 -0.3944  0.7426 -0.8250
20200TIP3    H282092   6.699   5.938  16.215 -0.4765  0.2640 -0.1920
20201TIP3   OH282093   3.451   5.532  13.423 -0.1860  0.5635  0.7786
20201TIP3    H182094   3.362   5.565  13.440 -0.3336  1.2554 -1.0681
20201TIP3    H282095   3.455   5.524  13.327  1.1880 -1.1108  0.9270
20202TIP3   OH282096   1.716   1.501  16.624 -0.5204 -0.5658 -0.4607
20202TIP3    H182097   1.737   1.457  16.542 -0.8050  0.7505 -1.2720
20202TIP3    H282098   1.800   1.537  16.654 -0.5473 -0.4253 -0.5551
20203TIP3   OH282099   0.302   2.916  15.345 -0.3431 -0.2516 -0.7191
20203TIP3    H182100   0.372   2.926  15.280 -0.3262 -3.1316 -1.2784
20203TIP3    H282101   0.341   2.943  15.427  1.0634 -0.7460 -1.2081
20204TIP3   OH282102   1.063   5.253  11.199 -0.3176 -0.0690  0.5299
20204TIP3    H182103   1.029   5.341  11.210 -1.4160 -0.6330  1.8126
20204TIP3    H282104   1.015   5.199  11.261 -0.0322 -1.6849 -0.5602
20205TIP3   OH282105   0.330   5.683  12.661  0.0887  0.2238  0.3041
20205TIP3    H182106   0.282   5.602  12.644 -0.3054  0.5512 -0.1274
20205TIP3    H282107   0.385   5.695  12.584  1.9846 -0.9111  1.3620
20206TIP3   OH282108   0.270   1.846  15.186  0.6443 -0.4649 -0.0732
20206TIP3    H182109   0.239   1.756  15.191 -0.7335 -0.2019 -2.2930
20206TIP3    H282110   0.350   1.841  15.134  0.3372 -0.3802 -0.5614
20207TIP3   OH282111   0.138   6.003   6.025  0.6162  0.1066  0.5751
20207TIP3    H182112   0.203   5.935   6.008  2.0332  0.7234  3.0632
20207TIP3    H282113   0.172   6.051   6.101 -1.5240  2.0754  0.4091
20208TIP3   OH282114   3.011   3.546   6.097 -0.2753  0.1846  0.2020
20208TIP3    H182115   3.060   3.524   6.176 -0.0171 -0.9796 -0.2662
20208TIP3    H282116   2.943   3.479   6.092  1.9711 -2.1127 -2.5455
20209TIP3   OH282117   1.574   1.603  14.101 -0.1964 -0.4947  0.7010
20209TIP3    H182118   1.616   1.597  14.015  0.8535 -2.7710  1.2926
20209TIP3    H282119   1.496   1.656  14.086  0.8759  0.6436 -1.2660
20210TIP3   OH282120   5.313   2.408  13.745 -0.1879 -0.7369 -0.5546
20210TIP3    H182121   5.271   2.409  13.659  1.3852 -0.7328 -1.3420
20210TIP3    H282122   5.240   2.423  13.806 -1.4165 -1.2727 -1.8210
20211TIP3   OH282123   0.504   0.294  15.172  0.8433  0.0265 -0.3108
20211TIP3    H182124   0.454   0.230  15.122  0.3460  0.3874 -0.2847
20211TIP3    H282125   0.588   0.299  15.128  0.8776 -0.6301 -0.3209
20212TIP3   OH282126   3.196   4.630   4.465 -0.0831  0.2760  0.5143
20212TIP3    H182127   3.138   4.588   4.528  0.1557  0.5817  0.9416
20212TIP3    H282128   3.142   4.696   4.423 -0.2950 -0.0569  0.2632
20213TIP3   OH282129   6.207   4.909  16.179 -0.3409  0.0128 -0.1012
20213TIP3    H182130   6.177   4.985  16.228 -0.2427  0.5968 -0.9411
20213TIP3    H282131   6.128   4.873  16.139 -0.3585 -0.2236  0.1391
20214TIP3   OH282132   1.978   2.145  14.702 -0.3206  0.1002  0.2663
20214TIP3    H182133   1.943   2.214  14.758 -0.5807 -0.1797  0.4540
20214TIP3    H282134   1.903   2.116  14.650 -0.0681  0.3872 -0.2524
20215TIP3   OH282135   0.753   4.342   4.725 -0.5473 -0.3928  0.1031
20215TIP3    H182136   0.846   4.338   4.749  0.1540 -1.5688 -2.4837
20215TIP3    H282137   0.720   4.421   4.768  2.4039  1.7371 -1.2064
20216TIP3   OH282138   0.352   0.755  16.137  0.1207  0.0111 -0.2656
20216TIP3    H182139   0.385   0.819  16.074 -0.2927  0.6111  0.1117
20216TIP3    H282140   0.426   0.695  16.152 -0.0062 -0.5746 -1.8550
20217TIP3   OH282141   0.512   2.847  16.896  0.5609  0.6010 -0.4416
20217TIP3    H182142   0.450   2.818  16.963  1.3997  0.1302  0.1384
20217TIP3    H282143   0.554   2.767  16.864  0.8489  0.9113 -0.8572
20218TIP3   OH282144   3.757   2.834  16.015 -0.3906 -0.2409 -0.2196
20218TIP3    H182145   3.842   2.836  16.060 -0.5234  2.3773  0.0616
20218TIP3    H282146   3.745   2.742  15.992  2.5290 -0.7104 -0.2949
20219TIP3   OH282147   5.204   2.057   0.700  0.4419  0.0502  0.5999
20219TIP3    H182148   5.116   2.019   0.702  1.2310 -1.9126  1.2103
20219TIP3    H282149   5.211   2.107   0.781 -0.4020  0.9621  0.1183
20220TIP3   OH282150   1.384   4.857   0.634  0.1806 -0.2468  0.3270
20220TIP3    H182151   1.322   4.886   0.567 -0.5860 -0.3224  0.9827
20220TIP3    H282152   1.334   4.862   0.716  1.5501  1.3465  1.1304
20221TIP3   OH282153   0.412   0.181   4.560 -0.2591 -0.1720 -0.3839
20221TIP3    H182154   0.359   0.232   4.499 -1.2574 -0.1695  0.4748
20221TIP3    H282155   0.358   0.171   4.638  0.8006 -0.6135  0.3236
20222TIP3   OH282156   1.976   2.792   0.523  0.2888  0.2675  0.3182
20222TIP3    H182157   1.964   2.709   0.568  0.9009  0.1990  0.3706
20222TIP3    H282158   1.990   2.767   0.431  0.8840  0.2792  0.4015
20223TIP3   OH282159   0.506   4.070  11.189 -0.6172 -0.3328  0.4884
20223TIP3    H182160   0.434   4.015  11.219 -1.4279  0.8949  0.8807
20223TIP3    H282161   0.475   4.160  11.201  1.6997  0.3093  2.4841
20224TIP3   OH282162   6.352   6.469  17.050  0.1279 -0.1922 -0.0680
20224TIP3    H182163   6.403   6.451  17.130  0.0587  0.5166  0.1422
20224TIP3    H282164   6.262   6.447  17.074 -0.3348  2.4987  0.9414
20225TIP3   OH282165   0.626   3.980   4.728  0.3528  0.1248  0.5741
20225TIP3    H182166   0.624   3.912   4.660 -1.2508 -0.6814  1.3863
20225TIP3    H282167   0.592   4.058   4.684  2.3270  0.5193 -0.4009
20226TIP3   OH282168   4.506   1.495   0.535  0.7722 -0.0064  0.4470
20226TIP3    H182169   4.592   1.452   0.531  0.6872 -0.0690 -1.2121
20226TIP3    H282170   4.458   1.446   0.603  1.6061 -0.7856  0.4866
20227TIP3   OH282171   5.359   3.339   0.977  0.5449  0.0014  0.6257
20227TIP3    H182172   5.385   3.431   0.981 -0.8463  0.4008  1.3211
20227TIP3    H282173   5.438   3.290   1.002  1.2790  0.9933  0.3190
20228TIP3   OH282174   1.224   0.898   5.915 -0.0616  0.0848 -0.1266
20228TIP3    H182175   1.150   0.854   5.958 -1.0560  0.4586 -1.3532
20228TIP3    H282176   1.302   0.859   5.954 -0.9142 -1.0082  0.5507
20229TIP3   OH282177   3.150   5.481  15.710 -0.7371 -0.4603 -0.1021
20229TIP3    H182178   3.183   5.394  15.686  1.2508  0.3720 -0.6322
20229TIP3    H282179   3.202   5.506  15.786 -1.8672 -0.0534  0.5508
20230TIP3   OH282180   6.596   3.950   4.149  0.0526  0.0029  0.0890
20230TIP3    H182181   6.677   3.963   4.099  0.5973 -0.0976  0.9319
20230TIP3    H282182   6.547   4.031   4.135  1.0811  0.8039  0.9819
20231TIP3   OH282183   5.941   0.286   4.242 -0.3107  0.7241  0.3916
20231TIP3    H182184   5.970   0.351   4.305 -0.0593 -1.2503  2.4724
20231TIP3    H282185   5.845   0.290   4.246 -0.3073  1.4507 -0.0732
20232TIP3   OH282186   1.527   1.091   3.651 -0.0074 -0.0079 -0.2459
20232TIP3    H182187   1.504   1.025   3.716  0.5262 -1.6401 -1.6287
20232TIP3    H282188   1.595   1.143   3.693  0.4269 -1.1068  0.4754
20233TIP3   OH282189   5.632   5.910  14.465 -0.0972 -0.1023 -0.6307
20233TIP3    H182190   5.715   5.899  14.512  1.8639  1.6526 -3.4002
20233TIP3    H282191   5.618   6.005  14.463  0.1196 -0.0513 -3.7567
20234TIP3   OH282192   0.220   2.714   4.423  0.0431 -0.3355  0.5202
20234TIP3    H182193   0.293   2.742   4.369 -0.1878  0.6830  0.7059
20234TIP3    H282194   0.147   2.703   4.361  0.3030 -1.2215  0.3545
20235TIP3   OH282195   2.401   3.394  14.905  0.0893 -0.6135 -0.1104
20235TIP3    H182196   2.388   3.456  14.833 -0.5415 -0.0479  0.4781
20235TIP3    H282197   2.493   3.369  14.900  0.4174  0.5933 -0.1893
20236TIP3   OH282198   3.349   2.984   5.285  0.0703 -0.1801 -1.0011
20236TIP3    H182199   3.408   2.932   5.230  0.5962  0.9542 -1.5549
20236TIP3    H282200   3.289   3.027   5.224 -2.3657 -2.4408 -0.3610
20237TIP3   OH282201   1.471   5.401   0.244 -0.1183  0.6303  0.4512
20237TIP3    H182202   1.565   5.384   0.249 -0.6291 -2.4249  2.5071
20237TIP3    H282203   1.450   5.390   0.151  1.3775  0.1485  0.1440
20238TIP3   OH282204   0.128   2.819  13.349  0.0037  0.1560  0.0475
20238TIP3    H182205   0.036   2.818  13.324  0.3883 -0.3926 -1.4292
20238TIP3    H282206   0.167   2.888  13.296  0.4749  0.2902  0.5604
20239TIP3   OH282207   0.902   1.349  12.442 -0.1441  0.1323 -0.2252
20239TIP3    H182208   0.811   1.371  12.458  0.4142  0.7335  2.6900
20239TIP3    H282209   0.902   1.254  12.430 -0.9418 -0.3349  2.6148
20240TIP3   OH282210   5.939   0.495  12.166 -0.1044  0.1079 -0.0995
20240TIP3    H182211   6.011   0.456  12.216  0.7918  1.2360 -0.4536
20240TIP3    H282212   5.935   0.585  12.197 -3.0436 -0.5103  1.7165
20241TIP3   OH282213   4.035   0.525   1.465  0.3569 -0.1403  0.0349
20241TIP3    H182214   3.963   0.583   1.490 -0.1029 -0.7561  0.1953
20241TIP3    H282215   3.997   0.469   1.397  0.6839 -0.4796  0.1283
20242TIP3   OH282216   0.087   1.489   3.655  0.8045  0.0512  0.1034
20242TIP3    H182217   0.120   1.572   3.688  0.1005 -0.0199  1.0277
20242TIP3    H282218  -0.008   1.494   3.667  0.6610 -0.5188 -0.6852
20243TIP3   OH282219   4.317   4.227  12.730 -0.1869 -0.0239  0.5816
20243TIP3    H182220   4.253   4.172  12.776  1.0953 -0.9179  1.3424
20243TIP3    H282221   4.362   4.275  12.799  0.9467 -0.4942  0.1834
20244TIP3   OH282222   5.260   5.511  14.434  0.1603  0.0967 -0.0436
20244TIP3    H182223   5.243   5.592  14.484  0.3503  1.3381 -1.8797
20244TIP3    H282224   5.208   5.522  14.354  3.1463  0.2696 -2.1462
20245TIP3   OH282225   1.020   5.362   2.762 -0.5444  0.0588  0.4479
20245TIP3    H182226   0.982   5.357   2.674 -2.0824 -2.7582  1.1668
20245TIP3    H282227   1.115   5.367   2.747 -0.5663 -2.8546 -1.4683
20246TIP3   OH282228   3.948   2.827   1.732 -0.0136 -0.2521  0.4208
20246TIP3    H182229   3.998   2.793   1.657  0.2130 -2.2256  1.3934
20246TIP3    H282230   3.983   2.779   1.807 -0.2871  1.6137  1.8155
20247TIP3   OH282231   0.801   4.349  16.322  0.1479 -0.2841  0.1488
20247TIP3    H182232   0.723   4.389  16.283  0.2498 -0.1459  0.0859
20247TIP3    H282233   0.810   4.266  16.276  0.1589 -0.2057  0.0057
20248TIP3   OH282234   5.875   1.200   2.997 -0.1658  0.3363  0.0460
20248TIP3    H182235   5.808   1.164   3.055 -0.4745 -1.6800 -1.4218
20248TIP3    H282236   5.957   1.160   3.026 -0.4010 -1.1213 -1.1380
20249TIP3   OH282237   5.895   2.630   5.522  0.0917 -0.3266 -0.2632
20249TIP3    H182238   5.979   2.675   5.508 -0.7105  0.7548 -1.7882
20249TIP3    H282239   5.848   2.687   5.583 -0.3609  0.1743 -1.0735
20250TIP3   OH282240   5.005   0.417  12.833  0.4925  0.2080  0.6642
20250TIP3    H182241   5.098   0.411  12.814  0.2807  1.1803 -0.8410
20250TIP3    H282242   4.979   0.503  12.799 -1.3663 -0.8793 -0.8815
20251TIP3   OH282243   4.360   5.672  15.739  0.0980  0.2780 -0.2574
20251TIP3    H182244   4.360   5.634  15.827 -1.3513  0.8597  0.0231
20251TIP3    H282245   4.401   5.605  15.684  1.0148 -0.0975  0.8372
20252TIP3   OH282246   6.574   0.646  11.348 -0.2969 -0.1701  0.1377
20252TIP3    H182247   6.662   0.638  11.385 -0.1508 -1.1661 -0.3785
20252TIP3    H282248   6.559   0.562  11.304 -1.6185 -0.1234  0.4606
20253LIG      O82249   1.620   4.557  12.008  0.0964  0.4505 -0.3535
20253LIG      N82250   1.452   4.789  12.315  0.0483 -0.9761  0.4735
20253LIG     C182251   1.492   4.661  11.836  0.1621 -0.4180  0.2187
20253LIG     C282252   1.566   4.683  11.969 -0.6846  0.2578 -0.4991
20253LIG     C382253   1.571   4.617  11.712  1.3114 -0.1204  0.4863
20253LIG     C482254   1.378   4.562  11.842  0.4128  0.0304 -0.4153
20253LIG     C582255   1.467   4.739  12.079 -0.3372  0.4197  0.5411
20253LIG     C682256   1.482   4.623  11.581  0.7228 -0.0937  0.0865
20253LIG     C782257   1.287   4.553  11.717  0.9519 -0.1084  0.9856
20253LIG     C882258   1.362   4.534  11.595 -0.2907 -0.5717 -0.1780
20253LIG     C982259   1.545   4.789  12.201 -0.2526  0.0569  0.3751
20253LIG    C1082260   1.679   4.804  11.940  0.5813  0.2455 -0.0343
20253LIG    C1182261   1.509   4.821  12.441  0.4424  0.4232 -0.1492
20253LIG    C1282262   1.330   4.872  12.300 -0.0035  0.7953 -0.0727
20253LIG    C1382263   1.551   4.970  12.443 -0.0012 -0.9863  0.0161
20253LIG    C1482264   1.367   5.020  12.279  0.2353  0.4735 -0.2455
20253LIG    C1582265   1.446   5.072  12.401 -0.9661 -0.7209  0.3154
20253LIG    C1682266   1.641   4.936  11.922  0.3618 -0.0285  0.6486
20253LIG    C1782267   1.808   4.767  11.931 -0.3567  0.4362 -0.1169
20253LIG    C1882268   1.742   5.035  11.896 -0.1163  1.0746  0.2738
20253LIG    C1982269   1.908   4.860  11.901 -0.2125  0.1877  0.0821
20253LIG    C2082270   1.870   4.993  11.876 -0.6327 -0.0889  0.3400
20253LIG     H182271   1.448   4.759  11.805  1.6896  0.0076 -0.7361
20253LIG     H282272   1.604   4.511  11.715  0.7414 -0.3054  0.3635
20253LIG     H382273   1.652   4.686  11.682  0.2496  0.2532 -1.7877
20253LIG     H482274   1.312   4.595  11.925 -0.2848  0.6788 -1.2120
20253LIG     H582275   1.416   4.461  11.869 -0.9177  0.3490  3.1637
20253LIG     H682276   1.389   4.665  12.106 -1.0953  1.3773  1.0559
20253LIG     H782277   1.420   4.829  12.034 -0.1554  0.1855 -0.1178
20253LIG     H882278   1.550   4.595  11.498 -0.6024 -0.3162 -0.9634
20253LIG     H982279   1.455   4.729  11.560  1.8976 -0.0020 -1.1121
20253LIG    H1082280   1.234   4.648  11.696  1.4094 -0.1935 -0.6883
20253LIG    H1182281   1.205   4.479  11.732 -1.1326  1.7618 -0.5059
20253LIG    H1282282   1.404   4.433  11.612  0.3456 -0.4196 -0.7935
20253LIG    H1382283   1.306   4.528  11.499  0.0179  1.8373 -0.5751
20253LIG    H1482284   1.624   4.713  12.222  1.9829  1.1225 -3.1227
20253LIG    H1582285   1.597   4.886  12.188  0.0935 -0.1382  0.2697
20253LIG    H1682286   1.598   4.757  12.457 -0.0658 -0.2282  0.1238
20253LIG    H1782287   1.434   4.805  12.522  0.7475  0.6357  0.1788
20253LIG    H1882288   1.265   4.858  12.389  0.8642 -1.0627  0.3208
20253LIG    H1982289   1.262   4.842  12.217 -0.8499  1.1063  0.4989
20253LIG    H2082290   1.663   4.523  11.930  2.2975 -0.0069  0.9981
20253LIG    H2182291   1.639   4.979  12.376 -1.0882  1.9362 -1.1904
20253LIG    H2282292   1.590   5.009  12.540 -1.6455 -0.7256  0.6027
20253LIG    H2382293   1.281   5.089  12.263 -1.0525 -1.1069 -0.3731
20253LIG    H2482294   1.435   5.034  12.193 -0.8889 -1.1458 -1.4525
20253LIG    H2582295   1.497   5.166  12.372 -0.9682 -1.8724 -4.0606
20253LIG    H2682296   1.377   5.101  12.483  0.0653  0.5066  0.7878
20253LIG    H2782297   1.538   4.966  11.927  0.2460 -0.3592  0.3371
20253LIG    H2882298   1.843   4.667  11.955  0.0515  1.0985  2.3716
20253LIG    H2982299   1.708   5.137  11.885  0.0069  1.1262  0.3724
20253LIG    H3082300   2.007   4.820  11.888 -0.1662  0.5400 -0.7084
20253LIG    H3182301   1.938   5.064  11.830  0.3778 -2.6525 -2.4614
   6.85596   6.85596  17.09719
